INSANE! Membrane UpperLeaflet>loPI:POPI:DPPI:PYPI:ERGO=180.0:5.0:3.0:2.0:10.0 LowerLeaflet>PSPI:POPI:POPS:YOPS:POPE:YOPE:POPC:YOPC:ERGO=6.0:14.0:21.0:9.0:9.0:21.0:12.0:48.0:60.0
49069
    1loPI    C1    1  18.035   5.432  10.806  0.1037 -0.0914  0.1725
    1loPI    C2    2  17.758   5.635  11.011  0.0672 -0.1607  0.1921
    1loPI    C3    3  18.056   5.453  11.205  0.2896  0.1523  0.1521
    1loPI   PO4    4  18.008   5.465  10.605  0.1971 -0.2175 -0.2949
    1loPI   GL1    5  17.963   5.652  10.265 -0.2649  0.3073  0.3057
    1loPI   GL2    6  18.197   5.406  10.094 -0.1361 -0.1056  0.0166
    1loPI   C1A    7  17.827   5.764   9.773  0.2931 -0.0181  0.2319
    1loPI   C2A    8  17.876   5.778   9.423  0.3116  0.0605 -0.0588
    1loPI   C3A    9  17.819   5.915   8.933  0.2069 -0.2350  0.0727
    1loPI   C4A   10  17.871   6.038   8.513 -0.2571 -0.0762 -0.4669
    1loPI   C5A   11  17.596   6.417   8.266  0.1129  0.0838  0.3342
    1loPI   C6A   12  17.433   6.817   8.057  0.1121  0.3124  0.0447
    1loPI   C1B   13  18.150   5.415   9.760  0.0318  0.1324  0.0456
    1loPI   C2B   14  18.183   5.439   9.361 -0.0164  0.0381 -0.2810
    1loPI   C3B   15  18.239   5.564   8.915 -0.2935  0.1313  0.1380
    1loPI   C4B   16  18.241   5.693   8.432  0.3301  0.1681  0.2256
    2loPI    C1   17  14.573   0.961  10.729 -0.3250  0.0849 -0.0497
    2loPI    C2   18  14.580   1.139  11.087 -0.3629 -0.0289  0.0081
    2loPI    C3   19  14.661   0.749  11.056  0.0276  0.0602 -0.1562
    2loPI   PO4   20  14.603   1.127  10.606  0.0859 -0.0306 -0.3775
    2loPI   GL1   21  14.379   1.303  10.350  0.1787 -0.1941  0.2221
    2loPI   GL2   22  14.429   0.998  10.146  0.0342  0.0784  0.0213
    2loPI   C1A   23  14.444   1.424   9.878 -0.2369 -0.0009 -0.0147
    2loPI   C2A   24  14.573   1.364   9.504 -0.3923  0.0390 -0.1787
    2loPI   C3A   25  14.627   1.350   9.143  0.0579 -0.3794 -0.0076
    2loPI   C4A   26  14.709   1.430   8.648  0.2386 -0.0636 -0.0201
    2loPI   C5A   27  14.707   1.317   8.172  0.2516  0.0161 -0.0612
    2loPI   C6A   28  14.634   1.583   7.772  0.1211  0.0423  0.0154
    2loPI   C1B   29  14.411   0.852   9.752 -0.3869 -0.1214  0.3433
    2loPI   C2B   30  14.496   0.872   9.375 -0.2999  0.1015  0.2053
    2loPI   C3B   31  14.619   0.891   8.945  0.1142  0.0893 -0.0247
    2loPI   C4B   32  14.505   0.916   8.552 -0.1271 -0.0753 -0.0570
    3loPI    C1   33   7.166   1.273  10.362 -0.3750 -0.0318 -0.0944
    3loPI    C2   34   7.161   1.626  10.550 -0.2070 -0.1010  0.0425
    3loPI    C3   35   6.861   1.526  10.305 -0.2522  0.1389 -0.0028
    3loPI   PO4   36   7.397   1.325  10.185 -0.2134  0.0095  0.1263
    3loPI   GL1   37   7.502   1.132   9.858 -0.1609 -0.1521 -0.0342
    3loPI   GL2   38   7.724   1.269   9.587 -0.1931  0.0219 -0.0701
    3loPI   C1A   39   7.538   0.799   9.544  0.1827 -0.1441 -0.1182
    3loPI   C2A   40   7.554   0.710   9.094 -0.3487  0.0519  0.1006
    3loPI   C3A   41   7.588   0.727   8.697 -0.2353 -0.0837 -0.2852
    3loPI   C4A   42   7.298   0.772   8.394 -0.0208 -0.1715  0.3216
    3loPI   C5A   43   7.183   0.749   7.960  0.1147  0.1278 -0.0522
    3loPI   C6A   44   6.944   0.488   7.654 -0.2623  0.1245  0.2713
    3loPI   C1B   45   7.732   1.273   9.185  0.0384  0.0792 -0.3857
    3loPI   C2B   46   7.718   1.263   8.771 -0.1066 -0.0874 -0.0073
    3loPI   C3B   47   7.710   1.076   8.304  0.0554  0.2373 -0.0585
    3loPI   C4B   48   7.694   0.715   7.976  0.3707 -0.2581 -0.0253
    4loPI    C1   49   7.262  18.002  10.410 -0.0376  0.0147  0.0727
    4loPI    C2   50   6.906  18.183  10.442  0.0455  0.1679  0.1445
    4loPI    C3   51   7.105  18.074  10.771  0.0595  0.0701  0.1041
    4loPI   PO4   52   7.445  18.179  10.276  0.1426  0.1092  0.1908
    4loPI   GL1   53   7.834  17.922  10.140  0.0565 -0.2576 -0.0452
    4loPI   GL2   54   7.622  17.862   9.925 -0.0581  0.0218  0.3860
    4loPI   C1A   55   8.098  17.777   9.848 -0.1200  0.1185 -0.1601
    4loPI   C2A   56   8.180  17.744   9.371 -0.4978 -0.0045 -0.2478
    4loPI   C3A   57   8.182  17.633   8.924 -0.0441 -0.2327  0.0381
    4loPI   C4A   58   8.228  17.591   8.451 -0.2501  0.4298 -0.3338
    4loPI   C5A   59   8.190  17.525   8.024  0.0369  0.0411 -0.1969
    4loPI   C6A   60   8.042  17.817   7.679 -0.0914  0.0363  0.0355
    4loPI   C1B   61   7.729  17.547   9.531  0.0615 -0.1468  0.0970
    4loPI   C2B   62   7.745  17.541   9.106 -0.0495  0.1413  0.1939
    4loPI   C3B   63   7.682  17.410   8.670  0.2644  0.0768 -0.2619
    4loPI   C4B   64   7.766  17.512   8.289  0.1519 -0.4080  0.0142
    5loPI    C1   65   7.266  10.153  10.688 -0.0599  0.3172  0.1201
    5loPI    C2   66   7.317   9.879  10.976 -0.1001 -0.0219 -0.1872
    5loPI    C3   67   6.954  10.034  10.909 -0.0763  0.1149 -0.0095
    5loPI   PO4   68   7.366  10.058  10.388  0.4029  0.1440 -0.2267
    5loPI   GL1   69   7.277   9.833  10.100 -0.2397 -0.0435 -0.1465
    5loPI   GL2   70   7.554   9.751   9.987 -0.0286 -0.3204 -0.1809
    5loPI   C1A   71   7.121   9.971   9.740 -0.0528 -0.0120  0.1662
    5loPI   C2A   72   7.140  10.058   9.334 -0.1869  0.3124  0.2324
    5loPI   C3A   73   7.040  10.063   8.841 -0.0985 -0.3015 -0.0397
    5loPI   C4A   74   6.952  10.169   8.428 -0.3597 -0.4680  0.1336
    5loPI   C5A   75   6.941  10.483   8.162  0.0675 -0.1996 -0.0059
    5loPI   C6A   76   6.984  10.796   7.911 -0.0398  0.0597 -0.2023
    5loPI   C1B   77   7.495   9.741   9.488  0.0384 -0.0851 -0.5083
    5loPI   C2B   78   7.435   9.746   8.992  0.1399  0.0287  0.2887
    5loPI   C3B   79   7.402   9.691   8.547 -0.2912 -0.2187  0.1501
    5loPI   C4B   80   7.460   9.814   8.092  0.2075  0.0577 -0.0240
    6loPI    C1   81  11.134   8.176  10.044 -0.0897  0.0836 -0.0614
    6loPI    C2   82  11.430   8.426  10.143  0.1871 -0.1933 -0.1742
    6loPI    C3   83  11.114   8.385  10.384  0.2314  0.1159 -0.0594
    6loPI   PO4   84  11.212   8.129   9.716  0.2527 -0.0216 -0.0337
    6loPI   GL1   85  11.245   8.226   9.355 -0.0670  0.1800 -0.3717
    6loPI   GL2   86  10.915   8.392   9.266 -0.1618  0.2317  0.1954
    6loPI   C1A   87  11.298   8.173   9.010  0.0454  0.4052 -0.1677
    6loPI   C2A   88  11.145   8.084   8.616 -0.1587  0.0198 -0.1285
    6loPI   C3A   89  11.271   8.075   8.150 -0.0746 -0.0293 -0.1823
    6loPI   C4A   90  11.093   8.302   7.720 -0.1751 -0.1179  0.0697
    6loPI   C5A   91  11.022   8.453   7.363 -0.1064 -0.1411 -0.0940
    6loPI   C6A   92  11.309   8.500   7.072  0.0542  0.2782  0.1097
    6loPI   C1B   93  10.775   8.250   8.852 -0.0522  0.3263 -0.1246
    6loPI   C2B   94  10.627   8.235   8.407  0.1668  0.2934  0.0118
    6loPI   C3B   95  10.646   8.239   7.957 -0.2006 -0.0020  0.1215
    6loPI   C4B   96  10.686   8.089   7.541  0.0736 -0.0887 -0.0227
    7loPI    C1   97   5.293   2.247  10.419 -0.0925  0.0548  0.2950
    7loPI    C2   98   5.611   2.348  10.199 -0.1751 -0.1225  0.0903
    7loPI    C3   99   5.514   2.564  10.521  0.0627  0.0224  0.0673
    7loPI   PO4  100   5.147   2.080  10.187 -0.1822  0.0539 -0.1972
    7loPI   GL1  101   5.059   1.925   9.762 -0.0690  0.0775 -0.0079
    7loPI   GL2  102   4.911   1.812   9.592 -0.1758  0.2078  0.1019
    7loPI   C1A  103   5.301   2.132   9.434  0.0895  0.0988  0.2825
    7loPI   C2A  104   5.392   2.202   8.994 -0.3789 -0.2951 -0.0863
    7loPI   C3A  105   5.583   2.242   8.529  0.2692 -0.1617 -0.0321
    7loPI   C4A  106   5.559   2.331   8.123 -0.0101 -0.1038 -0.3938
    7loPI   C5A  107   5.766   2.556   7.774 -0.1114  0.0426 -0.0727
    7loPI   C6A  108   5.988   2.946   7.709  0.0222 -0.1699 -0.1176
    7loPI   C1B  109   4.912   1.847   9.141  0.1143 -0.1920 -0.0865
    7loPI   C2B  110   5.105   1.816   8.678  0.3817  0.0342 -0.1760
    7loPI   C3B  111   4.794   1.856   8.490 -0.3340  0.1312 -0.0621
    7loPI   C4B  112   4.538   1.984   8.200  0.0127 -0.1935  0.0733
    8loPI    C1  113   2.455  13.286  10.986 -0.0697 -0.1574 -0.0158
    8loPI    C2  114   2.595  13.604  11.185  0.0344 -0.1865 -0.0420
    8loPI    C3  115   2.677  13.234  11.315 -0.3091 -0.2024  0.1414
    8loPI   PO4  116   2.265  13.323  10.873  0.4213 -0.1215 -0.2029
    8loPI   GL1  117   2.186  13.114  10.443 -0.1974  0.1213  0.0841
    8loPI   GL2  118   1.945  13.239  10.416 -0.6999  0.2265 -0.1685
    8loPI   C1A  119   2.462  13.019  10.115 -0.0241  0.1777 -0.2266
    8loPI   C2A  120   2.522  13.009   9.671  0.2515  0.0180  0.0788
    8loPI   C3A  121   2.405  12.990   9.290  0.0434 -0.1435  0.0341
    8loPI   C4A  122   2.429  12.990   8.841 -0.1219  0.2224  0.1843
    8loPI   C5A  123   2.277  13.043   8.325  0.1178  0.0689  0.2993
    8loPI   C6A  124   2.175  12.865   7.947 -0.1953 -0.0473  0.0621
    8loPI   C1B  125   2.046  13.337   9.943  0.3139  0.0765 -0.1133
    8loPI   C2B  126   2.089  13.413   9.478  0.0384  0.1073  0.1764
    8loPI   C3B  127   2.025  13.511   9.046  0.2239  0.1485 -0.0447
    8loPI   C4B  128   1.998  13.166   8.707  0.2043  0.3064  0.0503
    9loPI    C1  129   5.912  18.172  10.307  0.0213 -0.0448  0.1935
    9loPI    C2  130   5.576  18.387  10.281  0.0624  0.0257  0.2401
    9loPI    C3  131   5.603  18.091  10.548 -0.0782 -0.1906  0.0195
    9loPI   PO4  132   5.976  18.151  10.088  0.0040  0.2607 -0.2066
    9loPI   GL1  133   5.835  18.175   9.637  0.3436 -0.3375 -0.1516
    9loPI   GL2  134   5.609  18.377   9.714 -0.2058  0.2685 -0.1648
    9loPI   C1A  135   5.862  18.079   9.206 -0.0540 -0.2682 -0.2197
    9loPI   C2A  136   5.940  17.868   8.768 -0.1136 -0.0865 -0.0611
    9loPI   C3A  137   6.039  17.855   8.300 -0.4192  0.3243  0.1671
    9loPI   C4A  138   6.045  18.183   7.913 -0.0158  0.1634 -0.2871
    9loPI   C5A  139   5.997  18.577   7.782 -0.4263  0.1562 -0.0628
    9loPI   C6A  140   5.593  18.806   7.530 -0.0368 -0.3399 -0.0137
    9loPI   C1B  141   5.422  18.327   9.331 -0.0343 -0.2487  0.0052
    9loPI   C2B  142   5.396  18.293   8.846  0.0666 -0.2065 -0.3127
    9loPI   C3B  143   5.289  18.563   8.552  0.0269 -0.2399 -0.0841
    9loPI   C4B  144   5.218  18.709   8.189 -0.0696  0.0481 -0.3928
   10loPI    C1  145  11.444  11.676  10.706 -0.0507 -0.1281  0.0796
   10loPI    C2  146  11.777  11.610  10.917 -0.0002  0.0838  0.0695
   10loPI    C3  147  11.663  11.984  10.835  0.1674  0.0064 -0.5717
   10loPI   PO4  148  11.514  11.555  10.436 -0.0426  0.0692 -0.2767
   10loPI   GL1  149  11.521  11.623  10.054 -0.1260  0.0649  0.1752
   10loPI   GL2  150  11.630  11.900   9.949 -0.1846  0.3346  0.0824
   10loPI   C1A  151  11.918  11.446   9.923  0.0071  0.0614  0.0227
   10loPI   C2A  152  11.971  11.368   9.489  0.0682  0.1096  0.1118
   10loPI   C3A  153  12.408  11.198   9.226 -0.1623  0.0939  0.2131
   10loPI   C4A  154  12.490  11.297   8.823 -0.1007 -0.0861 -0.0257
   10loPI   C5A  155  12.676  11.050   8.472  0.2623  0.0868 -0.2862
   10loPI   C6A  156  12.461  10.804   8.101  0.0923 -0.1277 -0.2153
   10loPI   C1B  157  11.677  11.770   9.440 -0.0609  0.2038  0.0074
   10loPI   C2B  158  11.759  11.874   8.943  0.0071 -0.0821 -0.0079
   10loPI   C3B  159  11.529  12.068   8.604 -0.0172 -0.0893  0.2340
   10loPI   C4B  160  11.482  11.997   8.267  0.1125 -0.2677 -0.3553
   11loPI    C1  161  15.198   0.560  10.831 -0.0987  0.0354 -0.0463
   11loPI    C2  162  15.343   0.600  11.202 -0.2737  0.0824  0.0180
   11loPI    C3  163  15.039   0.350  11.133 -0.1201 -0.0668 -0.1281
   11loPI   PO4  164  15.398   0.498  10.665 -0.2477  0.4882  0.0193
   11loPI   GL1  165  15.388   0.504  10.256  0.2450  0.1076 -0.1251
   11loPI   GL2  166  15.277   0.759  10.092  0.2326 -0.2764  0.0947
   11loPI   C1A  167  15.767   0.387  10.018 -0.0716  0.1265  0.0410
   11loPI   C2A  168  15.838   0.420   9.620  0.0541 -0.1211  0.0444
   11loPI   C3A  169  15.815   0.351   9.188 -0.0551 -0.1417  0.0053
   11loPI   C4A  170  15.771   0.258   8.814  0.1672 -0.0163  0.0992
   11loPI   C5A  171  15.923   0.282   8.444  0.1920 -0.0432  0.1839
   11loPI   C6A  172  15.894   0.435   8.074 -0.1659  0.0647 -0.1677
   11loPI   C1B  173  15.405   0.766   9.676  0.0861 -0.0399 -0.3448
   11loPI   C2B  174  15.493   0.768   9.303  0.1376 -0.0102  0.0737
   11loPI   C3B  175  15.362   0.705   8.832 -0.0078 -0.0381 -0.1076
   11loPI   C4B  176  15.459   0.547   8.425  0.0234  0.0119  0.0146
   12loPI    C1  177  18.138   8.665  11.601  0.0221  0.0802 -0.1949
   12loPI    C2  178  17.899   8.943  11.760  0.0657 -0.0807  0.1638
   12loPI    C3  179  18.079   8.677  11.997 -0.0061 -0.4417 -0.1772
   12loPI   PO4  180  18.080   8.653  11.395 -0.1003  0.0719  0.0180
   12loPI   GL1  181  18.025   8.648  10.911 -0.0299  0.2127  0.1290
   12loPI   GL2  182  18.217   8.609  10.596  0.3307  0.3329 -0.2746
   12loPI   C1A  183  17.703   8.734  10.704  0.3023 -0.0454  0.1058
   12loPI   C2A  184  17.583   8.984  10.438  0.0597  0.0403 -0.1121
   12loPI   C3A  185  17.603   9.141  10.034 -0.3170  0.0844 -0.1684
   12loPI   C4A  186  17.662   9.112   9.595  0.2128  0.0077  0.0324
   12loPI   C5A  187  17.596   9.130   9.141  0.0047 -0.0210  0.1833
   12loPI   C6A  188  17.737   9.324   8.723  0.2093  0.1439 -0.0380
   12loPI   C1B  189  17.975   8.732  10.182 -0.4493 -0.0624 -0.0562
   12loPI   C2B  190  17.943   8.689   9.777  0.0661 -0.0322  0.2411
   12loPI   C3B  191  17.978   8.819   9.336  0.0002 -0.1614  0.2691
   12loPI   C4B  192  18.281   8.728   8.917  0.2195  0.0508 -0.1843
   13loPI    C1  193  17.438  14.045  10.887 -0.0772 -0.0098  0.0847
   13loPI    C2  194  17.059  14.028  11.015 -0.1491  0.3953 -0.0599
   13loPI    C3  195  17.353  14.111  11.273 -0.1234 -0.1506  0.0995
   13loPI   PO4  196  17.337  13.903  10.634  0.1953 -0.3230  0.4098
   13loPI   GL1  197  17.242  13.695  10.310  0.5575  0.0286  0.5238
   13loPI   GL2  198  17.194  13.482  10.267 -0.0738  0.0549 -0.2030
   13loPI   C1A  199  17.279  13.813   9.908 -0.1027  0.1735  0.0735
   13loPI   C2A  200  17.194  13.769   9.436 -0.2585 -0.0441  0.0768
   13loPI   C3A  201  17.161  13.797   9.038  0.0924 -0.1088 -0.1636
   13loPI   C4A  202  17.244  13.819   8.631 -0.0882 -0.0332  0.1622
   13loPI   C5A  203  17.295  13.492   8.354  0.0777 -0.0100  0.0652
   13loPI   C6A  204  17.333  13.553   7.918 -0.0394 -0.0040 -0.1558
   13loPI   C1B  205  17.177  13.304   9.930 -0.2878  0.0554 -0.0903
   13loPI   C2B  206  17.131  13.201   9.499 -0.1003 -0.1221 -0.2442
   13loPI   C3B  207  17.092  13.261   9.068  0.0329 -0.0989  0.2105
   13loPI   C4B  208  17.034  13.213   8.650 -0.0927  0.0922 -0.4077
   14loPI    C1  209   4.031  14.567  10.922  0.3377 -0.1373  0.0032
   14loPI    C2  210   3.961  14.330  11.237  0.1422 -0.1381 -0.0397
   14loPI    C3  211   4.075  14.709  11.293  0.0628 -0.1247  0.0333
   14loPI   PO4  212   4.168  14.360  10.712  0.2167  0.2612 -0.2399
   14loPI   GL1  213   4.198  14.087  10.445  0.2090 -0.0541 -0.2256
   14loPI   GL2  214   3.921  14.008  10.325 -0.2099 -0.3847 -0.3698
   14loPI   C1A  215   4.386  13.768  10.112  0.1646 -0.0147  0.1530
   14loPI   C2A  216   4.421  13.745   9.661  0.1459 -0.0599 -0.0586
   14loPI   C3A  217   4.445  13.745   9.247  0.4802  0.4779 -0.0591
   14loPI   C4A  218   4.512  13.700   8.804  0.0216 -0.3183 -0.2813
   14loPI   C5A  219   4.454  13.612   8.444  0.0257 -0.1616 -0.1218
   14loPI   C6A  220   4.280  13.898   8.216  0.2813  0.0515 -0.0151
   14loPI   C1B  221   3.699  13.930   9.989  0.0111 -0.0927 -0.2156
   14loPI   C2B  222   3.561  13.793   9.628 -0.2520 -0.0868  0.1013
   14loPI   C3B  223   3.476  13.819   9.213 -0.0846  0.0491  0.0841
   14loPI   C4B  224   3.551  13.899   8.793 -0.1750  0.0019  0.2473
   15loPI    C1  225  15.773   8.284  11.193 -0.2382  0.0404 -0.2390
   15loPI    C2  226  15.565   8.075  11.464  0.0806 -0.0097 -0.0276
   15loPI    C3  227  15.964   8.047  11.452  0.1202  0.4825 -0.0853
   15loPI   PO4  228  15.691   8.282  10.984 -0.2434  0.0100 -0.3966
   15loPI   GL1  229  15.863   8.407  10.654  0.1382  0.1586  0.1949
   15loPI   GL2  230  16.128   8.245  10.501  0.1171  0.0888 -0.0251
   15loPI   C1A  231  15.712   8.458  10.262  0.1043 -0.1303  0.2509
   15loPI   C2A  232  15.626   8.432   9.872 -0.0181 -0.4343  0.0021
   15loPI   C3A  233  15.617   8.480   9.497 -0.1006 -0.1392 -0.0673
   15loPI   C4A  234  15.701   8.513   9.076  0.1684  0.0493 -0.0899
   15loPI   C5A  235  15.892   8.643   8.731  0.1936 -0.1475 -0.2211
   15loPI   C6A  236  16.092   8.580   8.400 -0.1818  0.0469 -0.3370
   15loPI   C1B  237  16.308   8.172  10.106 -0.0747 -0.1593  0.0828
   15loPI   C2B  238  16.542   8.265   9.819 -0.1517 -0.2347  0.1287
   15loPI   C3B  239  16.515   8.249   9.302  0.0891 -0.2821  0.0394
   15loPI   C4B  240  16.671   8.246   8.896  0.0733 -0.0729 -0.3362
   16loPI    C1  241   4.816  18.174  10.487  0.0765  0.1860 -0.0802
   16loPI    C2  242   4.905  18.554  10.400 -0.0145  0.2851  0.2446
   16loPI    C3  243   5.163  18.332  10.609  0.0353  0.1684  0.0617
   16loPI   PO4  244   4.707  18.057  10.280  0.2508  0.0268 -0.3881
   16loPI   GL1  245   4.785  18.064   9.920  0.1500 -0.1686  0.0290
   16loPI   GL2  246   5.140  18.221  10.042  0.0267 -0.0731  0.1568
   16loPI   C1A  247   4.955  18.238   9.565  0.3159 -0.1992  0.2168
   16loPI   C2A  248   4.971  18.205   9.126  0.0228 -0.0596 -0.3376
   16loPI   C3A  249   4.991  18.064   8.721 -0.2246 -0.0343 -0.1158
   16loPI   C4A  250   5.138  18.106   8.323  0.0449 -0.0509  0.1509
   16loPI   C5A  251   4.941  18.265   7.998 -0.0126  0.0239 -0.1308
   16loPI   C6A  252   4.800  18.226   7.614 -0.2544 -0.0470 -0.2409
   16loPI   C1B  253   5.195  18.637   9.800 -0.1795 -0.3158  0.4206
   16loPI   C2B  254   5.107  18.715   9.372  0.1157  0.1179 -0.4314
   16loPI   C3B  255   5.009  18.683   8.952  0.2096 -0.0770  0.1859
   16loPI   C4B  256   4.604  18.935   8.680 -0.4490 -0.0568  0.0483
   17loPI    C1  257  15.185   7.500  10.768 -0.0345  0.2395  0.1143
   17loPI    C2  258  14.931   7.807  10.740 -0.0220  0.2427  0.0348
   17loPI    C3  259  14.959   7.603  11.082 -0.1239  0.2488  0.0472
   17loPI   PO4  260  15.390   7.571  10.585  0.1556  0.2273 -0.2725
   17loPI   GL1  261  15.471   7.425  10.235 -0.0076  0.0332  0.1656
   17loPI   GL2  262  15.531   7.069  10.206 -0.1269  0.1216  0.0254
   17loPI   C1A  263  15.306   7.467   9.890  0.1061  0.0579 -0.0679
   17loPI   C2A  264  15.392   7.460   9.404 -0.6495  0.2417  0.0440
   17loPI   C3A  265  15.471   7.485   9.003 -0.1884  0.0415  0.0862
   17loPI   C4A  266  15.664   7.553   8.592  0.1656 -0.0371  0.0773
   17loPI   C5A  267  15.662   7.788   8.224 -0.1095  0.0599  0.1673
   17loPI   C6A  268  15.811   7.857   7.763 -0.3035 -0.2004 -0.0317
   17loPI   C1B  269  15.677   7.080   9.857 -0.2108 -0.0153  0.3980
   17loPI   C2B  270  15.680   7.048   9.502  0.1020 -0.1458  0.0120
   17loPI   C3B  271  15.875   7.169   9.164  0.0685 -0.1618 -0.0380
   17loPI   C4B  272  15.957   7.163   8.720 -0.1294  0.1749 -0.0724
   18loPI    C1  273   0.180  17.454  10.675 -0.1241 -0.0404  0.1106
   18loPI    C2  274  -0.010  17.759  10.851  0.1230  0.1473  0.0579
   18loPI    C3  275   0.311  17.597  11.025  0.0136 -0.0617  0.0684
   18loPI   PO4  276   0.111  17.499  10.358  0.3684  0.1241  0.2261
   18loPI   GL1  277   0.201  17.677   9.983  0.4339  0.2238  0.0255
   18loPI   GL2  278   0.174  17.966   9.838 -0.0133 -0.0203  0.1265
   18loPI   C1A  279   0.171  17.532   9.664 -0.0151  0.0942  0.2310
   18loPI   C2A  280   0.141  17.450   9.246  0.0784  0.1862 -0.3489
   18loPI   C3A  281   0.125  17.619   8.793 -0.0717  0.5190 -0.1980
   18loPI   C4A  282   0.204  17.433   8.363  0.0362 -0.0062  0.1588
   18loPI   C5A  283   0.145  17.101   8.037 -0.0831 -0.3473  0.0932
   18loPI   C6A  284  -0.081  16.818   7.814  0.2431 -0.0308 -0.1772
   18loPI   C1B  285   0.284  18.083   9.432  0.2113  0.2290 -0.1383
   18loPI   C2B  286   0.162  18.098   8.956 -0.0780  0.0603 -0.0213
   18loPI   C3B  287   0.280  18.082   8.534 -0.0863 -0.0084 -0.0802
   18loPI   C4B  288   0.198  18.080   8.058 -0.1851 -0.1549  0.6727
   19loPI    C1  289   2.890  17.377  11.035  0.4278  0.0734 -0.0978
   19loPI    C2  290   2.858  17.744  11.191 -0.0095  0.0288 -0.0700
   19loPI    C3  291   3.088  17.469  11.370 -0.0761  0.1403  0.1927
   19loPI   PO4  292   2.919  17.416  10.824  0.2390  0.2324  0.2868
   19loPI   GL1  293   2.749  17.457  10.480  0.1196  0.0856 -0.1014
   19loPI   GL2  294   2.492  17.359  10.547 -0.0232  0.1377  0.4817
   19loPI   C1A  295   2.973  17.260  10.053  0.0949 -0.4139  0.0918
   19loPI   C2A  296   2.781  17.149   9.672  0.1816 -0.0723 -0.1945
   19loPI   C3A  297   2.832  17.176   9.224 -0.2420 -0.0167 -0.1596
   19loPI   C4A  298   2.762  16.989   8.815 -0.1651  0.0036  0.1335
   19loPI   C5A  299   2.489  16.920   8.494 -0.1950 -0.1874 -0.0374
   19loPI   C6A  300   2.346  17.156   8.180 -0.2751 -0.1875  0.0221
   19loPI   C1B  301   2.407  17.449  10.089 -0.2064  0.1496  0.3497
   19loPI   C2B  302   2.382  17.489   9.715 -0.0868 -0.1576 -0.0516
   19loPI   C3B  303   2.337  17.374   9.311 -0.0793  0.0145 -0.0104
   19loPI   C4B  304   2.489  17.426   8.949  0.0677 -0.0580 -0.2603
   20loPI    C1  305  17.325   5.973  11.220 -0.3558  0.1944 -0.1500
   20loPI    C2  306  17.443   6.288  11.437 -0.2525  0.0452  0.0132
   20loPI    C3  307  17.085   6.123  11.502 -0.2167 -0.0070  0.0803
   20loPI   PO4  308  17.368   5.980  10.913  0.1746  0.1947 -0.0472
   20loPI   GL1  309  17.247   6.160  10.537 -0.0834  0.2527 -0.0118
   20loPI   GL2  310  17.397   6.059  10.326 -0.1667 -0.1604 -0.0581
   20loPI   C1A  311  17.166   6.468  10.150 -0.2507  0.0567  0.0733
   20loPI   C2A  312  17.197   6.390   9.699 -0.4276 -0.0436  0.0555
   20loPI   C3A  313  17.032   6.462   9.283  0.0654 -0.2593  0.0241
   20loPI   C4A  314  17.150   6.639   8.860  0.0439  0.1209 -0.0323
   20loPI   C5A  315  17.103   6.589   8.392  0.0606  0.4141 -0.4436
   20loPI   C6A  316  17.074   6.436   7.914  0.1338 -0.3914 -0.0407
   20loPI   C1B  317  17.502   6.129   9.980 -0.3768 -0.0570  0.0373
   20loPI   C2B  318  17.496   6.065   9.542 -0.2001  0.3578 -0.2480
   20loPI   C3B  319  17.438   6.152   9.126  0.0815  0.0727 -0.0516
   20loPI   C4B  320  17.427   6.208   8.670  0.2354  0.0191  0.2987
   21loPI    C1  321  17.365  15.231  10.850 -0.1248 -0.0688  0.1494
   21loPI    C2  322  17.715  15.110  11.001  0.0990  0.3795  0.0087
   21loPI    C3  323  17.489  15.371  11.204 -0.1108  0.1648  0.0545
   21loPI   PO4  324  17.316  15.076  10.622 -0.4033  0.0413 -0.0553
   21loPI   GL1  325  17.667  14.888  10.411 -0.2240 -0.2225 -0.1904
   21loPI   GL2  326  17.413  14.672  10.327  0.0932 -0.0574  0.1564
   21loPI   C1A  327  17.834  14.942   9.932  0.0856 -0.0922  0.3660
   21loPI   C2A  328  17.808  14.960   9.467  0.1955  0.0904  0.0591
   21loPI   C3A  329  17.903  14.973   9.005  0.1389 -0.3367 -0.2566
   21loPI   C4A  330  18.020  14.913   8.567 -0.0395  0.0095 -0.0088
   21loPI   C5A  331  17.997  15.135   8.093 -0.1480  0.2430  0.1449
   21loPI   C6A  332  18.164  15.399   7.838  0.1839 -0.1736  0.1194
   21loPI   C1B  333  17.317  14.750   9.942 -0.0158 -0.0871  0.1151
   21loPI   C2B  334  17.346  14.760   9.556 -0.0696  0.2069  0.1841
   21loPI   C3B  335  17.416  14.750   9.120  0.0992 -0.0108 -0.2733
   21loPI   C4B  336  17.476  14.832   8.682 -0.3104 -0.1812  0.0025
   22loPI    C1  337   3.029   5.204  10.677  0.1292  0.1558 -0.1422
   22loPI    C2  338   2.651   5.233  10.804  0.1193 -0.2926 -0.0517
   22loPI    C3  339   2.948   5.188  11.069  0.2189 -0.1208 -0.1323
   22loPI   PO4  340   2.899   5.118  10.348  0.1583  0.2533 -0.0412
   22loPI   GL1  341   3.065   5.211   9.994  0.0423  0.0561 -0.1626
   22loPI   GL2  342   3.274   5.395  10.188 -0.0736  0.1494 -0.0921
   22loPI   C1A  343   2.862   5.445   9.766  0.3830 -0.0238 -0.0968
   22loPI   C2A  344   2.781   5.745   9.457  0.1810  0.0751  0.0126
   22loPI   C3A  345   2.460   5.770   9.135  0.0449  0.0492  0.2390
   22loPI   C4A  346   2.282   5.738   8.630 -0.2724 -0.0532 -0.2137
   22loPI   C5A  347   2.271   5.838   8.163 -0.2404 -0.0487 -0.1918
   22loPI   C6A  348   1.892   5.868   7.883 -0.0015 -0.2639 -0.0919
   22loPI   C1B  349   3.411   5.567   9.844  0.0138  0.1043 -0.2777
   22loPI   C2B  350   3.295   5.620   9.391  0.0436 -0.1036 -0.0491
   22loPI   C3B  351   3.052   5.723   9.005  0.1342  0.3758 -0.2330
   22loPI   C4B  352   2.782   5.915   8.765 -0.4522  0.4171 -0.0214
   23loPI    C1  353  11.024   4.578  10.412 -0.0499  0.0262 -0.0006
   23loPI    C2  354  10.772   4.474  10.704 -0.1218 -0.3102 -0.1767
   23loPI    C3  355  10.932   4.841  10.698 -0.2734 -0.2346  0.1714
   23loPI   PO4  356  10.917   4.446  10.192  0.0148 -0.0201  0.0942
   23loPI   GL1  357  10.945   4.296   9.817 -0.1659  0.2453 -0.1812
   23loPI   GL2  358  11.237   4.325   9.643 -0.1171  0.0953 -0.2064
   23loPI   C1A  359  10.804   4.152   9.404 -0.1086  0.1289 -0.0118
   23loPI   C2A  360  10.917   4.067   9.000 -0.0653  0.1391 -0.1912
   23loPI   C3A  361  11.160   4.005   8.605  0.1855  0.2465  0.2429
   23loPI   C4A  362  11.214   4.011   8.155 -0.2727  0.1178 -0.1603
   23loPI   C5A  363  11.162   4.215   7.676  0.2011 -0.2639 -0.0295
   23loPI   C6A  364  10.994   4.182   7.359  0.0993 -0.1275  0.2133
   23loPI   C1B  365  11.224   4.352   9.206 -0.0542 -0.0950  0.1753
   23loPI   C2B  366  11.227   4.452   8.859  0.0164  0.1375 -0.2606
   23loPI   C3B  367  11.291   4.521   8.409  0.1007 -0.0379 -0.1042
   23loPI   C4B  368  11.129   4.628   7.966  0.0406 -0.1377  0.0953
   24loPI    C1  369   0.988   6.855  11.189 -0.3681 -0.3241  0.1058
   24loPI    C2  370   0.930   6.767  11.575  0.0994 -0.2958  0.1873
   24loPI    C3  371   1.240   6.995  11.465 -0.0007 -0.3443 -0.2115
   24loPI   PO4  372   0.804   6.649  11.098  0.2386  0.2247  0.1029
   24loPI   GL1  373   0.647   6.655  10.694  0.0797 -0.1665 -0.0414
   24loPI   GL2  374   0.537   6.320  10.610  0.0533  0.1497 -0.1266
   24loPI   C1A  375   0.359   6.729  10.271 -0.0447 -0.0119  0.1004
   24loPI   C2A  376   0.246   6.874  10.000 -0.1250 -0.1967  0.2452
   24loPI   C3A  377   0.262   6.951   9.647  0.1882  0.1905  0.1376
   24loPI   C4A  378   0.284   6.961   9.233  0.1953 -0.5833  0.2903
   24loPI   C5A  379   0.394   7.091   8.851 -0.0589  0.0140  0.2174
   24loPI   C6A  380   0.530   7.434   8.575  0.0950  0.0289  0.4141
   24loPI   C1B  381   0.664   6.277  10.213  0.2120 -0.1320  0.3671
   24loPI   C2B  382   0.580   6.082   9.814  0.1896  0.1553 -0.0308
   24loPI   C3B  383   0.647   6.145   9.297 -0.1058 -0.0283  0.0297
   24loPI   C4B  384   0.595   6.218   8.803 -0.0961  0.0244  0.0045
   25loPI    C1  385   6.109   4.375  10.451 -0.0035  0.2971 -0.2646
   25loPI    C2  386   5.751   4.198  10.446  0.0678  0.1396  0.0087
   25loPI    C3  387   5.875   4.389  10.775  0.1997  0.2679 -0.1147
   25loPI   PO4  388   6.135   4.450  10.246 -0.2783  0.0862  0.2766
   25loPI   GL1  389   6.354   4.585   9.919 -0.3320  0.0116 -0.0055
   25loPI   GL2  390   6.626   4.418   9.992  0.0281  0.3577  0.0771
   25loPI   C1A  391   6.304   4.635   9.415  0.1972 -0.1200 -0.3731
   25loPI   C2A  392   6.478   4.379   8.960  0.0873 -0.2118  0.2405
   25loPI   C3A  393   6.172   4.209   8.649  0.1372 -0.0198 -0.2564
   25loPI   C4A  394   6.144   4.175   8.180  0.1327  0.0259  0.1760
   25loPI   C5A  395   6.191   4.348   7.929  0.1018 -0.1529 -0.0526
   25loPI   C6A  396   6.261   4.395   7.405  0.0150  0.2806 -0.0164
   25loPI   C1B  397   6.580   4.306   9.544 -0.2172 -0.3100 -0.2021
   25loPI   C2B  398   6.208   4.100   9.245  0.0922  0.0932 -0.0502
   25loPI   C3B  399   6.171   3.792   8.946  0.0018 -0.3254 -0.1132
   25loPI   C4B  400   5.947   3.432   8.908 -0.3838  0.1553  0.0257
   26loPI    C1  401   9.405   5.348  10.511 -0.1497 -0.1706  0.0823
   26loPI    C2  402   9.214   5.266  10.852  0.0644 -0.4017  0.1500
   26loPI    C3  403   9.584   5.418  10.862 -0.0801 -0.0287  0.0194
   26loPI   PO4  404   9.145   5.446  10.403 -0.1471  0.0240  0.0114
   26loPI   GL1  405   9.291   5.365   9.926  0.0505  0.1265 -0.0109
   26loPI   GL2  406   9.572   5.363   9.805 -0.1923  0.0660  0.4649
   26loPI   C1A  407   9.112   5.624   9.567 -0.1432  0.0243  0.0936
   26loPI   C2A  408   8.801   5.659   9.163  0.0054  0.1602  0.1831
   26loPI   C3A  409   8.886   5.540   8.728 -0.4157 -0.0584  0.1678
   26loPI   C4A  410   8.744   5.217   8.402 -0.1308  0.0015  0.1342
   26loPI   C5A  411   8.717   4.915   8.057  0.0460 -0.2977  0.0329
   26loPI   C6A  412   8.823   4.655   7.708  0.0546  0.0133 -0.0315
   26loPI   C1B  413   9.431   5.254   9.383  0.1920 -0.0165 -0.1655
   26loPI   C2B  414   9.375   5.259   8.975  0.4320 -0.2735  0.1088
   26loPI   C3B  415   9.185   5.076   8.623  0.1443  0.2289  0.0104
   26loPI   C4B  416   9.250   5.163   8.156 -0.2206 -0.2071 -0.0451
   27loPI    C1  417   6.294   7.016  10.497  0.1196 -0.0959  0.1582
   27loPI    C2  418   6.056   6.871  10.784 -0.0568  0.1730  0.1521
   27loPI    C3  419   5.897   7.020  10.448  0.1469 -0.1156 -0.0783
   27loPI   PO4  420   6.475   6.800  10.382 -0.4168 -0.0089 -0.0049
   27loPI   GL1  421   6.564   6.639   9.964 -0.1097  0.2134  0.2143
   27loPI   GL2  422   6.325   6.456   9.920 -0.1289 -0.0853  0.0480
   27loPI   C1A  423   6.611   6.540   9.495 -0.4425 -0.1631 -0.0418
   27loPI   C2A  424   6.601   6.578   9.073  0.2655  0.0612  0.3077
   27loPI   C3A  425   6.718   6.571   8.744  0.0951  0.1527 -0.0599
   27loPI   C4A  426   6.649   6.631   8.365  0.1148 -0.0024 -0.3645
   27loPI   C5A  427   6.691   6.876   7.932 -0.3890  0.0375  0.1160
   27loPI   C6A  428   6.501   7.225   7.781 -0.0697  0.3356  0.1703
   27loPI   C1B  429   6.076   6.587   9.548 -0.2361 -0.0907  0.3903
   27loPI   C2B  430   6.107   6.622   9.126 -0.0598  0.0602  0.0372
   27loPI   C3B  431   6.095   6.719   8.604 -0.1420 -0.0607 -0.1721
   27loPI   C4B  432   6.169   7.064   8.223  0.0682  0.3539 -0.0839
   28loPI    C1  433  16.491  12.425  11.301  0.0354  0.1224 -0.1330
   28loPI    C2  434  16.848  12.318  11.446  0.0323 -0.0742 -0.2671
   28loPI    C3  435  16.514  12.216  11.641  0.0494  0.1446 -0.1203
   28loPI   PO4  436  16.629  12.388  11.011  0.2838  0.1963 -0.2003
   28loPI   GL1  437  16.694  12.323  10.565 -0.2440 -0.2049  0.0458
   28loPI   GL2  438  16.315  12.462  10.587 -0.0653 -0.0449 -0.1416
   28loPI   C1A  439  16.854  12.241  10.074  0.0443 -0.1617  0.1489
   28loPI   C2A  440  16.980  12.277   9.644  0.2244  0.2484  0.1937
   28loPI   C3A  441  17.032  12.265   9.263  0.0275 -0.0165  0.0628
   28loPI   C4A  442  16.930  12.236   8.835  0.0810  0.3830  0.1241
   28loPI   C5A  443  16.635  12.524   8.536 -0.0496  0.3108 -0.2851
   28loPI   C6A  444  16.345  12.720   8.229  0.0739 -0.1447  0.0865
   28loPI   C1B  445  16.515  12.618  10.178  0.3616 -0.5422 -0.3784
   28loPI   C2B  446  16.545  12.642   9.809  0.3803 -0.0874 -0.2243
   28loPI   C3B  447  16.461  12.662   9.452 -0.2455  0.1423  0.0694
   28loPI   C4B  448  16.553  12.688   9.079  0.0768  0.0492 -0.3250
   29loPI    C1  449  11.851   8.799  10.183  0.0311  0.1869  0.1556
   29loPI    C2  450  11.711   9.157  10.293 -0.0209  0.1875  0.0881
   29loPI    C3  451  11.755   8.867  10.566 -0.3132  0.1343  0.0812
   29loPI   PO4  452  11.714   8.748   9.950  0.2642  0.0866  0.4211
   29loPI   GL1  453  11.729   8.437   9.728  0.0537 -0.1392  0.1901
   29loPI   GL2  454  11.978   8.748   9.493  0.1432 -0.0767 -0.0697
   29loPI   C1A  455  11.737   8.328   9.255 -0.2991  0.1031 -0.3733
   29loPI   C2A  456  11.801   8.323   8.755  0.0903  0.1184  0.5222
   29loPI   C3A  457  11.694   8.403   8.369  0.1272  0.0087  0.0593
   29loPI   C4A  458  11.653   8.508   7.943  0.2614  0.2050  0.1591
   29loPI   C5A  459  11.360   8.721   7.704 -0.2898 -0.3542  0.2777
   29loPI   C6A  460  11.616   8.932   7.361 -0.0329  0.0965  0.2132
   29loPI   C1B  461  11.901   8.835   8.992  0.4393 -0.1138  0.0431
   29loPI   C2B  462  11.716   8.892   8.560  0.1436  0.2204 -0.3631
   29loPI   C3B  463  11.466   8.968   8.191  0.1049 -0.0760 -0.0579
   29loPI   C4B  464  11.573   9.154   7.852 -0.1593  0.1599 -0.2473
   30loPI    C1  465  15.321   8.533  11.172 -0.0885  0.1578 -0.2250
   30loPI    C2  466  15.135   8.786  11.419 -0.0718  0.1476 -0.2022
   30loPI    C3  467  15.158   8.397  11.511 -0.2488  0.1078 -0.3206
   30loPI   PO4  468  15.140   8.548  10.951  0.0361  0.3158  0.3832
   30loPI   GL1  469  14.991   8.696  10.597  0.0637  0.1883 -0.5140
   30loPI   GL2  470  14.721   8.534  10.398 -0.0390  0.1981  0.0698
   30loPI   C1A  471  15.280   8.783  10.299  0.0263  0.2012  0.1485
   30loPI   C2A  472  15.223   8.828   9.918  0.5473  0.0313  0.0686
   30loPI   C3A  473  15.238   8.874   9.526  0.1438  0.0441 -0.2452
   30loPI   C4A  474  15.369   8.848   9.173  0.3249 -0.0431  0.2114
   30loPI   C5A  475  15.439   8.820   8.742  0.0050 -0.0671  0.1314
   30loPI   C6A  476  15.516   8.842   8.339 -0.3207  0.0451  0.1303
   30loPI   C1B  477  14.959   8.382  10.061 -0.0000 -0.1007  0.2466
   30loPI   C2B  478  15.168   8.339   9.741 -0.0002 -0.1097  0.1367
   30loPI   C3B  479  15.170   8.392   9.321 -0.2097 -0.0613  0.0130
   30loPI   C4B  480  15.270   8.263   8.909  0.1095  0.1246  0.0149
   31loPI    C1  481  11.790   5.691  10.374 -0.0252  0.0479  0.0482
   31loPI    C2  482  11.665   5.355  10.551  0.0499 -0.0286 -0.0434
   31loPI    C3  483  11.432   5.680  10.551  0.0372 -0.0368  0.1704
   31loPI   PO4  484  11.897   5.615  10.115  0.0319 -0.0670 -0.0668
   31loPI   GL1  485  11.848   5.529   9.707  0.0764  0.0395  0.3381
   31loPI   GL2  486  11.641   5.743   9.582 -0.1808 -0.0473  0.0066
   31loPI   C1A  487  12.007   5.257   9.409  0.6405 -0.1094  0.0603
   31loPI   C2A  488  12.045   5.218   9.019  0.2856  0.3587  0.2398
   31loPI   C3A  489  12.017   5.265   8.632  0.2896 -0.0998  0.1961
   31loPI   C4A  490  12.013   5.208   8.333 -0.0378 -0.0473 -0.1968
   31loPI   C5A  491  11.835   5.261   8.007  0.1543  0.2926 -0.2607
   31loPI   C6A  492  11.627   5.206   7.697  0.0885 -0.1059 -0.1804
   31loPI   C1B  493  11.704   5.940   9.207  0.0263  0.1459  0.0109
   31loPI   C2B  494  11.488   6.143   8.834 -0.0719  0.0086  0.0129
   31loPI   C3B  495  11.451   6.410   8.447 -0.2576  0.1543 -0.1879
   31loPI   C4B  496  11.614   6.439   8.047  0.1059 -0.3098  0.2280
   32loPI    C1  497   6.828   0.544  10.451  0.1090 -0.0811  0.0597
   32loPI    C2  498   7.146   0.771  10.537 -0.0495  0.0650  0.2696
   32loPI    C3  499   7.163   0.375  10.591  0.2703  0.0031 -0.2154
   32loPI   PO4  500   6.699   0.637  10.290 -0.4008  0.4162 -0.1314
   32loPI   GL1  501   6.722   0.591   9.860  0.1614 -0.2711 -0.0519
   32loPI   GL2  502   6.844   0.197   9.625 -0.0390  0.0459  0.0084
   32loPI   C1A  503   6.378   0.594   9.533 -0.1448 -0.0804 -0.0060
   32loPI   C2A  504   6.074   0.482   9.255 -0.0130  0.2878 -0.0483
   32loPI   C3A  505   5.907   0.183   8.869  0.1282  0.1986  0.1321
   32loPI   C4A  506   5.747   0.007   8.446  0.2809 -0.0405  0.1514
   32loPI   C5A  507   5.524   0.131   7.986 -0.1732  0.0610  0.0239
   32loPI   C6A  508   5.271   0.190   7.657 -0.2094 -0.2887  0.0509
   32loPI   C1B  509   6.968   0.001   9.283  0.3044  0.0548  0.2204
   32loPI   C2B  510   6.938  -0.016   8.819  0.2850 -0.0397  0.0585
   32loPI   C3B  511   6.916  -0.167   8.438 -0.0387 -0.1073  0.0727
   32loPI   C4B  512   6.992  -0.169   8.038 -0.1209  0.0239 -0.2154
   33loPI    C1  513   2.792   6.358  10.752  0.0605  0.0394 -0.0495
   33loPI    C2  514   3.144   6.299  10.933  0.0334  0.1304  0.0339
   33loPI    C3  515   2.804   6.197  11.117  0.0158  0.0386 -0.0484
   33loPI   PO4  516   2.891   6.254  10.447 -0.2860 -0.4331  0.1284
   33loPI   GL1  517   2.669   6.161  10.050 -0.3345 -0.0236 -0.2573
   33loPI   GL2  518   2.419   6.413  10.112  0.0436 -0.2791  0.1416
   33loPI   C1A  519   2.455   6.081   9.623 -0.0706  0.1128  0.0234
   33loPI   C2A  520   2.449   6.300   9.226 -0.3263  0.0225 -0.1686
   33loPI   C3A  521   2.421   6.251   8.776  0.0601 -0.2261 -0.4528
   33loPI   C4A  522   2.626   6.158   8.368  0.0010  0.2911  0.3335
   33loPI   C5A  523   2.685   6.099   7.971 -0.0760 -0.2855  0.2652
   33loPI   C6A  524   2.821   5.968   7.556 -0.0905  0.1374  0.1472
   33loPI   C1B  525   2.115   6.589   9.697  0.2736 -0.1936 -0.1355
   33loPI   C2B  526   2.100   6.639   9.246 -0.5087  0.1184  0.0295
   33loPI   C3B  527   2.052   6.607   8.831  0.0375 -0.0348 -0.0399
   33loPI   C4B  528   2.100   6.652   8.439 -0.0709 -0.0206 -0.3519
   34loPI    C1  529  16.263   2.113  10.937 -0.0386  0.0152  0.0993
   34loPI    C2  530  16.009   1.832  11.067 -0.0254  0.0488  0.1984
   34loPI    C3  531  16.280   1.988  11.317  0.0092  0.1041  0.1267
   34loPI   PO4  532  16.280   2.115  10.727  0.0849 -0.0341 -0.0142
   34loPI   GL1  533  16.342   2.151  10.320  0.0720 -0.0211 -0.2020
   34loPI   GL2  534  16.511   2.031  10.095 -0.5546  0.0942 -0.1291
   34loPI   C1A  535  16.187   2.368   9.959 -0.2987  0.0091 -0.3663
   34loPI   C2A  536  16.222   2.456   9.506  0.2818  0.1653  0.0066
   34loPI   C3A  537  16.169   2.483   9.094  0.2850 -0.0719  0.1662
   34loPI   C4A  538  16.196   2.571   8.653 -0.1049  0.0751  0.3809
   34loPI   C5A  539  16.306   2.431   8.170 -0.2041 -0.0585  0.2712
   34loPI   C6A  540  16.546   2.400   7.796  0.0437  0.1207  0.0305
   34loPI   C1B  541  16.549   2.059   9.675 -0.1161 -0.0627  0.0208
   34loPI   C2B  542  16.531   2.151   9.282 -0.0527 -0.2264 -0.1923
   34loPI   C3B  543  16.613   2.287   8.830  0.1925  0.2535 -0.3967
   34loPI   C4B  544  16.646   2.141   8.470 -0.1036 -0.2826 -0.1696
   35loPI    C1  545   3.239  10.190  10.920 -0.0847 -0.1261  0.1290
   35loPI    C2  546   2.978  10.249  11.218 -0.1740 -0.0724  0.0405
   35loPI    C3  547   3.322  10.454  11.209 -0.1698 -0.0762  0.1083
   35loPI   PO4  548   3.026  10.043  10.700 -0.2023  0.2920 -0.1383
   35loPI   GL1  549   2.978  10.277  10.319  0.1609  0.1661  0.0000
   35loPI   GL2  550   3.083  10.520  10.430 -0.1754  0.3924 -0.0988
   35loPI   C1A  551   2.881  10.255   9.807 -0.0705  0.0947 -0.1971
   35loPI   C2A  552   2.844  10.236   9.404  0.1428 -0.2234 -0.1169
   35loPI   C3A  553   2.913  10.222   9.010 -0.3002 -0.0735  0.2364
   35loPI   C4A  554   2.797  10.218   8.613 -0.0522  0.0751 -0.0241
   35loPI   C5A  555   2.924  10.473   8.247 -0.4095 -0.1635  0.2035
   35loPI   C6A  556   2.756  10.898   8.186  0.0085  0.0835  0.0826
   35loPI   C1B  557   2.962  10.722  10.029 -0.0648 -0.3206  0.0726
   35loPI   C2B  558   3.058  10.678   9.563 -0.3174  0.0731  0.0450
   35loPI   C3B  559   3.091  10.676   9.130  0.1723 -0.0436 -0.2361
   35loPI   C4B  560   2.957  10.697   8.736  0.1491 -0.1306  0.0919
   36loPI    C1  561  15.819  13.920  10.784  0.2385 -0.2366  0.0717
   36loPI    C2  562  15.462  13.926  10.965  0.0858 -0.2882 -0.2203
   36loPI    C3  563  15.786  14.067  11.154 -0.1454  0.0563 -0.0718
   36loPI   PO4  564  15.711  13.923  10.561 -0.0378 -0.2596  0.0054
   36loPI   GL1  565  15.623  13.830  10.197 -0.1623  0.0631 -0.1039
   36loPI   GL2  566  15.689  13.499  10.184 -0.0041 -0.1695 -0.2378
   36loPI   C1A  567  15.732  13.803   9.666  0.1397 -0.0744 -0.2926
   36loPI   C2A  568  15.877  13.743   9.170  0.0104  0.0685  0.2301
   36loPI   C3A  569  15.890  13.708   8.676 -0.0303  0.1530 -0.0457
   36loPI   C4A  570  15.674  13.828   8.354  0.0720 -0.0782  0.1385
   36loPI   C5A  571  15.390  13.646   8.072  0.2341 -0.1844 -0.1042
   36loPI   C6A  572  15.164  13.459   7.797 -0.0402 -0.0470  0.3998
   36loPI   C1B  573  15.638  13.306   9.882 -0.0877  0.1050 -0.0986
   36loPI   C2B  574  15.737  13.352   9.402  0.1562 -0.3326 -0.0184
   36loPI   C3B  575  15.757  13.271   8.947 -0.0114  0.3292  0.1435
   36loPI   C4B  576  15.658  13.355   8.476 -0.0833  0.0266  0.0402
   37loPI    C1  577   3.751   4.324  10.255 -0.1448 -0.2408 -0.0047
   37loPI    C2  578   3.868   4.638  10.472 -0.3189 -0.1184 -0.0851
   37loPI    C3  579   4.106   4.318  10.439 -0.0745  0.0644 -0.1253
   37loPI   PO4  580   3.628   4.456  10.033  0.1063 -0.1964 -0.0375
   37loPI   GL1  581   3.728   4.319   9.656  0.0449  0.0115 -0.0459
   37loPI   GL2  582   3.803   4.159   9.356  0.2225 -0.0209 -0.0811
   37loPI   C1A  583   3.310   4.207   9.490 -0.0346  0.0206  0.0376
   37loPI   C2A  584   3.088   4.498   9.154 -0.5218 -0.5179 -0.3810
   37loPI   C3A  585   3.153   4.604   8.708 -0.0677  0.3261 -0.0318
   37loPI   C4A  586   3.219   4.600   8.272  0.1339 -0.0490  0.0692
   37loPI   C5A  587   3.396   4.573   7.885  0.2948  0.1234  0.1358
   37loPI   C6A  588   3.437   4.623   7.489 -0.1946 -0.1186  0.2097
   37loPI   C1B  589   3.456   4.150   9.044  0.0399 -0.0693  0.1400
   37loPI   C2B  590   3.101   4.092   8.836  0.2184 -0.0847 -0.2987
   37loPI   C3B  591   2.906   4.034   8.430 -0.2068 -0.0220  0.0781
   37loPI   C4B  592   2.909   3.793   8.018 -0.0482 -0.1483  0.1533
   38loPI    C1  593   2.868  10.645  10.972  0.1067  0.1487 -0.2069
   38loPI    C2  594   2.641  10.654  11.301  0.0321 -0.0066 -0.2530
   38loPI    C3  595   3.010  10.808  11.308  0.0734 -0.1103 -0.0643
   38loPI   PO4  596   2.734  10.778  10.782 -0.3562  0.2209 -0.3449
   38loPI   GL1  597   2.552  10.777  10.395  0.0722  0.1422 -0.1055
   38loPI   GL2  598   2.573  10.448  10.154 -0.0589  0.2583  0.1624
   38loPI   C1A  599   2.548  11.031  10.095 -0.1625 -0.0588 -0.0761
   38loPI   C2A  600   2.580  11.013   9.633 -0.1338 -0.1735 -0.1699
   38loPI   C3A  601   2.598  11.122   9.220  0.0380 -0.5244 -0.0588
   38loPI   C4A  602   2.555  11.078   8.787 -0.2562  0.1430 -0.0669
   38loPI   C5A  603   2.800  11.283   8.492 -0.0262 -0.1930 -0.1044
   38loPI   C6A  604   3.157  11.112   8.372 -0.1432  0.0415  0.1677
   38loPI   C1B  605   2.429  10.542   9.788  0.0261 -0.1076  0.1838
   38loPI   C2B  606   2.466  10.624   9.339 -0.1258 -0.4974  0.1847
   38loPI   C3B  607   2.570  10.603   8.917  0.0935  0.0169  0.3206
   38loPI   C4B  608   2.501  10.543   8.480  0.1797 -0.1730 -0.0919
   39loPI    C1  609   9.390   4.525  10.380 -0.2190 -0.0946  0.0120
   39loPI    C2  610   9.497   4.837  10.606 -0.0451  0.0285 -0.2355
   39loPI    C3  611   9.548   4.464  10.742  0.1081  0.0996 -0.0942
   39loPI   PO4  612   9.533   4.546  10.122 -0.2813 -0.0071  0.3479
   39loPI   GL1  613   9.450   4.850   9.722  0.1094 -0.2739  0.2377
   39loPI   GL2  614   9.740   4.885   9.618 -0.1044  0.2492 -0.2699
   39loPI   C1A  615   9.314   4.770   9.376  0.1424  0.3432  0.3209
   39loPI   C2A  616   9.323   4.656   9.034  0.1407 -0.0312 -0.0098
   39loPI   C3A  617   9.399   4.601   8.546  0.2269 -0.0811  0.1221
   39loPI   C4A  618   9.618   4.748   8.121 -0.0291  0.0957 -0.1301
   39loPI   C5A  619   9.834   5.031   8.028  0.0678  0.1076  0.3335
   39loPI   C6A  620  10.228   5.032   7.857  0.0167 -0.2288  0.0872
   39loPI   C1B  621   9.785   4.885   9.275 -0.0718  0.1012  0.1851
   39loPI   C2B  622   9.717   4.976   8.901  0.0266  0.3737 -0.2648
   39loPI   C3B  623   9.633   5.213   8.586  0.0287 -0.2474 -0.1261
   39loPI   C4B  624   9.685   5.493   8.208 -0.2539 -0.0242  0.0747
   40loPI    C1  625   0.991  17.597  10.801 -0.1054  0.1383  0.1574
   40loPI    C2  626   0.804  17.303  10.997  0.2880 -0.1471  0.1180
   40loPI    C3  627   0.913  17.636  11.191 -0.1651 -0.0173  0.1615
   40loPI   PO4  628   0.711  17.685  10.664  0.0998  0.0075 -0.1346
   40loPI   GL1  629   0.643  17.678  10.268 -0.2590  0.1640  0.0854
   40loPI   GL2  630   0.457  17.256  10.100  0.2345 -0.0883 -0.1481
   40loPI   C1A  631   0.637  17.790   9.829 -0.0849  0.1558  0.4715
   40loPI   C2A  632   0.681  17.770   9.472  0.0090 -0.0539 -0.1566
   40loPI   C3A  633   0.562  17.650   9.014  0.2005  0.2735 -0.2975
   40loPI   C4A  634   0.579  17.707   8.613 -0.0349  0.1223  0.2682
   40loPI   C5A  635   0.807  17.660   8.172  0.3763  0.0913 -0.2127
   40loPI   C6A  636   0.729  17.310   7.948  0.0951 -0.1441 -0.0731
   40loPI   C1B  637   0.627  17.241   9.669  0.3474 -0.0343  0.1267
   40loPI   C2B  638   0.582  17.146   9.230  0.3740 -0.0466  0.1536
   40loPI   C3B  639   0.400  17.197   8.810 -0.3432  0.3932  0.1042
   40loPI   C4B  640   0.527  17.065   8.398 -0.2547 -0.3049 -0.1345
   41loPI    C1  641   4.625   4.771   9.862  0.1421  0.2549 -0.2802
   41loPI    C2  642   4.887   4.813  10.161 -0.0211 -0.0914 -0.0820
   41loPI    C3  643   4.968   4.566   9.858 -0.0488 -0.0779 -0.1004
   41loPI   PO4  644   4.586   5.007   9.789  0.2523  0.1683 -0.3970
   41loPI   GL1  645   4.446   5.224   9.333 -0.0586 -0.4145  0.2427
   41loPI   GL2  646   4.719   5.087   9.293 -0.2210 -0.1887  0.1001
   41loPI   C1A  647   4.138   5.307   9.184 -0.0061  0.0409 -0.1475
   41loPI   C2A  648   4.040   5.305   8.823  0.1254 -0.3792 -0.2008
   41loPI   C3A  649   3.922   5.339   8.487  0.0086 -0.2084 -0.5821
   41loPI   C4A  650   3.901   5.427   8.065  0.2602  0.2111 -0.1089
   41loPI   C5A  651   3.864   5.422   7.640 -0.0876  0.0111  0.1713
   41loPI   C6A  652   3.970   5.108   7.379  0.2143 -0.2154  0.0139
   41loPI   C1B  653   4.517   5.061   8.913 -0.1461 -0.2498 -0.0508
   41loPI   C2B  654   4.511   5.048   8.607 -0.0532 -0.2409  0.1243
   41loPI   C3B  655   4.609   4.917   8.213  0.0533 -0.0953 -0.3763
   41loPI   C4B  656   4.750   5.130   7.772  0.0911  0.4171  0.0944
   42loPI    C1  657   4.118   2.976  10.465  0.0132  0.4245  0.2590
   42loPI    C2  658   3.802   2.731  10.470  0.0955  0.2996 -0.1856
   42loPI    C3  659   3.864   2.984  10.774 -0.2214  0.0649  0.0825
   42loPI   PO4  660   4.111   2.993  10.166 -0.1184 -0.1350 -0.0360
   42loPI   GL1  661   4.018   2.785   9.775  0.0225  0.0700  0.1225
   42loPI   GL2  662   4.328   2.633   9.831  0.0825  0.1556  0.2665
   42loPI   C1A  663   3.819   2.740   9.445  0.1507  0.1523 -0.0303
   42loPI   C2A  664   3.768   2.769   9.158 -0.0320  0.0137  0.0301
   42loPI   C3A  665   3.813   2.770   8.742 -0.0737  0.0172  0.0602
   42loPI   C4A  666   3.958   2.793   8.325 -0.0608  0.2457 -0.1872
   42loPI   C5A  667   3.944   2.612   7.878  0.1094 -0.0155 -0.0065
   42loPI   C6A  668   3.838   2.812   7.519  0.0216  0.2707 -0.0061
   42loPI   C1B  669   4.299   2.637   9.420 -0.2015  0.2491 -0.0672
   42loPI   C2B  670   4.264   2.546   8.954  0.1682  0.1022 -0.2281
   42loPI   C3B  671   4.256   2.409   8.621 -0.0697  0.0271  0.0450
   42loPI   C4B  672   4.184   2.285   8.227 -0.2595  0.3282 -0.0089
   43loPI    C1  673  18.146   1.473  10.844  0.1021  0.0781 -0.0831
   43loPI    C2  674  18.162   1.127  11.045 -0.0658  0.0069 -0.1903
   43loPI    C3  675  18.499   1.327  10.964  0.0277 -0.1078 -0.0874
   43loPI   PO4  676  17.946   1.420  10.540 -0.1863  0.3761 -0.2833
   43loPI   GL1  677  17.723   1.558  10.177  0.3025  0.1361  0.0836
   43loPI   GL2  678  17.442   1.409   9.929 -0.2266 -0.3370 -0.0080
   43loPI   C1A  679  17.910   1.524   9.682  0.1813  0.2046  0.2284
   43loPI   C2A  680  17.951   1.553   9.203  0.1503  0.0273  0.1503
   43loPI   C3A  681  17.859   1.617   8.755 -0.2282 -0.2739  0.2525
   43loPI   C4A  682  17.746   1.628   8.325  0.2576  0.0394  0.0577
   43loPI   C5A  683  17.660   1.308   8.007  0.1058 -0.4243 -0.2739
   43loPI   C6A  684  17.231   1.061   7.987  0.1600 -0.0884 -0.0646
   43loPI   C1B  685  17.315   1.479   9.572  0.1010  0.1209  0.2028
   43loPI   C2B  686  17.390   1.507   9.181  0.1217 -0.1729 -0.2442
   43loPI   C3B  687  17.347   1.405   8.749  0.0908 -0.0944 -0.1823
   43loPI   C4B  688  17.264   1.414   8.326 -0.3335 -0.1907  0.2819
   44loPI    C1  689   1.232   8.460  11.081  0.0022  0.0816  0.1434
   44loPI    C2  690   1.565   8.421  11.299  0.1040  0.0662 -0.0134
   44loPI    C3  691   1.305   8.118  11.275  0.1757  0.0070 -0.0498
   44loPI   PO4  692   1.137   8.762  11.147  0.0453 -0.1081  0.3424
   44loPI   GL1  693   1.108   9.037  10.778 -0.0265  0.0114 -0.2017
   44loPI   GL2  694   1.283   8.734  10.614 -0.0669 -0.1255 -0.3740
   44loPI   C1A  695   1.181   9.177  10.373  0.0491 -0.2136 -0.1833
   44loPI   C2A  696   1.308   9.208   9.903 -0.2642  0.1570  0.0460
   44loPI   C3A  697   1.270   9.199   9.478  0.3441  0.3780  0.2377
   44loPI   C4A  698   1.292   9.356   9.047  0.0543 -0.0376 -0.0132
   44loPI   C5A  699   1.283   9.694   8.698 -0.1792 -0.0626  0.1438
   44loPI   C6A  700   1.204  10.016   8.533  0.2986 -0.2354  0.0275
   44loPI   C1B  701   1.140   8.716  10.237  0.3232  0.1307 -0.1872
   44loPI   C2B  702   1.144   8.646   9.821 -0.1992 -0.2898  0.0462
   44loPI   C3B  703   1.260   8.573   9.358  0.3488  0.1673 -0.2756
   44loPI   C4B  704   1.182   8.713   8.950  0.1207  0.1095  0.0408
   45loPI    C1  705   5.458   6.312  10.097 -0.2084  0.0322 -0.0159
   45loPI    C2  706   5.832   6.180  10.038 -0.2494 -0.0446 -0.1071
   45loPI    C3  707   5.615   6.039  10.343 -0.2481 -0.0937 -0.1288
   45loPI   PO4  708   5.306   6.239   9.830  0.0662  0.1414 -0.2652
   45loPI   GL1  709   4.906   6.277   9.619 -0.1604  0.2596 -0.1311
   45loPI   GL2  710   5.188   6.596   9.472  0.2050  0.1131  0.0129
   45loPI   C1A  711   4.872   6.019   9.169  0.2677 -0.2871  0.1348
   45loPI   C2A  712   4.885   6.038   8.741 -0.1951 -0.1919 -0.2840
   45loPI   C3A  713   4.633   6.029   8.402 -0.3611  0.0274  0.2847
   45loPI   C4A  714   4.613   6.283   8.046  0.2925  0.1625  0.2610
   45loPI   C5A  715   4.486   6.429   7.659 -0.1125 -0.0562  0.0866
   45loPI   C6A  716   4.691   6.617   7.276 -0.0473  0.0697 -0.1898
   45loPI   C1B  717   4.782   6.661   9.227  0.2147  0.1004 -0.0445
   45loPI   C2B  718   4.706   6.713   8.818  0.1288  0.3601  0.0840
   45loPI   C3B  719   4.600   6.638   8.403 -0.4652 -0.1933  0.2098
   45loPI   C4B  720   4.776   6.779   7.953  0.1313  0.2569  0.1578
   46loPI    C1  721   8.851  14.291  11.040  0.0358  0.1934 -0.1374
   46loPI    C2  722   8.583  14.041  11.199  0.0331  0.0962 -0.2924
   46loPI    C3  723   8.805  14.273  11.437  0.1076 -0.1264 -0.1410
   46loPI   PO4  724   9.004  14.201  10.853  0.1239  0.0246  0.2831
   46loPI   GL1  725   8.936  14.084  10.436 -0.0160 -0.1558  0.0335
   46loPI   GL2  726   9.222  14.073  10.200 -0.3745  0.2193  0.1806
   46loPI   C1A  727   8.848  13.993   9.942  0.2380  0.2572  0.0708
   46loPI   C2A  728   8.849  13.923   9.499  0.1205 -0.0723 -0.2238
   46loPI   C3A  729   8.764  13.895   9.073  0.0573  0.0035 -0.0902
   46loPI   C4A  730   8.819  14.072   8.683  0.1912  0.0902 -0.0194
   46loPI   C5A  731   8.723  13.941   8.286  0.4141  0.1410  0.2792
   46loPI   C6A  732   8.577  13.950   7.857  0.1774 -0.3503 -0.0554
   46loPI   C1B  733   9.314  14.130   9.773  0.2721  0.0051 -0.2452
   46loPI   C2B  734   9.309  14.076   9.377 -0.1382 -0.0226  0.1195
   46loPI   C3B  735   9.195  14.142   8.970  0.1603  0.0899  0.1756
   46loPI   C4B  736   9.269  14.156   8.470 -0.1378  0.0497 -0.0194
   47loPI    C1  737   9.950  11.337  10.253  0.0566  0.1115  0.0103
   47loPI    C2  738   9.986  11.096  10.570 -0.1750  0.1128  0.0394
   47loPI    C3  739   9.705  11.381  10.566 -0.0093  0.2773 -0.0631
   47loPI   PO4  740  10.151  11.402  10.219  0.0519  0.0155  0.1029
   47loPI   GL1  741  10.254  11.632   9.971 -0.0337 -0.0821 -0.1890
   47loPI   GL2  742   9.856  11.679   9.818  0.0793 -0.0463 -0.0447
   47loPI   C1A  743  10.314  11.853   9.649 -0.1316 -0.0976  0.1455
   47loPI   C2A  744  10.309  11.952   9.154  0.1847  0.0264  0.0538
   47loPI   C3A  745  10.197  11.936   8.834  0.1811  0.0756  0.2657
   47loPI   C4A  746  10.309  11.876   8.481  0.2689 -0.0531 -0.0471
   47loPI   C5A  747  10.491  11.969   8.091 -0.0196 -0.0026  0.0872
   47loPI   C6A  748  10.868  12.122   8.048  0.1516 -0.2132 -0.3039
   47loPI   C1B  749   9.774  11.785   9.334  0.0203  0.2709  0.0270
   47loPI   C2B  750   9.689  11.927   8.877 -0.0280 -0.0427 -0.2365
   47loPI   C3B  751   9.760  11.733   8.521  0.0337 -0.0934 -0.1187
   47loPI   C4B  752   9.982  11.638   8.183 -0.0361 -0.2852  0.2895
   48loPI    C1  753   7.392  11.243  10.862 -0.2108  0.0005  0.0244
   48loPI    C2  754   7.408  10.880  10.694 -0.1071 -0.0601  0.1631
   48loPI    C3  755   7.395  10.916  11.093  0.1698  0.0944  0.1605
   48loPI   PO4  756   7.247  11.342  10.668 -0.1813 -0.0982 -0.1313
   48loPI   GL1  757   7.184  11.183  10.318 -0.1143 -0.0519  0.0914
   48loPI   GL2  758   7.151  11.483  10.209  0.2026 -0.0687  0.2731
   48loPI   C1A  759   7.226  11.112   9.888 -0.0733  0.0657  0.1089
   48loPI   C2A  760   7.265  11.187   9.444  0.0831 -0.0393 -0.0519
   48loPI   C3A  761   7.296  11.209   8.964  0.3622 -0.3192 -0.3249
   48loPI   C4A  762   7.205  11.289   8.455 -0.0805 -0.0548 -0.0721
   48loPI   C5A  763   6.957  11.257   8.067 -0.0831  0.1297 -0.1550
   48loPI   C6A  764   6.658  11.154   7.876 -0.2567  0.2946  0.1693
   48loPI   C1B  765   6.802  11.419   9.966 -0.0193  0.2807  0.1040
   48loPI   C2B  766   6.846  11.448   9.548  0.1027  0.1792  0.0015
   48loPI   C3B  767   6.821  11.476   9.076  0.1535 -0.2129  0.1595
   48loPI   C4B  768   6.831  11.566   8.639  0.0332  0.2366  0.1288
   49loPI    C1  769   0.779  12.302  11.252 -0.0863  0.1760 -0.1634
   49loPI    C2  770   0.452  12.217  11.465  0.0337  0.0619 -0.0224
   49loPI    C3  771   0.565  12.598  11.416 -0.1128  0.1012 -0.0624
   49loPI   PO4  772   0.792  12.203  10.854 -0.2136  0.1331  0.1354
   49loPI   GL1  773   0.943  12.000  10.553 -0.2108 -0.2833 -0.1145
   49loPI   GL2  774   1.341  12.010  10.715  0.0728 -0.4065  0.2634
   49loPI   C1A  775   0.856  11.955  10.149 -0.1950 -0.1954 -0.0972
   49loPI   C2A  776   0.877  12.049   9.752  0.0418  0.0263  0.1893
   49loPI   C3A  777   0.995  12.075   9.465  0.3328 -0.1010  0.2449
   49loPI   C4A  778   0.931  12.039   9.116  0.2734  0.0050  0.1821
   49loPI   C5A  779   0.866  11.967   8.770 -0.2112 -0.0910 -0.1323
   49loPI   C6A  780   0.894  12.156   8.445  0.2937  0.1145  0.1272
   49loPI   C1B  781   1.341  12.160  10.289  0.0250  0.1864 -0.1266
   49loPI   C2B  782   1.383  12.082   9.807  0.0367 -0.1090  0.0586
   49loPI   C3B  783   1.429  12.215   9.336  0.0294  0.0238  0.1558
   49loPI   C4B  784   1.399  12.212   8.839 -0.0232  0.1559 -0.1251
   50loPI    C1  785  11.499   2.471  10.870 -0.1069  0.0435  0.0340
   50loPI    C2  786  11.879   2.432  10.989 -0.0052 -0.0395 -0.3063
   50loPI    C3  787  11.661   2.743  11.114 -0.0092 -0.2902  0.3493
   50loPI   PO4  788  11.425   2.509  10.653 -0.0471  0.0414  0.0077
   50loPI   GL1  789  11.510   2.382  10.198 -0.0882 -0.1480 -0.0389
   50loPI   GL2  790  11.176   2.390  10.188 -0.1113 -0.0707 -0.1884
   50loPI   C1A  791  11.673   2.235   9.780 -0.2850 -0.0147  0.1806
   50loPI   C2A  792  11.544   2.381   9.388 -0.1844  0.2735 -0.2773
   50loPI   C3A  793  11.646   2.261   9.003 -0.2254 -0.2208 -0.0937
   50loPI   C4A  794  11.641   2.346   8.589  0.3344 -0.2161 -0.0295
   50loPI   C5A  795  11.676   2.232   8.174 -0.1306  0.0484 -0.1634
   50loPI   C6A  796  11.783   2.292   7.783 -0.1009  0.1084 -0.0675
   50loPI   C1B  797  11.199   2.344   9.775 -0.0795 -0.0710 -0.2002
   50loPI   C2B  798  11.102   2.199   9.422  0.1793 -0.2154 -0.0734
   50loPI   C3B  799  11.178   2.201   9.110  0.1412 -0.1729 -0.1541
   50loPI   C4B  800  11.158   2.167   8.671  0.1942 -0.0530  0.0217
   51loPI    C1  801  17.208   7.015  11.118 -0.1667 -0.1381 -0.0964
   51loPI    C2  802  17.526   6.821  11.265 -0.0454  0.1152 -0.0181
   51loPI    C3  803  17.298   7.042  11.507 -0.2595 -0.0326 -0.0820
   51loPI   PO4  804  17.323   7.027  10.807 -0.3089  0.1390 -0.2516
   51loPI   GL1  805  17.521   7.275  10.582  0.0981  0.1123  0.0549
   51loPI   GL2  806  17.242   7.536  10.419 -0.0508  0.0186 -0.1132
   51loPI   C1A  807  17.736   7.593  10.283  0.0000  0.1094  0.3541
   51loPI   C2A  808  17.703   7.643   9.777 -0.1053 -0.0951  0.1229
   51loPI   C3A  809  17.817   7.698   9.402 -0.0236 -0.0315 -0.1087
   51loPI   C4A  810  17.801   7.840   8.925 -0.0167  0.3705 -0.0305
   51loPI   C5A  811  17.812   7.648   8.428  0.1697  0.1080  0.2711
   51loPI   C6A  812  17.963   7.611   8.076  0.1758  0.4284  0.1595
   51loPI   C1B  813  17.241   7.546   9.909 -0.0805 -0.0284  0.1017
   51loPI   C2B  814  17.257   7.641   9.530 -0.0191 -0.0826  0.0101
   51loPI   C3B  815  17.404   7.563   9.147  0.3080  0.1073 -0.0137
   51loPI   C4B  816  17.310   7.655   8.725 -0.0649  0.1121  0.1869
   52loPI    C1  817  16.931  17.116  10.596 -0.1043 -0.0718  0.0344
   52loPI    C2  818  16.833  17.426  10.829  0.0250  0.1041 -0.1425
   52loPI    C3  819  17.195  17.257  10.862 -0.0728 -0.0807  0.0076
   52loPI   PO4  820  16.822  17.196  10.376 -0.2591  0.1730 -0.0332
   52loPI   GL1  821  16.907  17.042  10.051  0.0113  0.0694 -0.0798
   52loPI   GL2  822  17.242  17.128  10.082  0.0426  0.0964  0.1025
   52loPI   C1A  823  16.893  17.012   9.671 -0.3094  0.1522  0.0973
   52loPI   C2A  824  16.819  16.991   9.252  0.0424 -0.0748 -0.2876
   52loPI   C3A  825  16.824  16.968   8.842 -0.0807  0.1684  0.0114
   52loPI   C4A  826  16.832  16.839   8.430  0.0322 -0.0193  0.0968
   52loPI   C5A  827  16.940  16.512   8.067  0.1142 -0.1780 -0.1873
   52loPI   C6A  828  16.918  16.250   7.750 -0.2598 -0.3728  0.2573
   52loPI   C1B  829  17.346  17.257   9.589  0.4610 -0.0011  0.0627
   52loPI   C2B  830  17.360  17.274   9.167  0.1343  0.1360  0.1784
   52loPI   C3B  831  17.416  17.189   8.739 -0.3239 -0.1681 -0.1686
   52loPI   C4B  832  17.436  17.215   8.249 -0.0451 -0.0511 -0.1598
   53loPI    C1  833   8.531  11.341  10.902 -0.0398  0.1020  0.2956
   53loPI    C2  834   8.912  11.278  11.010 -0.0858 -0.1027  0.3426
   53loPI    C3  835   8.727  11.617  11.116  0.2137  0.1903 -0.0420
   53loPI   PO4  836   8.542  11.246  10.546  0.2332  0.0470 -0.0095
   53loPI   GL1  837   8.748  11.288  10.092 -0.1803 -0.0508  0.1282
   53loPI   GL2  838   9.028  11.562  10.068 -0.2749  0.0754 -0.1120
   53loPI   C1A  839   8.748  11.543   9.637 -0.1796 -0.0116 -0.1299
   53loPI   C2A  840   8.693  11.665   9.158  0.0090  0.0508 -0.0409
   53loPI   C3A  841   8.676  11.664   8.764  0.2187  0.0278  0.3300
   53loPI   C4A  842   8.716  11.662   8.348  0.1026  0.1953 -0.1065
   53loPI   C5A  843   8.666  11.981   8.023  0.1954 -0.1373  0.0334
   53loPI   C6A  844   8.918  12.330   8.075  0.2421 -0.1051  0.1030
   53loPI   C1B  845   9.221  11.712   9.681 -0.5101  0.1000  0.2890
   53loPI   C2B  846   9.244  11.832   9.157 -0.1807 -0.1419 -0.0114
   53loPI   C3B  847   9.231  11.789   8.683  0.0080 -0.0962  0.1490
   53loPI   C4B  848   9.172  11.852   8.304 -0.3495 -0.2031  0.0937
   54loPI    C1  849  12.760   9.360  10.654 -0.0324 -0.0380 -0.0529
   54loPI    C2  850  12.525   9.243  10.956 -0.2861 -0.0256 -0.2422
   54loPI    C3  851  12.552   9.631  10.862 -0.1367 -0.0201 -0.1794
   54loPI   PO4  852  12.706   9.249  10.475 -0.3198 -0.1574 -0.1736
   54loPI   GL1  853  12.776   9.179  10.012 -0.2713  0.1866  0.0962
   54loPI   GL2  854  13.038   9.387  10.043  0.0056 -0.1264 -0.2771
   54loPI   C1A  855  12.825   9.190   9.572 -0.4475 -0.0790 -0.1023
   54loPI   C2A  856  12.826   9.192   9.165  0.2045  0.1582  0.0276
   54loPI   C3A  857  12.958   9.186   8.696  0.3504 -0.2909 -0.2549
   54loPI   C4A  858  12.693   9.282   8.337  0.0128  0.0723 -0.0947
   54loPI   C5A  859  12.727   9.514   8.031 -0.0957 -0.0407  0.0582
   54loPI   C6A  860  13.063   9.738   7.768  0.3593  0.1259  0.0844
   54loPI   C1B  861  13.016   9.653   9.688 -0.0689  0.2073 -0.2914
   54loPI   C2B  862  13.119   9.674   9.229  0.3119 -0.1302 -0.1551
   54loPI   C3B  863  13.242   9.578   8.694 -0.0905 -0.1124 -0.0878
   54loPI   C4B  864  13.273   9.263   8.310 -0.1020  0.2918  0.1965
   55loPI    C1  865  13.998  10.173  11.056 -0.0292 -0.1774 -0.0108
   55loPI    C2  866  13.657  10.361  11.148  0.0537  0.0203 -0.1018
   55loPI    C3  867  13.962  10.566  10.989  0.1953 -0.1663 -0.0740
   55loPI   PO4  868  13.919   9.980  10.807 -0.1263  0.0814  0.1081
   55loPI   GL1  869  13.722   9.697  10.502 -0.3254 -0.2456 -0.0270
   55loPI   GL2  870  13.623   9.579  10.267 -0.2228 -0.2495 -0.3196
   55loPI   C1A  871  13.911   9.946  10.191 -0.0775 -0.0610 -0.0781
   55loPI   C2A  872  13.983   9.926   9.779 -0.2306  0.2913 -0.0992
   55loPI   C3A  873  14.118   9.945   9.419  0.1225 -0.0461 -0.0832
   55loPI   C4A  874  14.184   9.927   9.013  0.0230  0.1755 -0.1737
   55loPI   C5A  875  14.346  10.076   8.566 -0.1311 -0.0005  0.1051
   55loPI   C6A  876  14.334  10.354   8.209 -0.0578  0.2485 -0.0279
   55loPI   C1B  877  13.780   9.466   9.870  0.1446  0.1371  0.0463
   55loPI   C2B  878  13.962   9.474   9.438 -0.2404 -0.2133  0.1455
   55loPI   C3B  879  14.079   9.455   9.108 -0.0021  0.0907  0.1261
   55loPI   C4B  880  14.190   9.463   8.624 -0.0042  0.0758 -0.1707
   56loPI    C1  881  10.102   9.302  10.213  0.0859 -0.1573  0.2969
   56loPI    C2  882  10.428   9.533  10.198 -0.0173 -0.0048  0.3696
   56loPI    C3  883  10.439   9.183  10.391  0.2154 -0.1863  0.0368
   56loPI   PO4  884   9.986   9.351  10.020 -0.0021 -0.0906  0.0027
   56loPI   GL1  885   9.567   9.493   9.988  0.1803 -0.1014 -0.0427
   56loPI   GL2  886   9.309   9.510   9.715  0.1068  0.1632  0.2329
   56loPI   C1A  887   9.705   9.671   9.523 -0.1069 -0.1269 -0.0203
   56loPI   C2A  888   9.676   9.888   9.129 -0.1758 -0.1884  0.2195
   56loPI   C3A  889   9.787   9.956   8.712  0.3379 -0.1207  0.3880
   56loPI   C4A  890   9.788   9.901   8.254  0.1334 -0.2213  0.1010
   56loPI   C5A  891   9.692  10.002   7.783  0.2854 -0.0307  0.3139
   56loPI   C6A  892   9.603  10.228   7.441 -0.2628  0.3032  0.1284
   56loPI   C1B  893   9.230   9.617   9.347  0.0397  0.1768  0.0385
   56loPI   C2B  894   9.324   9.656   8.872 -0.1566  0.1697 -0.2397
   56loPI   C3B  895   9.466   9.629   8.451  0.3078  0.0717  0.1974
   56loPI   C4B  896   9.571   9.553   8.016 -0.1294  0.1024  0.3193
   57loPI    C1  897  12.029   6.677  10.302 -0.0941 -0.0605 -0.0386
   57loPI    C2  898  11.872   6.641  10.669 -0.1424  0.0936 -0.0434
   57loPI    C3  899  12.077   6.970  10.570  0.3011 -0.1603  0.0049
   57loPI   PO4  900  12.139   6.520  10.005 -0.1572 -0.2335 -0.2520
   57loPI   GL1  901  12.304   6.748   9.622  0.0957 -0.1034 -0.2076
   57loPI   GL2  902  12.411   6.982   9.441 -0.0094  0.1096  0.0120
   57loPI   C1A  903  12.420   6.442   9.315  0.2544 -0.0510 -0.1736
   57loPI   C2A  904  12.415   6.335   8.870  0.0403  0.0843 -0.0607
   57loPI   C3A  905  12.485   6.163   8.458  0.1351 -0.2023  0.2482
   57loPI   C4A  906  12.645   6.136   8.054  0.0044 -0.1243 -0.1002
   57loPI   C5A  907  12.925   6.036   7.706 -0.0535 -0.1094 -0.0340
   57loPI   C6A  908  12.891   5.868   7.312  0.1059 -0.0037  0.0687
   57loPI   C1B  909  12.294   7.200   8.977  0.1738 -0.0391 -0.0350
   57loPI   C2B  910  12.424   7.294   8.644  0.1857  0.0514 -0.2284
   57loPI   C3B  911  12.238   7.399   8.302 -0.1481  0.2606 -0.2758
   57loPI   C4B  912  11.973   7.467   7.917  0.2028  0.2147  0.1285
   58loPI    C1  913   9.584   8.208  10.297 -0.0175  0.1091  0.2488
   58loPI    C2  914   9.911   8.436  10.279 -0.0219  0.1046  0.1064
   58loPI    C3  915   9.574   8.583  10.436 -0.0314  0.2050 -0.0061
   58loPI   PO4  916   9.536   8.075  10.115  0.2656  0.1061 -0.2342
   58loPI   GL1  917   9.333   8.056   9.737 -0.3292  0.0512 -0.1831
   58loPI   GL2  918   9.548   7.737   9.656  0.1905 -0.0431  0.0108
   58loPI   C1A  919   9.444   8.383   9.411 -0.0161 -0.0433 -0.1808
   58loPI   C2A  920   9.614   8.569   9.121  0.0127 -0.1998  0.0069
   58loPI   C3A  921   9.739   8.615   8.721 -0.2764  0.0307 -0.0882
   58loPI   C4A  922   9.677   8.580   8.309 -0.0996 -0.2569 -0.0625
   58loPI   C5A  923   9.401   8.703   7.966 -0.0081  0.0861 -0.1912
   58loPI   C6A  924   9.183   9.102   7.788 -0.1680  0.0039 -0.1817
   58loPI   C1B  925   9.509   7.896   9.252 -0.1934 -0.2449 -0.0520
   58loPI   C2B  926   9.457   7.695   8.842  0.0290 -0.0135  0.3031
   58loPI   C3B  927   9.309   7.787   8.412 -0.0048 -0.2839 -0.3097
   58loPI   C4B  928   9.035   7.809   7.982 -0.0139  0.1135  0.1122
   59loPI    C1  929   4.692   1.178  10.391 -0.0579  0.2029  0.0620
   59loPI    C2  930   4.926   0.882  10.524 -0.2742 -0.0800 -0.1738
   59loPI    C3  931   4.886   1.217  10.738  0.0695 -0.1695  0.0374
   59loPI   PO4  932   4.833   1.234  10.166 -0.0757 -0.1511 -0.4659
   59loPI   GL1  933   4.721   1.383   9.768  0.1761  0.0339 -0.2123
   59loPI   GL2  934   4.472   1.531   9.640  0.0846 -0.0451  0.0844
   59loPI   C1A  935   4.949   1.404   9.365 -0.0175 -0.0548  0.0778
   59loPI   C2A  936   5.213   1.346   8.974  0.0869  0.3890  0.1208
   59loPI   C3A  937   5.241   1.331   8.602  0.0263  0.0892  0.2844
   59loPI   C4A  938   5.108   1.292   8.161 -0.4889  0.3155 -0.0708
   59loPI   C5A  939   4.946   1.193   7.746 -0.2926  0.0263 -0.1556
   59loPI   C6A  940   4.832   1.123   7.390 -0.2493 -0.1258  0.1695
   59loPI   C1B  941   4.503   1.489   9.185 -0.1867 -0.0547 -0.3805
   59loPI   C2B  942   4.483   1.612   8.790 -0.0764 -0.0148  0.0664
   59loPI   C3B  943   4.370   1.470   8.447 -0.1589 -0.1773  0.0491
   59loPI   C4B  944   4.586   1.285   8.044  0.0137  0.2342  0.0924
   60loPI    C1  945   9.836   3.559  10.611 -0.1734 -0.0249 -0.2518
   60loPI    C2  946  10.146   3.637  10.851 -0.2945 -0.1540 -0.0498
   60loPI    C3  947   9.844   3.897  10.824 -0.2620 -0.1206 -0.0942
   60loPI   PO4  948   9.898   3.456  10.398  0.1506 -0.2602 -0.0389
   60loPI   GL1  949   9.898   3.328  10.009  0.2602 -0.2064  0.2833
   60loPI   GL2  950   9.893   3.057   9.935 -0.0568 -0.0750 -0.3760
   60loPI   C1A  951   9.751   3.387   9.592  0.1136  0.0300 -0.0920
   60loPI   C2A  952   9.576   3.289   9.175 -0.2371 -0.0864 -0.1293
   60loPI   C3A  953   9.339   3.414   8.915  0.3468  0.1422 -0.2019
   60loPI   C4A  954   8.995   3.336   8.495  0.3306  0.0425 -0.3281
   60loPI   C5A  955   9.229   3.208   8.118 -0.1358  0.1057 -0.1705
   60loPI   C6A  956   9.566   2.932   7.943  0.3876 -0.0726 -0.1052
   60loPI   C1B  957   9.847   2.895   9.529  0.0962 -0.5305  0.0418
   60loPI   C2B  958   9.924   2.943   9.088  0.0500  0.1206  0.1402
   60loPI   C3B  959   9.912   2.728   8.717  0.5124  0.2707  0.1211
   60loPI   C4B  960   9.832   2.691   8.326  0.1977  0.2492 -0.0416
   61loPI    C1  961  16.455  13.321  10.656 -0.0040  0.2120 -0.0373
   61loPI    C2  962  16.688  13.278  10.979  0.0330 -0.0156 -0.0925
   61loPI    C3  963  16.294  13.338  11.021  0.0417 -0.0185 -0.0047
   61loPI   PO4  964  16.498  13.424  10.553  0.0800  0.0392  0.0771
   61loPI   GL1  965  16.696  13.541  10.149 -0.4643 -0.2858  0.2562
   61loPI   GL2  966  16.750  13.193  10.166 -0.0545  0.1804  0.2034
   61loPI   C1A  967  16.801  13.588   9.735 -0.1127 -0.0897  0.1470
   61loPI   C2A  968  16.755  13.669   9.324  0.1777  0.1378 -0.1229
   61loPI   C3A  969  16.713  13.707   8.954 -0.3442  0.1519 -0.3885
   61loPI   C4A  970  16.669  13.564   8.564  0.0681  0.1575 -0.0798
   61loPI   C5A  971  16.845  13.728   8.215 -0.0955  0.1061  0.1419
   61loPI   C6A  972  17.168  14.057   8.140  0.1166 -0.0273 -0.0709
   61loPI   C1B  973  16.554  13.169   9.751 -0.2979 -0.0844 -0.0385
   61loPI   C2B  974  16.618  13.144   9.365 -0.0623 -0.3721  0.2274
   61loPI   C3B  975  16.611  13.135   8.875  0.0628 -0.0127  0.2131
   61loPI   C4B  976  16.629  13.085   8.498  0.1832  0.0469 -0.1936
   62loPI    C1  977  18.225   4.280  10.651  0.2035  0.1521  0.2090
   62loPI    C2  978  18.017   4.588  10.503  0.0546  0.0160  0.1311
   62loPI    C3  979  18.173   4.609  10.871  0.0104  0.1679  0.1417
   62loPI   PO4  980  18.355   4.214  10.448  0.1909 -0.0631 -0.2838
   62loPI   GL1  981  18.479   4.482  10.112 -0.1409 -0.1044  0.2128
   62loPI   GL2  982  18.122   4.426  10.043 -0.2628 -0.1784  0.1049
   62loPI   C1A  983  18.521   4.598   9.709  0.2405  0.1344  0.1140
   62loPI   C2A  984  18.455   4.628   9.238 -0.1852 -0.1149  0.1778
   62loPI   C3A  985  18.542   4.717   8.878  0.1192  0.0203 -0.2532
   62loPI   C4A  986  18.462   4.723   8.483 -0.0255 -0.1655  0.0288
   62loPI   C5A  987  18.702   4.718   8.007  0.0785 -0.1756 -0.0912
   62loPI   C6A  988  18.872   4.346   7.940 -0.2962  0.2217 -0.0283
   62loPI   C1B  989  17.988   4.434   9.634 -0.0376 -0.2488 -0.1461
   62loPI   C2B  990  18.007   4.433   9.248  0.0273 -0.5388  0.1009
   62loPI   C3B  991  17.934   4.521   8.717  0.1508 -0.4123  0.1004
   62loPI   C4B  992  18.030   4.593   8.240  0.2842 -0.2695  0.1290
   63loPI    C1  993   1.443  10.198  11.503  0.1920 -0.0942  0.0746
   63loPI    C2  994   1.049  10.146  11.554  0.1674 -0.2642 -0.2604
   63loPI    C3  995   1.307   9.879  11.705  0.1650 -0.0841  0.0727
   63loPI   PO4  996   1.441  10.275  11.198  0.0443 -0.0641  0.3174
   63loPI   GL1  997   1.208  10.181  10.842  0.2716  0.2725  0.4526
   63loPI   GL2  998   1.570  10.212  10.719  0.0398 -0.2389 -0.1438
   63loPI   C1A  999   1.204  10.474  10.520 -0.2297 -0.2734 -0.1389
   63loPI   C2A 1000   1.059  10.637  10.041  0.2442 -0.0347 -0.1494
   63loPI   C3A 1001   1.069  10.640   9.545 -0.0785 -0.0619 -0.0200
   63loPI   C4A 1002   1.128  10.626   9.141  0.1338  0.1413 -0.1256
   63loPI   C5A 1003   1.207  10.648   8.680 -0.0094  0.0547 -0.1639
   63loPI   C6A 1004   1.448  10.404   8.327  0.0626  0.0644  0.1304
   63loPI   C1B 1005   1.618  10.222  10.310 -0.1864 -0.1081  0.1118
   63loPI   C2B 1006   1.432  10.291   9.934  0.0951  0.1260  0.0724
   63loPI   C3B 1007   1.453  10.225   9.476 -0.4245  0.0907  0.1411
   63loPI   C4B 1008   1.567  10.305   9.113  0.1751 -0.1642 -0.0419
   64loPI    C1 1009  12.967   6.744  10.396 -0.0287 -0.0770  0.1214
   64loPI    C2 1010  13.060   6.955  10.723  0.0488 -0.0215  0.0640
   64loPI    C3 1011  12.959   6.569  10.755  0.0754 -0.0213  0.1514
   64loPI   PO4 1012  13.051   6.895  10.123  0.2238 -0.0428 -0.2868
   64loPI   GL1 1013  13.040   6.733   9.673  0.0186  0.0972 -0.0729
   64loPI   GL2 1014  13.283   6.764   9.661 -0.1668  0.0850 -0.0089
   64loPI   C1A 1015  12.889   6.729   9.319  0.1737  0.1926 -0.1697
   64loPI   C2A 1016  12.655   6.799   9.013 -0.1484  0.1801 -0.1021
   64loPI   C3A 1017  12.721   6.831   8.531 -0.1097 -0.2425 -0.1444
   64loPI   C4A 1018  12.687   6.566   8.177  0.0013 -0.1164  0.0468
   64loPI   C5A 1019  12.829   6.576   7.823 -0.1786  0.2600  0.0626
   64loPI   C6A 1020  13.227   6.860   7.708  0.1775  0.1308  0.1213
   64loPI   C1B 1021  13.385   6.656   9.133 -0.2170 -0.0391  0.1372
   64loPI   C2B 1022  13.509   6.498   8.784 -0.1465  0.1241 -0.0776
   64loPI   C3B 1023  13.490   6.447   8.406 -0.0147  0.1532  0.3378
   64loPI   C4B 1024  13.490   6.758   8.157 -0.3093  0.2118  0.1469
   65loPI    C1 1025  12.900   1.393  10.817  0.1654  0.0352  0.0436
   65loPI    C2 1026  12.683   1.661  11.019  0.1281  0.0643 -0.0343
   65loPI    C3 1027  13.002   1.491  11.191  0.0682  0.0522  0.0660
   65loPI   PO4 1028  12.884   1.481  10.562 -0.1503  0.0535 -0.0866
   65loPI   GL1 1029  12.636   1.414  10.216  0.1246 -0.0709 -0.4421
   65loPI   GL2 1030  12.694   1.639  10.045 -0.1070  0.3409  0.1372
   65loPI   C1A 1031  12.751   1.306   9.705 -0.2784  0.1247 -0.2347
   65loPI   C2A 1032  12.772   1.155   9.253 -0.0572 -0.0820 -0.0984
   65loPI   C3A 1033  12.763   1.228   8.779  0.0727 -0.0243 -0.2215
   65loPI   C4A 1034  12.796   1.182   8.287 -0.0958 -0.0206 -0.0057
   65loPI   C5A 1035  12.935   0.940   7.935 -0.0422 -0.0058  0.0376
   65loPI   C6A 1036  12.781   0.564   7.575 -0.0014  0.0259 -0.0943
   65loPI   C1B 1037  12.743   1.781   9.606  0.2275  0.2248  0.2491
   65loPI   C2B 1038  12.845   1.760   9.077 -0.1027 -0.1706 -0.1944
   65loPI   C3B 1039  12.809   1.745   8.683 -0.1458  0.0305  0.1486
   65loPI   C4B 1040  12.875   1.705   8.390 -0.1982  0.1203  0.1674
   66loPI    C1 1041   7.547   4.533  10.353 -0.1390 -0.0661  0.1982
   66loPI    C2 1042   7.843   4.788  10.271 -0.0872 -0.2144 -0.0903
   66loPI    C3 1043   7.488   4.926  10.393 -0.0315 -0.0103 -0.1551
   66loPI   PO4 1044   7.480   4.399  10.173  0.1573 -0.1766  0.2985
   66loPI   GL1 1045   7.604   4.356   9.767  0.2912 -0.1862  0.0470
   66loPI   GL2 1046   7.463   4.004   9.794 -0.1305  0.0385 -0.0368
   66loPI   C1A 1047   7.599   4.273   9.282  0.1786 -0.0924  0.1296
   66loPI   C2A 1048   7.477   4.279   8.881 -0.0951 -0.1622  0.1534
   66loPI   C3A 1049   7.348   4.518   8.519 -0.1138  0.0511 -0.2785
   66loPI   C4A 1050   7.116   4.620   8.147 -0.0556  0.0003 -0.0879
   66loPI   C5A 1051   6.653   4.680   7.932 -0.1530 -0.1818  0.2283
   66loPI   C6A 1052   6.545   4.973   7.721 -0.1175  0.2214 -0.3120
   66loPI   C1B 1053   7.707   3.816   9.446 -0.2033  0.0140  0.0564
   66loPI   C2B 1054   7.546   3.822   9.002  0.0617 -0.0894 -0.1002
   66loPI   C3B 1055   7.504   3.753   8.606  0.3248 -0.1835 -0.1590
   66loPI   C4B 1056   7.364   3.482   8.284  0.1810  0.0829 -0.3983
   67loPI    C1 1057  11.917  12.808  10.690 -0.0021  0.0222 -0.1777
   67loPI    C2 1058  11.745  12.513  10.898 -0.0133  0.1466 -0.0075
   67loPI    C3 1059  11.940  12.804  11.090  0.0790  0.1996 -0.1797
   67loPI   PO4 1060  11.890  12.708  10.463 -0.0665  0.5238  0.1838
   67loPI   GL1 1061  11.915  12.842  10.034 -0.4766 -0.2429 -0.1301
   67loPI   GL2 1062  12.151  13.101  10.206 -0.1803  0.0192 -0.1776
   67loPI   C1A 1063  11.916  12.938   9.614  0.1707 -0.3693 -0.0183
   67loPI   C2A 1064  12.000  12.996   9.220  0.3665 -0.0466  0.1483
   67loPI   C3A 1065  11.907  13.000   8.828  0.1881  0.1242  0.1011
   67loPI   C4A 1066  11.952  13.057   8.401  0.1324 -0.0059  0.0287
   67loPI   C5A 1067  11.827  13.331   8.239  0.1749  0.2086 -0.0825
   67loPI   C6A 1068  11.756  13.779   8.267 -0.1144 -0.0092 -0.0886
   67loPI   C1B 1069  12.081  13.390   9.811  0.0339  0.2575  0.3143
   67loPI   C2B 1070  12.002  13.550   9.408  0.4253  0.4846 -0.1931
   67loPI   C3B 1071  12.034  13.542   9.057 -0.1283 -0.1466 -0.2821
   67loPI   C4B 1072  11.999  13.725   8.689  0.1916 -0.0882 -0.1047
   68loPI    C1 1073   6.356  15.587  10.860  0.1200  0.1695 -0.0236
   68loPI    C2 1074   6.036  15.348  10.863  0.0202  0.2968 -0.2513
   68loPI    C3 1075   6.320  15.306  11.142 -0.1846  0.1713 -0.0583
   68loPI   PO4 1076   6.408  15.626  10.650 -0.1285 -0.1736  0.0636
   68loPI   GL1 1077   6.697  15.545  10.366  0.1110  0.0482 -0.1850
   68loPI   GL2 1078   6.577  15.259  10.184 -0.4026 -0.1251 -0.2091
   68loPI   C1A 1079   7.047  15.633  10.140  0.1173  0.0305 -0.0462
   68loPI   C2A 1080   7.147  15.590   9.689 -0.1125  0.1752  0.0848
   68loPI   C3A 1081   7.229  15.537   9.241  0.0867  0.1525 -0.0501
   68loPI   C4A 1082   7.290  15.491   8.887 -0.4311  0.0518 -0.0194
   68loPI   C5A 1083   7.322  15.454   8.446 -0.0742 -0.1224 -0.3722
   68loPI   C6A 1084   7.106  15.510   8.094 -0.2064  0.4059 -0.0238
   68loPI   C1B 1085   6.590  15.513   9.886 -0.1121  0.0060  0.0620
   68loPI   C2B 1086   6.614  15.445   9.417 -0.1114  0.0734 -0.2042
   68loPI   C3B 1087   6.658  15.402   9.060 -0.0962 -0.0461 -0.1683
   68loPI   C4B 1088   6.656  15.389   8.665  0.0494 -0.1698  0.0812
   69loPI    C1 1089  14.501  18.236  10.376 -0.1901  0.3335  0.1646
   69loPI    C2 1090  14.175  18.021  10.466  0.0717 -0.1419  0.0103
   69loPI    C3 1091  14.353  18.242  10.748 -0.2294 -0.0874  0.1612
   69loPI   PO4 1092  14.719  18.031  10.344  0.1136  0.1164 -0.1917
   69loPI   GL1 1093  14.951  18.110   9.967 -0.0277 -0.1712 -0.1769
   69loPI   GL2 1094  14.731  18.276   9.903 -0.2294 -0.0602  0.0560
   69loPI   C1A 1095  15.224  18.022   9.674  0.0445 -0.2793 -0.0330
   69loPI   C2A 1096  15.244  17.945   9.233  0.1522 -0.3096 -0.1753
   69loPI   C3A 1097  15.161  17.898   8.763  0.2203 -0.1706  0.0239
   69loPI   C4A 1098  15.308  17.800   8.298  0.1993  0.4801 -0.2211
   69loPI   C5A 1099  15.555  17.409   8.126 -0.0616  0.2513  0.2803
   69loPI   C6A 1100  15.705  17.023   7.951  0.2375 -0.0085 -0.0397
   69loPI   C1B 1101  14.868  18.301   9.410  0.1886 -0.0213  0.3525
   69loPI   C2B 1102  14.871  18.333   8.968 -0.0659 -0.0496 -0.0582
   69loPI   C3B 1103  14.770  18.274   8.682  0.2115  0.3041  0.0673
   69loPI   C4B 1104  14.983  18.142   8.291  0.0323 -0.1090 -0.2172
   70loPI    C1 1105  15.863  18.004  11.076  0.1153  0.0237  0.1204
   70loPI    C2 1106  16.238  18.083  11.192  0.1480 -0.1436  0.1311
   70loPI    C3 1107  16.041  17.772  11.349 -0.0879  0.0943  0.3151
   70loPI   PO4 1108  15.934  18.044  10.770 -0.0350  0.3410  0.0732
   70loPI   GL1 1109  15.658  17.956  10.446  0.0839  0.1831  0.1353
   70loPI   GL2 1110  15.864  18.064  10.251 -0.0282 -0.1621  0.0363
   70loPI   C1A 1111  15.416  18.195  10.143  0.0131 -0.1464 -0.4518
   70loPI   C2A 1112  15.347  18.519   9.806 -0.1565 -0.0701 -0.1863
   70loPI   C3A 1113  15.318  18.532   9.388  0.0981  0.0764 -0.0596
   70loPI   C4A 1114  15.356  18.376   9.029  0.0169  0.1945 -0.0008
   70loPI   C5A 1115  15.287  18.364   8.624 -0.0365 -0.2122 -0.1477
   70loPI   C6A 1116  15.431  18.294   8.176 -0.0596  0.3369 -0.3804
   70loPI   C1B 1117  15.795  18.146   9.828  0.1939  0.1960 -0.2731
   70loPI   C2B 1118  15.649  18.076   9.402 -0.8216 -0.0048 -0.2171
   70loPI   C3B 1119  15.708  18.062   9.083 -0.1440 -0.1283 -0.0901
   70loPI   C4B 1120  15.754  18.071   8.607  0.0741 -0.0955  0.0249
   71loPI    C1 1121  16.392   7.009  10.873  0.0625  0.0484 -0.0130
   71loPI    C2 1122  16.403   6.638  11.024  0.0232  0.0710  0.0456
   71loPI    C3 1123  16.392   6.954  11.269  0.2704  0.1185 -0.0018
   71loPI   PO4 1124  16.531   6.935  10.613 -0.0159  0.0283 -0.3024
   71loPI   GL1 1125  16.541   6.873  10.182 -0.1183  0.1818  0.1432
   71loPI   GL2 1126  16.665   6.588  10.181 -0.2805 -0.1240  0.2253
   71loPI   C1A 1127  16.591   6.879   9.676  0.2087 -0.0845 -0.0604
   71loPI   C2A 1128  16.671   6.946   9.374 -0.0966 -0.1496  0.2976
   71loPI   C3A 1129  16.765   6.858   8.908  0.1140 -0.1625  0.1348
   71loPI   C4A 1130  16.849   6.960   8.565 -0.2627 -0.1270  0.0599
   71loPI   C5A 1131  17.071   7.155   8.257  0.1397  0.2439  0.0610
   71loPI   C6A 1132  17.014   7.189   7.835 -0.1552  0.2560 -0.2520
   71loPI   C1B 1133  16.748   6.472   9.829  0.2457  0.0862 -0.2227
   71loPI   C2B 1134  16.602   6.313   9.445  0.1240 -0.1084  0.2475
   71loPI   C3B 1135  16.621   6.355   8.986  0.0380  0.0389 -0.1779
   71loPI   C4B 1136  16.640   6.452   8.548  0.0503 -0.1916 -0.0570
   72loPI    C1 1137   8.461  14.656  10.701  0.2291  0.0379  0.0277
   72loPI    C2 1138   8.477  14.585  11.094 -0.3096 -0.0696  0.0377
   72loPI    C3 1139   8.418  14.957  10.960  0.1836  0.0171  0.0444
   72loPI   PO4 1140   8.634  14.524  10.596  0.1058  0.0442 -0.0103
   72loPI   GL1 1141   8.709  14.479  10.140 -0.3003 -0.3536  0.0160
   72loPI   GL2 1142   8.385  14.395   9.933  0.1490 -0.2039  0.0332
   72loPI   C1A 1143   8.833  14.504   9.649 -0.0322  0.0059 -0.4552
   72loPI   C2A 1144   8.899  14.438   9.171  0.0110 -0.2336 -0.0941
   72loPI   C3A 1145   8.931  14.575   8.665  0.1142 -0.0173 -0.3998
   72loPI   C4A 1146   8.927  14.438   8.222 -0.0189  0.0019 -0.1527
   72loPI   C5A 1147   9.240  14.313   7.854  0.0342  0.1974 -0.0687
   72loPI   C6A 1148   9.063  14.246   7.470 -0.1393 -0.1248  0.2099
   72loPI   C1B 1149   8.396  14.316   9.393  0.4658 -0.4437 -0.0741
   72loPI   C2B 1150   8.413  14.321   8.915 -0.1970  0.0616 -0.2125
   72loPI   C3B 1151   8.391  14.370   8.505 -0.1379 -0.3046  0.2700
   72loPI   C4B 1152   8.408  14.424   8.066  0.1679  0.0698  0.0186
   73loPI    C1 1153  11.408  14.406  10.951 -0.1384  0.0271  0.1186
   73loPI    C2 1154  11.357  14.754  10.760  0.0983 -0.0156 -0.0257
   73loPI    C3 1155  11.309  14.735  11.157 -0.2252  0.1118 -0.0561
   73loPI   PO4 1156  11.611  14.313  10.853 -0.1613  0.3531  0.1600
   73loPI   GL1 1157  11.625  14.238  10.456  0.2615 -0.0066  0.1718
   73loPI   GL2 1158  11.722  14.006  10.431 -0.0782  0.0419  0.0597
   73loPI   C1A 1159  11.378  14.595  10.273  0.3123  0.1666  0.0389
   73loPI   C2A 1160  11.311  14.669   9.819 -0.0529 -0.1637  0.0203
   73loPI   C3A 1161  11.320  14.819   9.501 -0.1962  0.2744  0.0319
   73loPI   C4A 1162  11.353  14.808   9.034 -0.0642  0.2123  0.0438
   73loPI   C5A 1163  11.374  14.990   8.526  0.0556  0.0946  0.1835
   73loPI   C6A 1164  11.596  15.192   8.175  0.1490 -0.1932 -0.1225
   73loPI   C1B 1165  11.655  14.295   9.991 -0.1918 -0.1633  0.0961
   73loPI   C2B 1166  11.663  14.408   9.561 -0.2717  0.0251  0.0982
   73loPI   C3B 1167  11.649  14.438   9.175  0.1259 -0.0905  0.0924
   73loPI   C4B 1168  11.652  14.552   8.724  0.1866 -0.2435 -0.1675
   74loPI    C1 1169   0.050  11.060  11.660 -0.0128 -0.0612  0.1873
   74loPI    C2 1170  -0.305  11.172  11.808 -0.1470  0.2391 -0.3367
   74loPI    C3 1171  -0.244  10.792  11.699 -0.0841  0.0393  0.3520
   74loPI   PO4 1172   0.198  11.152  11.371 -0.2199 -0.2857 -0.1201
   74loPI   GL1 1173   0.158  11.149  10.959 -0.2315  0.0629  0.0927
   74loPI   GL2 1174   0.253  11.435  10.927 -0.1120 -0.1689  0.4754
   74loPI   C1A 1175   0.360  10.910  10.544  0.1098 -0.2693  0.0795
   74loPI   C2A 1176   0.180  10.730  10.228  0.0208  0.0277 -0.4255
   74loPI   C3A 1177   0.147  10.809   9.819 -0.3106 -0.1813  0.3049
   74loPI   C4A 1178   0.198  10.825   9.470 -0.2349  0.0301 -0.0331
   74loPI   C5A 1179   0.191  10.856   9.015 -0.0520 -0.0172  0.0615
   74loPI   C6A 1180   0.026  10.882   8.634 -0.1138 -0.0444  0.0375
   74loPI   C1B 1181   0.215  11.428  10.534 -0.0120  0.0859 -0.1350
   74loPI   C2B 1182   0.285  11.312  10.101 -0.0739 -0.0520  0.2137
   74loPI   C3B 1183   0.268  11.258   9.642 -0.3254  0.0248 -0.1765
   74loPI   C4B 1184   0.348  11.336   9.247  0.1633  0.0510  0.1519
   75loPI    C1 1185  13.916   2.443  10.811  0.0506 -0.1388 -0.1010
   75loPI    C2 1186  13.591   2.598  10.986  0.0790 -0.0629 -0.1151
   75loPI    C3 1187  13.899   2.474  11.210  0.2145  0.2554 -0.1207
   75loPI   PO4 1188  13.871   2.451  10.562  0.1405  0.0011  0.0419
   75loPI   GL1 1189  14.159   2.498  10.206 -0.1836  0.0580 -0.1606
   75loPI   GL2 1190  14.211   2.221  10.008  0.1158 -0.2358  0.0739
   75loPI   C1A 1191  13.951   2.523   9.812  0.0538  0.0540 -0.1535
   75loPI   C2A 1192  13.995   2.517   9.309  0.0373  0.0056 -0.2054
   75loPI   C3A 1193  14.000   2.552   8.760  0.0665 -0.0784 -0.0561
   75loPI   C4A 1194  13.934   2.464   8.347 -0.4325  0.0444 -0.3116
   75loPI   C5A 1195  13.610   2.270   8.046  0.0418  0.1761  0.2009
   75loPI   C6A 1196  13.296   2.210   7.718 -0.0555  0.1322  0.0062
   75loPI   C1B 1197  14.392   2.327   9.572  0.1050 -0.2911 -0.2271
   75loPI   C2B 1198  14.325   2.168   9.148 -0.1140 -0.2634  0.0145
   75loPI   C3B 1199  14.384   2.209   8.675 -0.0023  0.1475  0.2987
   75loPI   C4B 1200  14.434   2.321   8.321 -0.2262 -0.0302 -0.4987
   76loPI    C1 1201  16.209  15.153  11.027  0.1823  0.0588 -0.0682
   76loPI    C2 1202  16.044  15.071  11.382 -0.0026 -0.0258 -0.1717
   76loPI    C3 1203  16.057  15.448  11.250 -0.1116 -0.0179 -0.1610
   76loPI   PO4 1204  16.048  14.853  10.831  0.0546  0.0547  0.0313
   76loPI   GL1 1205  16.004  14.736  10.418 -0.2821  0.0110  0.2319
   76loPI   GL2 1206  16.419  14.765  10.332  0.2664  0.0745  0.2832
   76loPI   C1A 1207  15.928  14.698  10.006  0.1305  0.3246 -0.0930
   76loPI   C2A 1208  16.009  14.725   9.565 -0.0642 -0.1119  0.0012
   76loPI   C3A 1209  16.014  14.788   9.163 -0.3659  0.3647  0.2469
   76loPI   C4A 1210  15.932  14.923   8.717 -0.0273  0.2725 -0.0166
   76loPI   C5A 1211  16.138  15.255   8.348 -0.1539 -0.0021  0.4542
   76loPI   C6A 1212  15.814  15.514   8.097  0.0568  0.1794  0.0779
   76loPI   C1B 1213  16.403  14.874   9.930 -0.5163 -0.2358  0.2019
   76loPI   C2B 1214  16.447  14.973   9.438  0.0409 -0.1879  0.0181
   76loPI   C3B 1215  16.525  14.992   8.981 -0.1131  0.1008  0.0154
   76loPI   C4B 1216  16.418  14.970   8.641  0.0231 -0.0217 -0.4097
   77loPI    C1 1217   3.857   7.813  10.425  0.0240 -0.3405  0.1906
   77loPI    C2 1218   4.057   8.015  10.706 -0.0890  0.0134  0.0237
   77loPI    C3 1219   3.666   8.080  10.655 -0.0916 -0.1282 -0.1436
   77loPI   PO4 1220   3.980   7.903  10.168  0.0142  0.1213 -0.0246
   77loPI   GL1 1221   4.259   7.986   9.870 -0.2077  0.0296 -0.0106
   77loPI   GL2 1222   4.452   8.219   9.852 -0.2524 -0.0159 -0.2119
   77loPI   C1A 1223   4.348   7.745   9.521  0.3971  0.1059 -0.0476
   77loPI   C2A 1224   4.197   7.671   9.094 -0.4097  0.0930 -0.1759
   77loPI   C3A 1225   4.162   7.736   8.682 -0.0550 -0.0042  0.3825
   77loPI   C4A 1226   4.141   7.994   8.329 -0.2230  0.0892 -0.2016
   77loPI   C5A 1227   3.977   8.305   7.947  0.1516 -0.2181 -0.1017
   77loPI   C6A 1228   3.967   8.691   7.771  0.1508  0.0207 -0.0455
   77loPI   C1B 1229   4.407   8.186   9.424 -0.0079 -0.1937  0.0586
   77loPI   C2B 1230   4.366   8.228   9.039  0.1321 -0.3253  0.3291
   77loPI   C3B 1231   4.398   8.358   8.621  0.1569 -0.0203  0.2268
   77loPI   C4B 1232   4.287   8.455   8.290  0.0837  0.0666 -0.3146
   78loPI    C1 1233   9.406  15.888  10.921  0.1881 -0.2686 -0.0220
   78loPI    C2 1234   9.431  15.635  11.229  0.0585 -0.0110  0.2046
   78loPI    C3 1235   9.075  15.778  11.116  0.1244  0.0262  0.0416
   78loPI   PO4 1236   9.564  16.012  10.877  0.1008  0.0186  0.1276
   78loPI   GL1 1237   9.870  16.105  10.655 -0.0402  0.4265 -0.1309
   78loPI   GL2 1238   9.609  16.117  10.398  0.0670  0.1715 -0.5146
   78loPI   C1A 1239  10.103  16.145  10.220  0.2000  0.0420 -0.0281
   78loPI   C2A 1240  10.180  16.281   9.746  0.1197 -0.0803  0.2024
   78loPI   C3A 1241  10.225  16.329   9.357  0.0600  0.0619 -0.0802
   78loPI   C4A 1242  10.272  16.383   8.934 -0.2385  0.0278  0.0708
   78loPI   C5A 1243  10.271  16.365   8.509 -0.4606  0.1967 -0.1222
   78loPI   C6A 1244  10.124  16.558   8.204 -0.2553 -0.1834 -0.0340
   78loPI   C1B 1245   9.626  16.137   9.936  0.1812 -0.1088  0.3977
   78loPI   C2B 1246   9.668  16.186   9.505  0.2335  0.1057  0.2195
   78loPI   C3B 1247   9.698  16.179   9.122 -0.1721  0.0397 -0.0664
   78loPI   C4B 1248   9.841  16.192   8.802  0.0010 -0.1041 -0.6488
   79loPI    C1 1249   2.636   3.951  10.649  0.0807  0.1870 -0.0430
   79loPI    C2 1250   2.334   4.213  10.626  0.0209  0.1340  0.1237
   79loPI    C3 1251   2.673   4.313  10.814 -0.0509  0.0475  0.3011
   79loPI   PO4 1252   2.697   3.870  10.415 -0.0561 -0.1366 -0.1316
   79loPI   GL1 1253   2.704   3.854   9.971  0.1265  0.3109  0.1170
   79loPI   GL2 1254   2.802   3.569  10.024  0.3610  0.1046 -0.2720
   79loPI   C1A 1255   2.375   3.937   9.592  0.1046  0.0991 -0.0327
   79loPI   C2A 1256   2.346   3.984   9.151  0.1390  0.0824  0.2336
   79loPI   C3A 1257   2.439   4.037   8.735 -0.3019  0.0870 -0.4355
   79loPI   C4A 1258   2.439   3.859   8.200 -0.1791 -0.1747  0.1979
   79loPI   C5A 1259   2.181   3.557   7.942  0.2663 -0.1679  0.3114
   79loPI   C6A 1260   2.001   3.198   7.681  0.3835 -0.1704 -0.1012
   79loPI   C1B 1261   2.525   3.432   9.743 -0.3148 -0.3074 -0.0362
   79loPI   C2B 1262   2.542   3.573   9.349  0.0899  0.0352 -0.2261
   79loPI   C3B 1263   2.324   3.568   8.964  0.1491 -0.1501 -0.3498
   79loPI   C4B 1264   2.256   3.551   8.524  0.1046  0.1870  0.0703
   80loPI    C1 1265   2.457  15.187  11.088 -0.0025 -0.0943  0.2183
   80loPI    C2 1266   2.272  15.513  10.948  0.1282 -0.1296 -0.0423
   80loPI    C3 1267   2.139  15.335  11.280 -0.0499  0.0873  0.0047
   80loPI   PO4 1268   2.510  15.077  10.889  0.2812  0.1976 -0.0589
   80loPI   GL1 1269   2.686  14.876  10.492  0.1544  0.2694 -0.3798
   80loPI   GL2 1270   2.726  14.511  10.355  0.0282 -0.3057 -0.2062
   80loPI   C1A 1271   2.406  14.983  10.192  0.0286 -0.2304 -0.1478
   80loPI   C2A 1272   2.416  14.965   9.720 -0.1151 -0.1323 -0.1365
   80loPI   C3A 1273   2.426  15.051   9.369 -0.1010  0.1379  0.2326
   80loPI   C4A 1274   2.385  15.077   8.985  0.3768  0.2516 -0.0465
   80loPI   C5A 1275   2.299  14.978   8.542  0.0778  0.3557  0.0887
   80loPI   C6A 1276   2.255  15.214   8.219 -0.1581 -0.2179 -0.0037
   80loPI   C1B 1277   2.697  14.645   9.941  0.3072 -0.3347  0.1888
   80loPI   C2B 1278   2.754  14.627   9.505  0.1489 -0.2865  0.0303
   80loPI   C3B 1279   2.779  14.644   9.053  0.1628  0.0957  0.0946
   80loPI   C4B 1280   2.793  14.653   8.658 -0.1465 -0.0697  0.0437
   81loPI    C1 1281   0.050   6.269  10.845  0.2763  0.0180  0.0578
   81loPI    C2 1282   0.070   5.929  10.635 -0.0768  0.1171 -0.1457
   81loPI    C3 1283   0.028   5.917  11.033 -0.0936 -0.0772 -0.1524
   81loPI   PO4 1284  -0.050   6.371  10.730  0.0898 -0.1369 -0.0375
   81loPI   GL1 1285   0.050   6.336  10.266 -0.1057 -0.0012 -0.0513
   81loPI   GL2 1286  -0.235   6.221  10.074  0.3218  0.1529  0.0797
   81loPI   C1A 1287   0.211   6.363   9.995 -0.0317 -0.0804 -0.0147
   81loPI   C2A 1288   0.215   6.420   9.535 -0.1969  0.0757 -0.2007
   81loPI   C3A 1289   0.179   6.521   9.076  0.1084  0.3816  0.1179
   81loPI   C4A 1290   0.183   6.630   8.665 -0.0051  0.1266  0.1621
   81loPI   C5A 1291   0.204   6.834   8.295  0.1267 -0.0942 -0.2119
   81loPI   C6A 1292   0.166   7.001   7.925  0.0749 -0.1337 -0.1570
   81loPI   C1B 1293  -0.297   6.264   9.693 -0.4079  0.0493  0.2343
   81loPI   C2B 1294  -0.304   6.250   9.251 -0.1946  0.2007  0.0967
   81loPI   C3B 1295  -0.356   6.384   8.847  0.0687 -0.6259 -0.1910
   81loPI   C4B 1296  -0.262   6.547   8.536  0.1054  0.2939 -0.0993
   82loPI    C1 1297  11.913   4.522  10.330  0.0830  0.0274  0.0378
   82loPI    C2 1298  11.919   4.124  10.288  0.1471  0.0368 -0.0438
   82loPI    C3 1299  12.261   4.331  10.278  0.1223  0.0846  0.0897
   82loPI   PO4 1300  11.716   4.671  10.081 -0.0847  0.2805  0.1754
   82loPI   GL1 1301  11.729   4.420   9.750  0.0476 -0.1871  0.1865
   82loPI   GL2 1302  12.069   4.409   9.782 -0.2031  0.2348 -0.0774
   82loPI   C1A 1303  11.725   4.281   9.338 -0.0700  0.0926 -0.0604
   82loPI   C2A 1304  11.746   4.214   8.832 -0.0535  0.1049 -0.0714
   82loPI   C3A 1305  11.670   4.227   8.424 -0.3098 -0.2194 -0.0206
   82loPI   C4A 1306  11.568   4.346   8.011 -0.2170 -0.0025 -0.2817
   82loPI   C5A 1307  11.676   4.236   7.590 -0.0666 -0.1539  0.0351
   82loPI   C6A 1308  11.578   4.378   7.189  0.0110  0.2106  0.0484
   82loPI   C1B 1309  12.304   4.304   9.396  0.4195 -0.0081 -0.1110
   82loPI   C2B 1310  12.369   4.353   8.981 -0.1602 -0.4485  0.0058
   82loPI   C3B 1311  12.127   4.473   8.606 -0.0433  0.0638 -0.2199
   82loPI   C4B 1312  11.945   4.634   8.343 -0.1341 -0.1820 -0.2437
   83loPI    C1 1313  11.906  14.218  11.336 -0.1745 -0.0650 -0.0113
   83loPI    C2 1314  11.657  14.497  11.478 -0.0784 -0.0770  0.1839
   83loPI    C3 1315  11.511  14.155  11.332 -0.2114  0.1658 -0.2691
   83loPI   PO4 1316  12.108  14.287  11.196 -0.1056  0.1464  0.0947
   83loPI   GL1 1317  12.163  14.394  10.714 -0.0760  0.0042 -0.2285
   83loPI   GL2 1318  12.326  14.585  10.782  0.0677 -0.0174 -0.1162
   83loPI   C1A 1319  12.089  14.358  10.284 -0.0085 -0.0815  0.1119
   83loPI   C2A 1320  12.122  14.406   9.876  0.0075  0.0685 -0.0549
   83loPI   C3A 1321  12.182  14.593   9.485 -0.0139  0.3277  0.0224
   83loPI   C4A 1322  12.131  14.541   9.113 -0.0191 -0.1015  0.2114
   83loPI   C5A 1323  12.153  14.724   8.762 -0.3234 -0.6031  0.1563
   83loPI   C6A 1324  12.269  14.691   8.311  0.1239  0.1530  0.0789
   83loPI   C1B 1325  12.596  14.465  10.494  0.0916  0.0421  0.1188
   83loPI   C2B 1326  12.934  14.408  10.171 -0.2885  0.1881  0.0003
   83loPI   C3B 1327  13.075  14.411   9.709  0.1650  0.4165  0.1300
   83loPI   C4B 1328  13.070  14.294   9.297 -0.3031 -0.0171  0.0670
   84loPI    C1 1329  11.821  13.294  11.053 -0.0533 -0.2074  0.3351
   84loPI    C2 1330  11.658  13.602  11.249 -0.1262 -0.1865  0.2426
   84loPI    C3 1331  11.706  13.250  11.433  0.0361 -0.0962  0.3754
   84loPI   PO4 1332  11.666  13.502  10.760 -0.1480  0.0310 -0.0817
   84loPI   GL1 1333  11.858  13.512  10.322 -0.0197 -0.2272 -0.0384
   84loPI   GL2 1334  11.462  13.575  10.278  0.2720 -0.4436  0.0935
   84loPI   C1A 1335  12.044  13.855  10.116 -0.1953 -0.0179  0.1159
   84loPI   C2A 1336  12.235  13.861   9.704 -0.0750  0.0772  0.1159
   84loPI   C3A 1337  12.036  14.051   9.361  0.0552 -0.1879 -0.0908
   84loPI   C4A 1338  12.148  14.051   9.018 -0.0968 -0.0216 -0.1663
   84loPI   C5A 1339  12.159  14.246   8.644 -0.3911  0.0900 -0.0566
   84loPI   C6A 1340  11.894  14.298   8.370  0.1591 -0.1345 -0.0023
   84loPI   C1B 1341  11.572  13.748   9.983 -0.1865 -0.0296 -0.0234
   84loPI   C2B 1342  11.541  13.881   9.603 -0.4127  0.4320  0.2883
   84loPI   C3B 1343  11.653  13.909   9.092 -0.0869  0.0503 -0.0371
   84loPI   C4B 1344  11.597  14.035   8.708 -0.1411 -0.3405  0.3511
   85loPI    C1 1345  13.554   3.298  10.582 -0.0564  0.1194  0.1078
   85loPI    C2 1346  13.671   2.923  10.659  0.0029  0.1440  0.1378
   85loPI    C3 1347  13.658   3.193  10.954  0.1341  0.2122  0.0818
   85loPI   PO4 1348  13.635   3.300  10.310 -0.2185 -0.0771 -0.2422
   85loPI   GL1 1349  13.679   3.254   9.916  0.0112 -0.0346  0.0021
   85loPI   GL2 1350  13.954   3.439   9.774 -0.2468  0.0157 -0.0183
   85loPI   C1A 1351  13.805   3.013   9.549 -0.4723  0.0373 -0.3765
   85loPI   C2A 1352  13.845   2.949   9.070 -0.0983  0.1300  0.2027
   85loPI   C3A 1353  13.596   2.832   8.759 -0.2019 -0.0458 -0.0800
   85loPI   C4A 1354  13.470   2.676   8.382  0.3179 -0.6524 -0.1882
   85loPI   C5A 1355  13.322   2.678   8.026 -0.4228 -0.1067  0.2497
   85loPI   C6A 1356  13.472   2.997   7.656  0.1310  0.0705 -0.2499
   85loPI   C1B 1357  14.013   3.392   9.270 -0.0225  0.0636 -0.1867
   85loPI   C2B 1358  14.046   3.266   8.751  0.1723 -0.1238  0.0601
   85loPI   C3B 1359  13.992   2.947   8.511  0.1019 -0.0308  0.1498
   85loPI   C4B 1360  13.873   2.851   8.058 -0.1118  0.0065 -0.0759
   86loPI    C1 1361   3.587   7.473  10.710  0.1364  0.2427  0.0464
   86loPI    C2 1362   3.326   7.245  10.909  0.2932 -0.1395 -0.1738
   86loPI    C3 1363   3.665   7.361  11.087  0.1854 -0.0241 -0.0407
   86loPI   PO4 1364   3.404   7.633  10.559 -0.3700  0.0357  0.1616
   86loPI   GL1 1365   3.372   7.918  10.277 -0.1570  0.1088 -0.0966
   86loPI   GL2 1366   3.523   7.984   9.975  0.0758 -0.0322  0.0516
   86loPI   C1A 1367   3.074   7.755  10.044  0.0456  0.0994  0.0238
   86loPI   C2A 1368   2.967   7.589   9.720 -0.0407  0.0539  0.1863
   86loPI   C3A 1369   2.907   7.669   9.283 -0.2568 -0.0407  0.1883
   86loPI   C4A 1370   2.879   7.776   8.882  0.0100  0.0666  0.1423
   86loPI   C5A 1371   2.695   7.684   8.491  0.0150  0.3046  0.2427
   86loPI   C6A 1372   2.719   7.653   8.053 -0.0513  0.2971  0.0897
   86loPI   C1B 1373   3.399   7.913   9.512  0.4279  0.2711  0.1390
   86loPI   C2B 1374   3.287   8.009   9.112  0.0158 -0.0088  0.0737
   86loPI   C3B 1375   3.186   7.946   8.557  0.0281 -0.1270  0.0808
   86loPI   C4B 1376   3.184   7.850   8.122 -0.3820  0.0268 -0.1521
   87loPI    C1 1377   8.800   4.741  10.238  0.2818 -0.1400  0.4127
   87loPI    C2 1378   9.130   4.967  10.246  0.2357 -0.0664  0.2777
   87loPI    C3 1379   8.837   5.032  10.510  0.1783  0.1002  0.1742
   87loPI   PO4 1380   8.765   4.702   9.988 -0.0966 -0.0927  0.1942
   87loPI   GL1 1381   9.022   4.482   9.661  0.1169  0.0132 -0.1503
   87loPI   GL2 1382   9.315   4.317   9.772  0.0155  0.2561  0.0386
   87loPI   C1A 1383   8.859   4.513   9.278  0.0201  0.0644 -0.0923
   87loPI   C2A 1384   8.829   4.503   8.875  0.0341  0.1033 -0.3197
   87loPI   C3A 1385   8.799   4.577   8.520  0.0332  0.0849 -0.1893
   87loPI   C4A 1386   8.685   4.443   8.277  0.1755 -0.0476 -0.4629
   87loPI   C5A 1387   8.564   4.082   7.983  0.1963  0.1728  0.0278
   87loPI   C6A 1388   8.449   3.724   7.848  0.0304 -0.1831  0.0387
   87loPI   C1B 1389   9.257   4.239   9.239 -0.0187  0.0306 -0.1675
   87loPI   C2B 1390   9.206   4.222   8.812 -0.2350 -0.2840  0.0954
   87loPI   C3B 1391   9.142   4.174   8.359  0.0986 -0.3019 -0.4573
   87loPI   C4B 1392   9.170   4.526   8.115 -0.3205 -0.0742 -0.2674
   88loPI    C1 1393  10.346   8.751  10.188 -0.2189 -0.1246 -0.0618
   88loPI    C2 1394  10.629   8.482  10.280 -0.0624  0.0460 -0.0383
   88loPI    C3 1395  10.335   8.560  10.540 -0.0699 -0.0531 -0.0170
   88loPI   PO4 1396  10.252   8.650   9.870  0.1456  0.3487 -0.3538
   88loPI   GL1 1397  10.016   8.825   9.549  0.0402  0.0887 -0.1732
   88loPI   GL2 1398   9.961   9.245   9.562 -0.0794 -0.3197  0.0551
   88loPI   C1A 1399  10.106   8.929   9.203  0.2935 -0.1049  0.3219
   88loPI   C2A 1400  10.130   8.949   8.713  0.1347  0.1641  0.0098
   88loPI   C3A 1401  10.068   8.982   8.306 -0.0721 -0.1055 -0.0778
   88loPI   C4A 1402   9.861   9.135   7.955  0.1163  0.3074  0.2723
   88loPI   C5A 1403   9.578   8.932   7.581  0.4523 -0.0415  0.1435
   88loPI   C6A 1404   9.158   8.944   7.300  0.0675  0.0099 -0.4051
   88loPI   C1B 1405  10.002   9.423   9.139  0.0124  0.2274 -0.0063
   88loPI   C2B 1406   9.984   9.470   8.690 -0.1836 -0.2215 -0.1171
   88loPI   C3B 1407  10.068   9.472   8.227  0.0772  0.0424  0.3919
   88loPI   C4B 1408  10.503   9.249   8.057  0.0885  0.1867 -0.2192
   89loPI    C1 1409  13.135  17.580  11.029 -0.0088 -0.1644  0.0241
   89loPI    C2 1410  12.898  17.274  11.131 -0.0122 -0.0582  0.3450
   89loPI    C3 1411  13.292  17.254  11.198  0.0378 -0.1312  0.0455
   89loPI   PO4 1412  13.104  17.563  10.777  0.2739  0.0560 -0.0560
   89loPI   GL1 1413  13.079  17.409  10.287  0.0357 -0.0192  0.1777
   89loPI   GL2 1414  12.828  17.409  10.087  0.2390  0.0270 -0.2793
   89loPI   C1A 1415  13.246  17.238   9.904  0.0987 -0.0538 -0.1433
   89loPI   C2A 1416  13.304  17.225   9.556 -0.0509 -0.1498 -0.0319
   89loPI   C3A 1417  13.275  17.223   9.143  0.1433  0.0011  0.2042
   89loPI   C4A 1418  13.262  17.333   8.703  0.2659 -0.2181  0.0954
   89loPI   C5A 1419  13.266  17.323   8.271 -0.2098 -0.0495 -0.0798
   89loPI   C6A 1420  13.294  17.470   7.898 -0.1420  0.0394  0.0153
   89loPI   C1B 1421  12.858  17.532   9.627  0.0348 -0.0913 -0.0071
   89loPI   C2B 1422  12.828  17.562   9.129 -0.4247 -0.0728  0.1373
   89loPI   C3B 1423  12.817  17.700   8.713 -0.2908  0.3203 -0.1749
   89loPI   C4B 1424  12.889  17.691   8.312  0.1778  0.2685  0.3377
   90loPI    C1 1425  14.387  11.703  11.510 -0.1056  0.1844 -0.1392
   90loPI    C2 1426  14.153  11.404  11.385 -0.1382  0.1396  0.0255
   90loPI    C3 1427  14.091  11.570  11.743  0.1396  0.0648  0.1108
   90loPI   PO4 1428  14.359  11.891  11.281 -0.5968  0.0091  0.0315
   90loPI   GL1 1429  14.398  11.917  10.852 -0.0449 -0.1884 -0.0250
   90loPI   GL2 1430  14.154  12.022  10.713 -0.0947 -0.1296  0.0351
   90loPI   C1A 1431  14.495  11.816  10.416  0.2732  0.0693 -0.2020
   90loPI   C2A 1432  14.444  11.878   9.925  0.0976  0.0429  0.0789
   90loPI   C3A 1433  14.485  11.809   9.529 -0.0685 -0.1977 -0.0162
   90loPI   C4A 1434  14.432  11.985   9.192  0.2042  0.1149  0.0831
   90loPI   C5A 1435  14.461  12.021   8.778  0.0002  0.2879 -0.0626
   90loPI   C6A 1436  14.193  12.311   8.473  0.1171  0.0049  0.0095
   90loPI   C1B 1437  14.152  12.145  10.300 -0.1729  0.0936  0.1508
   90loPI   C2B 1438  14.120  12.231   9.807  0.1829  0.1000 -0.1554
   90loPI   C3B 1439  14.078  12.261   9.362  0.2277  0.1961  0.0404
   90loPI   C4B 1440  14.147  12.376   8.948 -0.1079 -0.0211  0.3228
   91loPI    C1 1441   8.419  16.046  11.094 -0.0991 -0.2245 -0.1852
   91loPI    C2 1442   8.756  16.141  11.288 -0.3691  0.0843  0.1463
   91loPI    C3 1443   8.620  15.765  11.296 -0.0988 -0.0163  0.1113
   91loPI   PO4 1444   8.485  16.127  10.803  0.2255  0.0939  0.0319
   91loPI   GL1 1445   8.614  16.342  10.498 -0.1160  0.2047  0.2327
   91loPI   GL2 1446   8.298  16.152  10.300  0.1387  0.0824 -0.3254
   91loPI   C1A 1447   8.828  16.514  10.044 -0.3956 -0.0979  0.0192
   91loPI   C2A 1448   8.820  16.539   9.598  0.2985  0.2341 -0.3449
   91loPI   C3A 1449   8.873  16.524   9.249  0.0309  0.2352  0.1777
   91loPI   C4A 1450   8.806  16.344   8.776 -0.2836 -0.3336 -0.0787
   91loPI   C5A 1451   8.698  16.177   8.326 -0.1463 -0.0547  0.3789
   91loPI   C6A 1452   8.692  15.801   8.118 -0.0514 -0.0060 -0.1954
   91loPI   C1B 1453   8.210  16.302   9.849 -0.1456  0.2518 -0.1318
   91loPI   C2B 1454   8.235  16.362   9.430 -0.0585  0.1335 -0.2016
   91loPI   C3B 1455   8.390  16.289   9.076 -0.1158 -0.3294 -0.0519
   91loPI   C4B 1456   8.284  16.145   8.637 -0.0991  0.1067 -0.0483
   92loPI    C1 1457   3.197   3.454  10.316  0.1938 -0.1126 -0.1308
   92loPI    C2 1458   3.229   3.795  10.522  0.0337 -0.1096 -0.1097
   92loPI    C3 1459   2.966   3.516  10.637  0.1620 -0.2392 -0.1285
   92loPI   PO4 1460   3.321   3.492  10.111  0.0169 -0.1510  0.1605
   92loPI   GL1 1461   3.291   3.709   9.774  0.0959 -0.0930  0.2263
   92loPI   GL2 1462   3.434   3.556   9.612 -0.2002 -0.0731  0.2619
   92loPI   C1A 1463   2.948   3.812   9.573  0.0312 -0.1267 -0.0525
   92loPI   C2A 1464   2.820   3.981   9.223 -0.0848  0.1202  0.1493
   92loPI   C3A 1465   2.817   3.681   8.904 -0.0066 -0.0503  0.3602
   92loPI   C4A 1466   2.765   3.591   8.524 -0.1561  0.1575  0.0684
   92loPI   C5A 1467   2.625   3.382   8.108 -0.1522 -0.0658  0.2473
   92loPI   C6A 1468   2.421   3.073   7.971 -0.1837  0.0533  0.0904
   92loPI   C1B 1469   3.308   3.675   9.160 -0.0918 -0.0229  0.4045
   92loPI   C2B 1470   3.256   3.635   8.637 -0.0809  0.0357 -0.0099
   92loPI   C3B 1471   3.160   3.399   8.235 -0.0840 -0.0002  0.1701
   92loPI   C4B 1472   2.971   2.965   8.090 -0.2625 -0.0131 -0.0409
   93loPI    C1 1473   4.499  17.371  10.890 -0.2712  0.0600  0.4477
   93loPI    C2 1474   4.420  17.034  11.090 -0.2446 -0.0905  0.2078
   93loPI    C3 1475   4.772  17.216  11.138 -0.2006 -0.1793  0.2241
   93loPI   PO4 1476   4.283  17.375  10.712  0.0972  0.2503 -0.1306
   93loPI   GL1 1477   4.214  17.368  10.256  0.0685  0.0504  0.1819
   93loPI   GL2 1478   3.876  17.340  10.213  0.1256 -0.3325  0.1348
   93loPI   C1A 1479   4.246  17.081   9.980 -0.0406  0.1051 -0.1316
   93loPI   C2A 1480   4.115  16.993   9.522 -0.1053 -0.0361  0.1584
   93loPI   C3A 1481   4.118  17.013   9.067 -0.4331  0.2631 -0.0580
   93loPI   C4A 1482   4.241  16.973   8.725  0.1580  0.1034 -0.1379
   93loPI   C5A 1483   4.451  16.704   8.417  0.1229  0.1666 -0.1890
   93loPI   C6A 1484   4.681  16.605   8.094  0.1761 -0.2013 -0.1079
   93loPI   C1B 1485   3.861  17.452   9.784 -0.1219  0.2568 -0.1041
   93loPI   C2B 1486   3.757  17.409   9.359  0.6632  0.0516  0.1050
   93loPI   C3B 1487   3.792  17.306   8.844 -0.2025 -0.1330 -0.1500
   93loPI   C4B 1488   3.752  17.357   8.461  0.1166 -0.2700  0.1166
   94loPI    C1 1489   6.041   6.222  10.580  0.1748  0.0259 -0.0305
   94loPI    C2 1490   6.030   6.522  10.316 -0.1336 -0.1567 -0.2331
   94loPI    C3 1491   5.747   6.492  10.597  0.1615  0.0042  0.0896
   94loPI   PO4 1492   6.142   6.063  10.389 -0.4130  0.0064 -0.1980
   94loPI   GL1 1493   6.240   5.905   9.958 -0.1506 -0.2956  0.0418
   94loPI   GL2 1494   6.277   5.602   9.884 -0.0689 -0.0658  0.1081
   94loPI   C1A 1495   5.895   6.050   9.492  0.0126 -0.2855  0.3062
   94loPI   C2A 1496   5.604   6.315   9.262  0.1490  0.0028  0.0817
   94loPI   C3A 1497   5.170   6.468   9.007 -0.0624 -0.0697  0.3349
   94loPI   C4A 1498   5.098   6.407   8.566 -0.0204 -0.1049  0.0677
   94loPI   C5A 1499   5.154   6.441   8.107 -0.1904 -0.2263  0.0907
   94loPI   C6A 1500   4.997   6.350   7.742 -0.1393 -0.0872  0.0817
   94loPI   C1B 1501   6.190   5.670   9.487 -0.1613  0.0437 -0.0288
   94loPI   C2B 1502   6.396   5.672   9.115  0.1260  0.1009 -0.2453
   94loPI   C3B 1503   6.262   5.727   8.769 -0.3485  0.2072 -0.0759
   94loPI   C4B 1504   6.398   5.798   8.354 -0.2427  0.0039  0.2390
   95loPI    C1 1505  15.113   6.527  11.006 -0.0345 -0.1629 -0.0100
   95loPI    C2 1506  14.749   6.368  10.956 -0.1473  0.1044 -0.0565
   95loPI    C3 1507  14.900   6.412  11.324 -0.1127 -0.1126 -0.0436
   95loPI   PO4 1508  15.227   6.652  10.792 -0.0902  0.2638  0.1400
   95loPI   GL1 1509  15.210   6.625  10.262 -0.1139 -0.0249 -0.1871
   95loPI   GL2 1510  15.524   6.556  10.351 -0.0515 -0.1391 -0.1406
   95loPI   C1A 1511  15.130   6.991   9.982  0.1817 -0.1291 -0.0794
   95loPI   C2A 1512  15.217   7.001   9.546  0.1842  0.0566 -0.0906
   95loPI   C3A 1513  15.370   7.001   9.090  0.1243 -0.0356 -0.2779
   95loPI   C4A 1514  15.476   7.105   8.685 -0.3846  0.1343 -0.2720
   95loPI   C5A 1515  15.697   7.078   8.270  0.3485 -0.0413 -0.2545
   95loPI   C6A 1516  16.037   7.350   8.152  0.0703 -0.0641  0.0790
   95loPI   C1B 1517  15.581   6.600   9.834  0.0791  0.3431 -0.1754
   95loPI   C2B 1518  15.670   6.600   9.374  0.4906 -0.0442  0.2555
   95loPI   C3B 1519  15.713   6.656   8.915  0.1203  0.2526 -0.0874
   95loPI   C4B 1520  15.840   6.599   8.477 -0.0885  0.1455 -0.0089
   96loPI    C1 1521  10.995  11.848  10.563 -0.0136 -0.2352  0.0272
   96loPI    C2 1522  11.016  11.533  10.809 -0.1474  0.1161  0.5044
   96loPI    C3 1523  10.678  11.746  10.786 -0.0652  0.2170  0.1713
   96loPI   PO4 1524  11.100  11.848  10.364 -0.1347 -0.1907 -0.0229
   96loPI   GL1 1525  11.046  12.203   9.994  0.0519 -0.1705  0.3334
   96loPI   GL2 1526  11.141  12.454   9.965  0.0654 -0.1078 -0.0859
   96loPI   C1A 1527  11.332  12.151   9.690  0.3541 -0.1664 -0.0859
   96loPI   C2A 1528  11.295  12.254   9.272 -0.2196  0.0679 -0.0343
   96loPI   C3A 1529  11.310  12.454   8.837 -0.0924  0.0198 -0.1239
   96loPI   C4A 1530  11.262  12.512   8.382  0.0609  0.2175  0.0565
   96loPI   C5A 1531  11.299  12.431   8.012  0.2518  0.3138 -0.2630
   96loPI   C6A 1532  11.453  12.650   7.654  0.2939  0.1455 -0.0304
   96loPI   C1B 1533  10.958  12.521   9.564  0.2081 -0.1164 -0.0632
   96loPI   C2B 1534  10.899  12.598   9.106 -0.2598 -0.0995  0.1766
   96loPI   C3B 1535  10.917  12.733   8.740  0.1087 -0.1130 -0.1474
   96loPI   C4B 1536  10.774  12.782   8.328 -0.0113  0.2422  0.0510
   97loPI    C1 1537  12.829   3.638  10.549 -0.1999 -0.0645  0.1699
   97loPI    C2 1538  12.755   3.371  10.838 -0.1373 -0.2623  0.0054
   97loPI    C3 1539  13.132   3.446  10.727 -0.1591 -0.1603 -0.0009
   97loPI   PO4 1540  12.658   3.550  10.241  0.1259 -0.0372 -0.2245
   97loPI   GL1 1541  12.767   3.631   9.939 -0.1301  0.2312  0.2388
   97loPI   GL2 1542  12.807   3.308   9.810  0.0176 -0.0296  0.2153
   97loPI   C1A 1543  12.781   3.911   9.561  0.0451  0.2772 -0.0683
   97loPI   C2A 1544  12.569   3.967   9.085  0.2185  0.2491  0.0435
   97loPI   C3A 1545  12.568   4.016   8.671 -0.2042  0.1387  0.0805
   97loPI   C4A 1546  12.383   4.200   8.359 -0.0451  0.1416  0.1716
   97loPI   C5A 1547  12.048   4.180   8.036 -0.1837 -0.0864  0.0074
   97loPI   C6A 1548  11.723   3.765   7.986 -0.1615 -0.0656  0.1135
   97loPI   C1B 1549  12.792   3.225   9.450  0.0272  0.1676 -0.3315
   97loPI   C2B 1550  12.652   3.040   9.056  0.0871 -0.0403  0.0028
   97loPI   C3B 1551  12.687   3.119   8.675  0.1368  0.1678  0.0562
   97loPI   C4B 1552  12.854   3.111   8.191 -0.0432  0.0740  0.1526
   98loPI    C1 1553  15.939   3.927  10.445 -0.0051 -0.3387  0.2155
   98loPI    C2 1554  16.106   4.284  10.513 -0.2844 -0.1449 -0.0866
   98loPI    C3 1555  16.207   3.970  10.739 -0.0464  0.1262  0.1928
   98loPI   PO4 1556  15.941   3.916  10.174 -0.1143  0.0945  0.3736
   98loPI   GL1 1557  15.946   3.738   9.862 -0.1103  0.3046 -0.1329
   98loPI   GL2 1558  15.926   3.411   9.956 -0.1286 -0.0155  0.3126
   98loPI   C1A 1559  15.970   3.817   9.439  0.0307  0.3577 -0.2527
   98loPI   C2A 1560  16.003   3.871   8.956 -0.0795 -0.1135  0.1280
   98loPI   C3A 1561  15.993   4.047   8.538  0.1340  0.2292  0.0642
   98loPI   C4A 1562  16.062   3.993   8.158  0.0692  0.0435 -0.2065
   98loPI   C5A 1563  16.016   3.797   7.920  0.0753 -0.2391  0.0157
   98loPI   C6A 1564  16.067   3.358   7.729  0.0107 -0.2642 -0.0801
   98loPI   C1B 1565  15.825   3.321   9.547  0.0222 -0.1261 -0.4409
   98loPI   C2B 1566  15.910   3.279   9.171 -0.0328 -0.1775  0.1666
   98loPI   C3B 1567  15.915   3.401   8.778  0.1936 -0.1546  0.0123
   98loPI   C4B 1568  15.924   3.514   8.293 -0.4331  0.0307  0.0361
   99loPI    C1 1569  13.961  15.452  11.062 -0.1893  0.3599 -0.0942
   99loPI    C2 1570  13.574  15.541  11.022 -0.2758  0.0300 -0.0199
   99loPI    C3 1571  13.694  15.301  11.318 -0.0202  0.0883 -0.0739
   99loPI   PO4 1572  14.080  15.448  10.815  0.3953 -0.1052  0.1333
   99loPI   GL1 1573  14.129  15.341  10.440  0.1622  0.2519 -0.1869
   99loPI   GL2 1574  14.079  15.074  10.272  0.1242 -0.1763  0.1200
   99loPI   C1A 1575  14.348  15.657  10.080  0.0477  0.3055 -0.2140
   99loPI   C2A 1576  14.234  15.664   9.625  0.0197  0.2989 -0.1060
   99loPI   C3A 1577  14.273  15.666   9.223  0.0729 -0.1878  0.0594
   99loPI   C4A 1578  14.338  15.722   8.781  0.0890 -0.0718  0.0056
   99loPI   C5A 1579  14.135  15.793   8.433 -0.2479 -0.0558  0.1548
   99loPI   C6A 1580  13.686  15.943   8.424  0.2305  0.0607 -0.1239
   99loPI   C1B 1581  14.086  15.076   9.795  0.1626  0.1784  0.2676
   99loPI   C2B 1582  14.088  15.075   9.390 -0.1503 -0.0168 -0.1966
   99loPI   C3B 1583  14.190  15.227   9.013  0.0475  0.3079  0.0328
   99loPI   C4B 1584  14.286  15.173   8.590  0.0358 -0.1164 -0.0555
  100loPI    C1 1585  11.085  10.773  10.222  0.1682  0.1443  0.1583
  100loPI    C2 1586  11.106  10.506  10.519 -0.1615 -0.1095 -0.0390
  100loPI    C3 1587  10.893  10.842  10.567 -0.0585 -0.0596  0.0758
  100loPI   PO4 1588  11.309  10.873  10.126  0.0132 -0.0812 -0.0190
  100loPI   GL1 1589  11.114  11.154   9.823  0.2448  0.1594  0.1802
  100loPI   GL2 1590  11.438  11.222   9.766  0.2600 -0.0461  0.0192
  100loPI   C1A 1591  10.970  11.079   9.478 -0.0688 -0.0730  0.1338
  100loPI   C2A 1592  10.848  11.256   9.147  0.0784  0.0594  0.1091
  100loPI   C3A 1593  11.056  11.280   8.798 -0.0366 -0.0397  0.1405
  100loPI   C4A 1594  11.428  11.554   8.573  0.0610  0.0836 -0.1402
  100loPI   C5A 1595  11.833  11.650   8.549 -0.1785  0.1359  0.0880
  100loPI   C6A 1596  12.069  11.498   8.929 -0.2045 -0.1766  0.0432
  100loPI   C1B 1597  11.465  11.207   9.326  0.3299  0.3345  0.1575
  100loPI   C2B 1598  11.614  11.288   8.941 -0.0130  0.0455 -0.1806
  100loPI   C3B 1599  11.598  11.134   8.438  0.0888 -0.0806 -0.1845
  100loPI   C4B 1600  11.503  11.463   8.113 -0.2224 -0.0975 -0.1226
  101loPI    C1 1601  16.283   7.464  11.161 -0.1184 -0.1444 -0.0239
  101loPI    C2 1602  16.327   7.726  11.461 -0.1471  0.0861 -0.2175
  101loPI    C3 1603  15.989   7.515  11.428 -0.0803 -0.0587  0.0021
  101loPI   PO4 1604  16.427   7.565  10.947  0.1649 -0.3272  0.0792
  101loPI   GL1 1605  16.483   7.448  10.438 -0.0124  0.1414  0.1006
  101loPI   GL2 1606  16.318   7.800  10.430  0.0130 -0.3435 -0.1144
  101loPI   C1A 1607  16.649   7.322  10.063  0.1487  0.1157 -0.0988
  101loPI   C2A 1608  16.705   7.438   9.572  0.0928 -0.2700 -0.2487
  101loPI   C3A 1609  16.850   7.368   9.118 -0.0832  0.0034  0.1226
  101loPI   C4A 1610  16.842   7.490   8.668 -0.0658  0.1225 -0.0130
  101loPI   C5A 1611  16.612   7.507   8.305 -0.4091 -0.1932 -0.0664
  101loPI   C6A 1612  16.506   7.271   7.973  0.0510  0.1223  0.1856
  101loPI   C1B 1613  16.315   7.718   9.945  0.1643 -0.0947  0.2272
  101loPI   C2B 1614  16.361   7.735   9.577  0.0099  0.0916  0.1325
  101loPI   C3B 1615  16.376   7.786   9.236 -0.1161 -0.1518 -0.1337
  101loPI   C4B 1616  16.473   7.800   8.898 -0.2814  0.3900 -0.2028
  102loPI    C1 1617   1.993   0.453  10.990 -0.1028  0.0663  0.0915
  102loPI    C2 1618   2.036   0.289  11.353 -0.1168 -0.1914 -0.0209
  102loPI    C3 1619   1.868   0.650  11.315 -0.0925 -0.1517  0.2301
  102loPI   PO4 1620   1.927   0.234  10.774 -0.1675 -0.2203 -0.3011
  102loPI   GL1 1621   1.925   0.243  10.318 -0.0494  0.0641 -0.0919
  102loPI   GL2 1622   1.756   0.054  10.061  0.0096  0.0319  0.0091
  102loPI   C1A 1623   2.203   0.181   9.842  0.1813  0.0394 -0.3667
  102loPI   C2A 1624   2.092   0.086   9.435 -0.0337 -0.2095  0.2783
  102loPI   C3A 1625   2.116   0.009   9.051 -0.1259  0.1960  0.1803
  102loPI   C4A 1626   2.182   0.019   8.629 -0.0572  0.1683  0.1576
  102loPI   C5A 1627   2.074  -0.155   8.153  0.0443 -0.0051 -0.0859
  102loPI   C6A 1628   1.716  -0.309   8.085 -0.2066 -0.2476  0.0058
  102loPI   C1B 1629   1.604  -0.062   9.667  0.1492  0.0007  0.0049
  102loPI   C2B 1630   1.578  -0.114   9.402  0.0010 -0.0873 -0.2721
  102loPI   C3B 1631   1.696  -0.190   9.037  0.6239  0.2819 -0.2115
  102loPI   C4B 1632   1.785  -0.261   8.543  0.1687  0.0037  0.1314
  103loPI    C1 1633  12.436  15.997  10.948 -0.1555 -0.1346  0.0417
  103loPI    C2 1634  12.628  16.348  10.963  0.0909 -0.2590 -0.1298
  103loPI    C3 1635  12.229  16.338  10.983  0.0882  0.0199  0.0081
  103loPI   PO4 1636  12.637  15.806  10.706  0.0222 -0.2857 -0.0879
  103loPI   GL1 1637  12.716  15.891  10.344  0.3466 -0.2259  0.0468
  103loPI   GL2 1638  12.330  16.061  10.333 -0.1271 -0.1126 -0.2346
  103loPI   C1A 1639  12.921  15.773   9.946  0.0325 -0.0914 -0.1965
  103loPI   C2A 1640  12.974  15.691   9.461  0.0213 -0.2935 -0.0380
  103loPI   C3A 1641  12.853  15.695   8.978 -0.2405  0.2149  0.2805
  103loPI   C4A 1642  12.728  15.638   8.473 -0.4657 -0.0140  0.3135
  103loPI   C5A 1643  12.830  15.576   8.156  0.3386  0.0597 -0.0882
  103loPI   C6A 1644  13.080  15.283   8.021  0.1787 -0.1774 -0.2636
  103loPI   C1B 1645  12.501  16.122   9.936 -0.0172 -0.0614 -0.0252
  103loPI   C2B 1646  12.666  16.027   9.524  0.1124 -0.1567  0.2532
  103loPI   C3B 1647  12.477  16.063   9.130  0.0400  0.0585 -0.0386
  103loPI   C4B 1648  12.436  15.974   8.745  0.2739 -0.3595  0.1098
  104loPI    C1 1649   1.465  13.784  10.883  0.2456  0.2348  0.0436
  104loPI    C2 1650   1.536  13.592  11.227  0.1175  0.1364  0.0159
  104loPI    C3 1651   1.169  13.731  11.147  0.0844 -0.0635 -0.1905
  104loPI   PO4 1652   1.582  13.600  10.701  0.0324  0.1446 -0.0321
  104loPI   GL1 1653   1.665  13.585  10.255  0.0309  0.1100  0.2024
  104loPI   GL2 1654   1.313  13.697  10.218  0.0231 -0.0153 -0.1626
  104loPI   C1A 1655   1.691  13.650   9.886  0.1307 -0.0745  0.1042
  104loPI   C2A 1656   1.690  13.746   9.426  0.0815 -0.0337 -0.1980
  104loPI   C3A 1657   1.633  13.806   9.012  0.1309 -0.0677 -0.2021
  104loPI   C4A 1658   1.702  13.698   8.554 -0.3458 -0.0516 -0.0498
  104loPI   C5A 1659   2.142  13.540   8.369  0.0272  0.0326 -0.1722
  104loPI   C6A 1660   2.621  13.622   8.327 -0.1044 -0.2045 -0.0959
  104loPI   C1B 1661   1.142  13.546   9.882  0.3719  0.1490  0.1636
  104loPI   C2B 1662   1.171  13.620   9.464  0.0458  0.1891 -0.2941
  104loPI   C3B 1663   1.138  13.640   9.030 -0.0502 -0.3092 -0.1590
  104loPI   C4B 1664   1.105  13.864   8.584 -0.1502  0.2770 -0.0239
  105loPI    C1 1665  13.561   2.052  10.824 -0.0989 -0.0609 -0.0406
  105loPI    C2 1666  13.170   2.045  10.740 -0.0782 -0.0686 -0.1368
  105loPI    C3 1667  13.327   1.769  10.983 -0.1509 -0.0045 -0.0163
  105loPI   PO4 1668  13.623   2.012  10.608 -0.0076 -0.2617  0.1050
  105loPI   GL1 1669  13.743   1.915  10.208  0.1351  0.1893 -0.0532
  105loPI   GL2 1670  13.637   1.572   9.985  0.0737 -0.1668  0.3623
  105loPI   C1A 1671  13.776   2.024   9.741 -0.0786 -0.1691  0.2568
  105loPI   C2A 1672  13.744   2.054   9.286  0.1882  0.0094  0.1205
  105loPI   C3A 1673  13.886   1.998   8.811  0.0266 -0.3195 -0.0451
  105loPI   C4A 1674  13.928   1.991   8.360 -0.1195  0.3173 -0.1625
  105loPI   C5A 1675  14.129   2.034   8.013 -0.1947 -0.2839  0.3122
  105loPI   C6A 1676  14.403   2.003   7.588 -0.0781  0.0664  0.2736
  105loPI   C1B 1677  13.687   1.524   9.500 -0.1192 -0.0144 -0.0521
  105loPI   C2B 1678  13.784   1.590   9.088 -0.0373  0.2847 -0.2575
  105loPI   C3B 1679  13.732   1.554   8.674 -0.1648 -0.2359  0.0353
  105loPI   C4B 1680  13.799   1.545   8.265  0.2588 -0.2261 -0.6378
  106loPI    C1 1681  12.993  13.721  11.076 -0.1158  0.0468  0.2635
  106loPI    C2 1682  13.281  13.450  11.015  0.0519  0.2851 -0.0329
  106loPI    C3 1683  13.159  13.532  11.387  0.1131 -0.0752  0.0709
  106loPI   PO4 1684  13.019  13.944  10.827 -0.0931 -0.2446 -0.1472
  106loPI   GL1 1685  12.966  13.866  10.346 -0.0573 -0.2952 -0.1577
  106loPI   GL2 1686  13.193  14.005  10.344  0.0498  0.1011  0.1177
  106loPI   C1A 1687  12.946  13.791   9.914  0.0145  0.3641  0.0370
  106loPI   C2A 1688  13.000  13.861   9.520 -0.1965  0.4451  0.1881
  106loPI   C3A 1689  12.939  13.817   9.083 -0.0828  0.1763  0.3239
  106loPI   C4A 1690  13.024  13.880   8.691  0.4128  0.4607  0.1524
  106loPI   C5A 1691  12.776  13.821   8.241  0.1751 -0.0612  0.1649
  106loPI   C6A 1692  12.766  13.992   7.833  0.2224  0.0189  0.1804
  106loPI   C1B 1693  13.434  13.996   9.963 -0.0782  0.1108 -0.0957
  106loPI   C2B 1694  13.497  14.047   9.521  0.0621  0.0641  0.0894
  106loPI   C3B 1695  13.469  14.028   9.126 -0.0343  0.1228  0.0432
  106loPI   C4B 1696  13.596  13.990   8.674  0.0338  0.1290 -0.1596
  107loPI    C1 1697  17.803   3.187  11.030  0.0665  0.0525 -0.1610
  107loPI    C2 1698  17.719   3.001  11.374 -0.1082  0.0449 -0.2066
  107loPI    C3 1699  17.556   3.357  11.294  0.2323  0.2259 -0.1158
  107loPI   PO4 1700  17.895   2.927  10.870  0.5557 -0.0352  0.1657
  107loPI   GL1 1701  17.873   2.819  10.478  0.1675 -0.2056  0.0639
  107loPI   GL2 1702  17.998   2.485  10.387 -0.0190  0.1175 -0.2116
  107loPI   C1A 1703  17.977   2.890  10.043 -0.1174  0.4210  0.0302
  107loPI   C2A 1704  17.845   3.012   9.662  0.0014 -0.0793  0.0775
  107loPI   C3A 1705  17.699   3.020   9.254  0.2291  0.1478 -0.0619
  107loPI   C4A 1706  17.699   2.981   8.799  0.2566 -0.1906  0.0101
  107loPI   C5A 1707  17.704   3.054   8.368  0.2424  0.0691  0.0398
  107loPI   C6A 1708  17.911   3.104   7.967  0.1212  0.1057 -0.4408
  107loPI   C1B 1709  17.913   2.437   9.922 -0.1381 -0.1222  0.0778
  107loPI   C2B 1710  17.939   2.485   9.503 -0.0422  0.2761 -0.1291
  107loPI   C3B 1711  18.048   2.677   9.156  0.0053 -0.1956 -0.2822
  107loPI   C4B 1712  18.111   2.699   8.743 -0.1398 -0.0427 -0.0844
  108loPI    C1 1713   1.313   6.541  11.018 -0.0325  0.3045  0.1208
  108loPI    C2 1714   1.114   6.275  11.241 -0.1122  0.1704 -0.1074
  108loPI    C3 1715   1.354   6.543  11.416 -0.0873 -0.0042  0.1300
  108loPI   PO4 1716   1.119   6.454  10.741 -0.1806  0.0171  0.0641
  108loPI   GL1 1717   1.153   6.539  10.315  0.1211  0.3764 -0.0462
  108loPI   GL2 1718   0.875   6.710  10.192 -0.0291  0.0834 -0.0351
  108loPI   C1A 1719   1.131   6.354   9.962  0.1116 -0.3780  0.3278
  108loPI   C2A 1720   0.979   6.328   9.557  0.0164 -0.1971 -0.0451
  108loPI   C3A 1721   1.090   6.367   9.087 -0.1653  0.0943 -0.3193
  108loPI   C4A 1722   1.051   6.454   8.628  0.1557 -0.1350  0.0837
  108loPI   C5A 1723   1.150   6.308   8.225  0.1886  0.4030  0.0875
  108loPI   C6A 1724   1.578   6.284   7.889  0.2131  0.0670 -0.2118
  108loPI   C1B 1725   0.668   6.606   9.816  0.0800  0.1731 -0.0358
  108loPI   C2B 1726   0.637   6.716   9.412 -0.2121 -0.0946  0.4085
  108loPI   C3B 1727   0.641   6.667   8.991 -0.0981  0.1782  0.1658
  108loPI   C4B 1728   0.683   6.750   8.590 -0.0428 -0.0355 -0.0301
  109loPI    C1 1729   7.154   4.050  10.361 -0.0094 -0.0974 -0.1646
  109loPI    C2 1730   7.373   3.797  10.580  0.0210  0.0622 -0.0084
  109loPI    C3 1731   7.177   4.097  10.757 -0.2144  0.0026 -0.1636
  109loPI   PO4 1732   6.989   3.967  10.210  0.0547 -0.1591 -0.0797
  109loPI   GL1 1733   6.982   3.878   9.821  0.1264  0.2631 -0.2087
  109loPI   GL2 1734   6.836   3.751   9.602  0.0544  0.0354 -0.1719
  109loPI   C1A 1735   7.172   4.048   9.412 -0.2177 -0.0399  0.1180
  109loPI   C2A 1736   7.103   4.037   8.989 -0.0588 -0.2409 -0.2204
  109loPI   C3A 1737   7.092   4.074   8.512  0.0465  0.3671  0.1648
  109loPI   C4A 1738   7.170   3.879   8.100  0.0126 -0.2828  0.1208
  109loPI   C5A 1739   7.464   4.029   7.738  0.3976 -0.5739 -0.1154
  109loPI   C6A 1740   7.662   4.200   7.402 -0.1229 -0.0383  0.2879
  109loPI   C1B 1741   6.688   3.873   9.203  0.1048  0.0589  0.0917
  109loPI   C2B 1742   6.641   3.866   8.773  0.0826 -0.1072  0.1206
  109loPI   C3B 1743   6.574   3.991   8.443 -0.0391 -0.0748  0.3914
  109loPI   C4B 1744   6.535   3.848   8.067  0.3198 -0.0306 -0.0339
  110loPI    C1 1745  15.398  10.207  11.332  0.1094 -0.2588 -0.0118
  110loPI    C2 1746  15.711  10.320  11.110 -0.0075 -0.0618 -0.0786
  110loPI    C3 1747  15.712  10.384  11.505 -0.0314  0.0881 -0.1021
  110loPI   PO4 1748  15.171  10.297  11.244 -0.0709 -0.2700  0.1946
  110loPI   GL1 1749  15.218  10.070  10.809  0.0820  0.1742  0.1775
  110loPI   GL2 1750  14.873  10.231  10.819 -0.3021  0.1866 -0.3113
  110loPI   C1A 1751  15.404  10.221  10.520  0.2854  0.3102  0.1456
  110loPI   C2A 1752  15.449  10.362  10.103 -0.1191 -0.0113 -0.2041
  110loPI   C3A 1753  15.671  10.452   9.687  0.1189  0.2027  0.0423
  110loPI   C4A 1754  15.670  10.402   9.239  0.3453  0.0077  0.2596
  110loPI   C5A 1755  15.503  10.446   8.787  0.0421 -0.2911 -0.0644
  110loPI   C6A 1756  15.220  10.679   8.606 -0.2105 -0.0833  0.1664
  110loPI   C1B 1757  14.928  10.086  10.381 -0.1220  0.3119 -0.1825
  110loPI   C2B 1758  15.042  10.216   9.980  0.4216 -0.2807 -0.0682
  110loPI   C3B 1759  15.101  10.270   9.676  0.0961 -0.0586  0.3468
  110loPI   C4B 1760  15.088  10.200   9.240 -0.2387  0.2948  0.0289
  111loPI    C1 1761   7.244   2.649  10.445 -0.2488  0.1839  0.2112
  111loPI    C2 1762   7.330   2.611  10.834  0.1095 -0.0680  0.1128
  111loPI    C3 1763   7.484   2.915  10.623 -0.0358  0.0341  0.1523
  111loPI   PO4 1764   7.236   2.385  10.383 -0.0325 -0.1241 -0.0970
  111loPI   GL1 1765   7.577   2.210  10.048 -0.2304 -0.2257 -0.1153
  111loPI   GL2 1766   7.323   2.398   9.866 -0.1161 -0.3276  0.2336
  111loPI   C1A 1767   7.854   2.243   9.692  0.0140 -0.0702  0.0130
  111loPI   C2A 1768   7.884   2.259   9.187 -0.0694 -0.1418 -0.0052
  111loPI   C3A 1769   7.948   2.179   8.717 -0.0825  0.2271  0.0132
  111loPI   C4A 1770   7.750   2.122   8.349  0.1812  0.0522  0.2754
  111loPI   C5A 1771   7.273   2.123   8.255 -0.1736  0.1086  0.0962
  111loPI   C6A 1772   7.023   2.259   7.934 -0.0851  0.0338  0.0857
  111loPI   C1B 1773   7.386   2.337   9.354  0.1324 -0.4426 -0.1724
  111loPI   C2B 1774   7.486   2.132   8.957  0.1888 -0.1345 -0.1168
  111loPI   C3B 1775   7.528   1.806   8.677 -0.3235  0.0394  0.2278
  111loPI   C4B 1776   7.530   1.642   8.277  0.2544  0.5290  0.0399
  112loPI    C1 1777  13.645  17.359  10.747 -0.0826  0.0482  0.1798
  112loPI    C2 1778  13.933  17.629  10.684 -0.1799  0.1267  0.0667
  112loPI    C3 1779  13.680  17.675  10.990 -0.1418  0.1166  0.0998
  112loPI   PO4 1780  13.502  17.324  10.496 -0.1036 -0.0962 -0.1483
  112loPI   GL1 1781  13.641  17.514  10.147  0.2311 -0.2094 -0.1594
  112loPI   GL2 1782  13.895  17.711  10.175  0.0286  0.1309  0.3044
  112loPI   C1A 1783  13.686  17.412   9.760 -0.2456  0.0645  0.3271
  112loPI   C2A 1784  13.769  17.358   9.324  0.2133  0.2324  0.0334
  112loPI   C3A 1785  13.725  17.327   8.915 -0.1635 -0.0656 -0.0956
  112loPI   C4A 1786  13.798  17.239   8.525 -0.2894  0.0301 -0.1672
  112loPI   C5A 1787  13.695  17.001   8.029  0.3205  0.0156  0.1373
  112loPI   C6A 1788  13.791  16.611   7.952 -0.1386  0.2852  0.4760
  112loPI   C1B 1789  13.843  17.882   9.690  0.2263  0.1371  0.2197
  112loPI   C2B 1790  13.783  17.970   9.256  0.2544 -0.0485 -0.3278
  112loPI   C3B 1791  13.721  17.901   8.874  0.0140  0.1661  0.0950
  112loPI   C4B 1792  13.777  17.712   8.501 -0.0848  0.3167  0.1261
  113loPI    C1 1793  10.863   1.956  10.410  0.0856  0.0236 -0.1791
  113loPI    C2 1794  11.247   2.000  10.513  0.0149  0.2555 -0.0066
  113loPI    C3 1795  10.972   2.257  10.649 -0.2199  0.0256 -0.0373
  113loPI   PO4 1796  10.858   1.892  10.122  0.0424  0.0244 -0.2379
  113loPI   GL1 1797  10.813   1.907   9.777  0.3938 -0.1176  0.1429
  113loPI   GL2 1798  10.537   2.077   9.765 -0.0814 -0.2439  0.0574
  113loPI   C1A 1799  10.961   1.684   9.381  0.2151  0.1611 -0.1445
  113loPI   C2A 1800  10.986   1.650   8.872 -0.4255  0.0462  0.2425
  113loPI   C3A 1801  11.112   1.646   8.416  0.1277 -0.3846  0.0236
  113loPI   C4A 1802  11.036   1.602   7.907 -0.0064  0.2312 -0.0414
  113loPI   C5A 1803  11.357   1.391   7.602  0.0915  0.3618 -0.0664
  113loPI   C6A 1804  11.711   1.193   7.793  0.1385 -0.0310 -0.4689
  113loPI   C1B 1805  10.627   2.041   9.333  0.2138 -0.5371 -0.1500
  113loPI   C2B 1806  10.694   2.040   8.918  0.0527 -0.1066 -0.0982
  113loPI   C3B 1807  10.722   2.062   8.415 -0.1637  0.0929 -0.0715
  113loPI   C4B 1808  10.603   1.886   7.970  0.2264  0.3174 -0.0137
  114loPI    C1 1809  11.800  18.190  10.734  0.1195 -0.0535 -0.0799
  114loPI    C2 1810  11.794  17.835  10.918 -0.1207 -0.1854 -0.3347
  114loPI    C3 1811  11.967  18.149  11.095 -0.1933 -0.3501  0.0370
  114loPI   PO4 1812  11.876  18.149  10.494 -0.0583  0.0603 -0.1489
  114loPI   GL1 1813  12.189  18.020  10.148 -0.2110  0.2843  0.2082
  114loPI   GL2 1814  12.130  17.719  10.045  0.2265  0.0756  0.0175
  114loPI   C1A 1815  12.416  17.888   9.728 -0.0357 -0.1953  0.1761
  114loPI   C2A 1816  12.480  17.875   9.291 -0.0660 -0.3020  0.0399
  114loPI   C3A 1817  12.477  17.970   8.906  0.1904 -0.2317 -0.1021
  114loPI   C4A 1818  12.468  17.952   8.481 -0.1788  0.0141  0.1674
  114loPI   C5A 1819  12.492  18.278   8.140  0.0894 -0.2304  0.0555
  114loPI   C6A 1820  12.717  18.650   8.006  0.1997  0.0221  0.1532
  114loPI   C1B 1821  11.951  17.736   9.588  0.0791  0.0368  0.0524
  114loPI   C2B 1822  12.005  17.720   9.142 -0.0909 -0.2828 -0.3202
  114loPI   C3B 1823  11.905  17.829   8.699  0.3467 -0.0860 -0.0784
  114loPI   C4B 1824  11.994  17.888   8.271  0.0380  0.3992  0.1775
  115loPI    C1 1825   8.742  12.051  10.789 -0.1493 -0.0420  0.1554
  115loPI    C2 1826   8.822  12.172  11.162  0.1866  0.2624 -0.0092
  115loPI    C3 1827   8.740  12.441  10.878 -0.0655  0.0327 -0.1589
  115loPI   PO4 1828   8.559  11.927  10.741 -0.0218 -0.0525 -0.0500
  115loPI   GL1 1829   8.361  11.919  10.336  0.0276  0.1277  0.2478
  115loPI   GL2 1830   8.439  11.642  10.257 -0.0642  0.1441  0.2322
  115loPI   C1A 1831   8.391  11.887   9.842 -0.2041 -0.1649  0.3638
  115loPI   C2A 1832   8.355  11.949   9.393  0.1407 -0.1013  0.0460
  115loPI   C3A 1833   8.272  11.969   8.939  0.1138  0.1060 -0.2156
  115loPI   C4A 1834   8.293  11.939   8.549 -0.2324 -0.2700 -0.0896
  115loPI   C5A 1835   8.244  11.631   8.127 -0.3437 -0.0609 -0.2764
  115loPI   C6A 1836   8.215  11.320   7.865 -0.1405 -0.0937  0.3508
  115loPI   C1B 1837   8.174  11.456   9.876  0.0199 -0.2377  0.0046
  115loPI   C2B 1838   8.265  11.468   9.520 -0.0479 -0.1608 -0.3629
  115loPI   C3B 1839   8.169  11.489   9.069 -0.3183 -0.2381  0.0975
  115loPI   C4B 1840   8.118  11.514   8.665 -0.0696 -0.1258 -0.0884
  116loPI    C1 1841  16.700  13.922  10.676  0.1091  0.0842  0.0548
  116loPI    C2 1842  16.332  13.824  10.799  0.0990 -0.0249 -0.0605
  116loPI    C3 1843  16.639  13.806  11.054  0.0115  0.1480  0.0589
  116loPI   PO4 1844  16.778  13.886  10.453  0.0363  0.0806 -0.0038
  116loPI   GL1 1845  16.808  14.120  10.104 -0.3618  0.1867  0.2476
  116loPI   GL2 1846  17.117  14.225  10.290 -0.0091  0.0671  0.1601
  116loPI   C1A 1847  16.911  14.136   9.704 -0.2258 -0.1031 -0.0536
  116loPI   C2A 1848  16.826  14.171   9.274 -0.1285  0.0207 -0.1355
  116loPI   C3A 1849  16.801  14.185   8.859 -0.1076  0.0246 -0.2332
  116loPI   C4A 1850  16.890  14.179   8.496  0.1570  0.0346 -0.0293
  116loPI   C5A 1851  16.715  14.267   8.108  0.1221 -0.0859  0.0416
  116loPI   C6A 1852  16.326  14.269   7.814 -0.1079 -0.1340 -0.0903
  116loPI   C1B 1853  17.342  14.290   9.887 -0.3199  0.1474  0.0197
  116loPI   C2B 1854  17.330  14.288   9.416  0.0238  0.0887  0.0778
  116loPI   C3B 1855  17.263  14.261   8.982  0.0877 -0.0587 -0.0219
  116loPI   C4B 1856  17.456  14.318   8.584 -0.5525 -0.0620  0.0448
  117loPI    C1 1857   1.757   8.072  11.028  0.0393  0.0005 -0.0284
  117loPI    C2 1858   2.084   8.277  10.920  0.0887 -0.0792 -0.0308
  117loPI    C3 1859   2.034   8.167  11.301  0.1961 -0.3002 -0.0791
  117loPI   PO4 1860   1.604   8.126  10.842 -0.1001  0.2021  0.2086
  117loPI   GL1 1861   1.678   8.289  10.459 -0.1980 -0.0354  0.3341
  117loPI   GL2 1862   1.955   8.580  10.372  0.0080  0.0876  0.3516
  117loPI   C1A 1863   1.545   8.424  10.069  0.4273  0.0949  0.0177
  117loPI   C2A 1864   1.615   8.320   9.735 -0.0942  0.1189  0.2889
  117loPI   C3A 1865   1.678   8.311   9.294  0.0415 -0.0583  0.3026
  117loPI   C4A 1866   1.557   8.427   8.863  0.2431 -0.1803 -0.1435
  117loPI   C5A 1867   1.583   8.359   8.360  0.0642  0.0264 -0.3029
  117loPI   C6A 1868   1.885   8.209   8.028 -0.1352  0.1006 -0.3429
  117loPI   C1B 1869   2.040   8.555   9.888  0.1625 -0.4183 -0.1752
  117loPI   C2B 1870   2.074   8.538   9.399  0.0661  0.2350 -0.1128
  117loPI   C3B 1871   2.090   8.585   8.968 -0.2963 -0.0839  0.1803
  117loPI   C4B 1872   2.140   8.468   8.540 -0.0959 -0.1128 -0.0865
  118loPI    C1 1873   0.513   3.197  10.586  0.1338 -0.0407 -0.2089
  118loPI    C2 1874   0.785   3.077  10.853 -0.1891  0.0264  0.1597
  118loPI    C3 1875   0.663   3.458  10.850  0.0189  0.0954 -0.2767
  118loPI   PO4 1876   0.595   3.119  10.413  0.1145 -0.0020  0.1111
  118loPI   GL1 1877   0.871   3.001  10.167  0.3873  0.3172  0.0100
  118loPI   GL2 1878   1.062   2.789   9.935  0.1460  0.0368 -0.1278
  118loPI   C1A 1879   0.613   3.013   9.784 -0.0386 -0.1764  0.1133
  118loPI   C2A 1880   0.590   3.083   9.394  0.0058 -0.1188  0.2107
  118loPI   C3A 1881   0.580   3.287   9.008  0.3621 -0.0311 -0.1456
  118loPI   C4A 1882   0.455   3.324   8.659 -0.0996  0.1476  0.0929
  118loPI   C5A 1883   0.816   3.533   8.296 -0.2094  0.2219 -0.1720
  118loPI   C6A 1884   1.261   3.653   8.214 -0.4086 -0.0775  0.2180
  118loPI   C1B 1885   1.045   2.869   9.492 -0.0021  0.1744 -0.0757
  118loPI   C2B 1886   0.947   2.965   8.981  0.0326 -0.0745  0.2339
  118loPI   C3B 1887   0.801   2.957   8.650 -0.0231  0.1038 -0.1266
  118loPI   C4B 1888   0.604   3.071   8.265 -0.1172  0.4397  0.0726
  119loPI    C1 1889   8.016   0.919  10.008 -0.1461 -0.0414 -0.1378
  119loPI    C2 1890   8.216   1.005  10.343 -0.2583  0.2649 -0.1462
  119loPI    C3 1891   8.098   0.629  10.271  0.1863  0.1055 -0.0751
  119loPI   PO4 1892   8.159   1.176   9.884  0.0363  0.0301  0.3550
  119loPI   GL1 1893   8.185   1.262   9.436  0.1255 -0.1064 -0.2450
  119loPI   GL2 1894   8.081   0.895   9.491 -0.0451 -0.1825 -0.2734
  119loPI   C1A 1895   8.222   1.231   9.027  0.0533  0.2445 -0.0062
  119loPI   C2A 1896   8.229   1.246   8.557  0.3418  0.0628  0.2081
  119loPI   C3A 1897   8.217   1.257   8.126 -0.1137  0.2112  0.0692
  119loPI   C4A 1898   7.844   1.356   7.941 -0.1545  0.0366 -0.2288
  119loPI   C5A 1899   7.698   1.809   7.824 -0.2412  0.2111 -0.0477
  119loPI   C6A 1900   7.462   2.154   7.776  0.1171  0.3478 -0.1301
  119loPI   C1B 1901   8.073   0.775   9.069  0.1308 -0.0876  0.0397
  119loPI   C2B 1902   8.073   0.822   8.692 -0.2009 -0.0110  0.0816
  119loPI   C3B 1903   8.105   0.734   8.217 -0.0767  0.2504  0.1195
  119loPI   C4B 1904   8.215   0.509   7.818  0.3423  0.3999  0.1166
  120loPI    C1 1905  16.683   5.360  10.733  0.0490 -0.0012 -0.1844
  120loPI    C2 1906  16.391   5.260  10.988 -0.0700  0.2932 -0.2015
  120loPI    C3 1907  16.728   5.425  11.125  0.0618  0.0197 -0.1893
  120loPI   PO4 1908  16.667   5.111  10.543  0.1482 -0.4461 -0.0131
  120loPI   GL1 1909  16.926   5.057  10.189  0.0726  0.2252  0.2555
  120loPI   GL2 1910  16.832   4.720  10.050  0.0151  0.1275 -0.3148
  120loPI   C1A 1911  17.237   5.160   9.785  0.1999 -0.0131 -0.0888
  120loPI   C2A 1912  17.183   5.114   9.371 -0.1617 -0.2926  0.0713
  120loPI   C3A 1913  17.217   5.140   9.024 -0.1865  0.1608 -0.0920
  120loPI   C4A 1914  17.311   5.264   8.589  0.3366  0.2783 -0.4408
  120loPI   C5A 1915  17.388   5.286   8.201  0.2221 -0.3791  0.1288
  120loPI   C6A 1916  17.312   5.199   7.750 -0.2755 -0.0551 -0.1003
  120loPI   C1B 1917  17.132   4.704   9.823  0.0970 -0.0567  0.2888
  120loPI   C2B 1918  17.010   4.620   9.401  0.0899 -0.1317  0.1258
  120loPI   C3B 1919  17.154   4.662   9.019  0.1324  0.0146 -0.0594
  120loPI   C4B 1920  17.159   4.788   8.594  0.2915  0.2562 -0.1980
  121loPI    C1 1921  13.543   0.469  10.621  0.1007  0.0367 -0.0634
  121loPI    C2 1922  13.211   0.591  10.808  0.1136  0.0717 -0.0631
  121loPI    C3 1923  13.435   0.300  10.967  0.1638  0.1514  0.0130
  121loPI   PO4 1924  13.719   0.651  10.468  0.0008  0.1794  0.0168
  121loPI   GL1 1925  13.939   0.625  10.111 -0.1443 -0.3835 -0.0116
  121loPI   GL2 1926  14.292   0.413  10.012 -0.1782  0.0267 -0.0760
  121loPI   C1A 1927  14.010   0.664   9.740 -0.1818 -0.0267  0.0574
  121loPI   C2A 1928  13.953   0.742   9.327 -0.0610  0.0747  0.1357
  121loPI   C3A 1929  14.074   0.809   9.009 -0.2497 -0.2855  0.2661
  121loPI   C4A 1930  14.066   0.806   8.601 -0.2231  0.2162 -0.1995
  121loPI   C5A 1931  14.094   0.949   8.155  0.4749 -0.1124 -0.0048
  121loPI   C6A 1932  14.269   0.800   7.735  0.0479 -0.0832 -0.1580
  121loPI   C1B 1933  14.421   0.403   9.497 -0.3200  0.0850 -0.0868
  121loPI   C2B 1934  14.395   0.441   9.040 -0.1535  0.0121  0.0533
  121loPI   C3B 1935  14.336   0.345   8.635 -0.0233  0.1295  0.1051
  121loPI   C4B 1936  14.386   0.570   8.188 -0.0460  0.2274 -0.0159
  122loPI    C1 1937   6.784  13.262  10.564 -0.0028 -0.3980  0.0744
  122loPI    C2 1938   6.735  13.499  10.882 -0.0316 -0.1208 -0.1332
  122loPI    C3 1939   6.645  13.110  10.907 -0.2313 -0.0602  0.1359
  122loPI   PO4 1940   6.877  13.352  10.436  0.0877  0.0567  0.1171
  122loPI   GL1 1941   7.012  13.683  10.324 -0.0334 -0.3886  0.1334
  122loPI   GL2 1942   7.272  13.645  10.259 -0.4421  0.2839  0.2460
  122loPI   C1A 1943   6.850  13.814   9.912 -0.1394  0.0293 -0.1400
  122loPI   C2A 1944   6.904  13.800   9.497  0.0437  0.0729 -0.1931
  122loPI   C3A 1945   6.882  13.994   9.069  0.3428  0.0629 -0.0166
  122loPI   C4A 1946   6.871  13.997   8.638 -0.0334  0.0092  0.0955
  122loPI   C5A 1947   6.966  14.039   8.230 -0.0948 -0.0873 -0.1990
  122loPI   C6A 1948   6.956  13.677   7.924  0.0760 -0.3600 -0.0299
  122loPI   C1B 1949   7.299  13.467   9.830  0.2531 -0.1995  0.1319
  122loPI   C2B 1950   7.287  13.532   9.392 -0.2760 -0.1888 -0.3636
  122loPI   C3B 1951   7.227  13.603   8.940 -0.2493 -0.2852  0.0799
  122loPI   C4B 1952   7.240  13.646   8.507  0.0300 -0.1250  0.0211
  123loPI    C1 1953  13.245   8.533  10.560  0.1931  0.2282  0.0852
  123loPI    C2 1954  13.103   8.199  10.727  0.1636  0.1642 -0.0667
  123loPI    C3 1955  13.477   8.318  10.805  0.1006  0.2160  0.1625
  123loPI   PO4 1956  13.249   8.510  10.319 -0.2157  0.0057 -0.2532
  123loPI   GL1 1957  13.402   8.401  10.025 -0.3803 -0.0853 -0.0709
  123loPI   GL2 1958  13.280   8.112   9.861  0.1913 -0.0466  0.1109
  123loPI   C1A 1959  13.635   8.441   9.669  0.2076 -0.0722 -0.0359
  123loPI   C2A 1960  13.606   8.495   9.207  0.0069  0.0655 -0.2956
  123loPI   C3A 1961  13.888   8.490   8.834 -0.0425 -0.1034 -0.0317
  123loPI   C4A 1962  13.798   8.453   8.446 -0.3824  0.0210  0.2194
  123loPI   C5A 1963  14.081   8.241   8.180  0.0639 -0.3225 -0.0408
  123loPI   C6A 1964  14.521   8.148   8.052  0.1009  0.2443  0.0374
  123loPI   C1B 1965  13.421   8.034   9.390 -0.0252 -0.0510 -0.3651
  123loPI   C2B 1966  13.596   8.003   9.008 -0.1152 -0.2245 -0.0444
  123loPI   C3B 1967  13.647   8.043   8.573 -0.2004  0.0670  0.2939
  123loPI   C4B 1968  13.332   8.020   8.205 -0.2281 -0.2198 -0.1182
  124loPI    C1 1969  18.028   7.259  11.242  0.1527  0.2600 -0.0106
  124loPI    C2 1970  17.810   7.424  10.950  0.0169  0.1525  0.0289
  124loPI    C3 1971  17.633   7.303  11.287  0.1741  0.2846  0.1610
  124loPI   PO4 1972  18.215   7.113  10.962 -0.0289 -0.2679  0.0048
  124loPI   GL1 1973  18.248   7.003  10.488 -0.0043  0.1718 -0.0141
  124loPI   GL2 1974  18.061   7.281  10.506 -0.0111  0.0249  0.4008
  124loPI   C1A 1975  17.999   6.855  10.190 -0.1288 -0.2492  0.1413
  124loPI   C2A 1976  18.068   6.689   9.829  0.1322 -0.1668 -0.3780
  124loPI   C3A 1977  18.006   6.840   9.376  0.0548 -0.0188 -0.0641
  124loPI   C4A 1978  18.069   6.947   8.866 -0.1649  0.4495 -0.1343
  124loPI   C5A 1979  18.034   7.111   8.509 -0.2488 -0.0297 -0.0927
  124loPI   C6A 1980  17.976   7.046   8.144 -0.1531  0.2630 -0.5801
  124loPI   C1B 1981  18.144   7.283  10.030 -0.3893 -0.1386  0.3452
  124loPI   C2B 1982  18.111   7.348   9.555 -0.2776 -0.1907 -0.5314
  124loPI   C3B 1983  18.151   7.329   9.158  0.0982  0.1722 -0.2270
  124loPI   C4B 1984  18.270   7.505   8.776 -0.1961  0.0081 -0.4386
  125loPI    C1 1985  12.073   1.944  10.772  0.0550  0.1218 -0.2015
  125loPI    C2 1986  11.755   2.077  10.570 -0.1332 -0.0140  0.0004
  125loPI    C3 1987  11.718   1.973  10.955  0.1968  0.1410  0.0773
  125loPI   PO4 1988  12.247   2.118  10.702 -0.1251 -0.0247  0.2349
  125loPI   GL1 1989  12.344   2.370  10.332  0.2386 -0.2025 -0.1138
  125loPI   GL2 1990  12.482   2.140  10.152  0.1372  0.1682  0.1613
  125loPI   C1A 1991  12.501   2.665   9.963  0.0137  0.4907 -0.3387
  125loPI   C2A 1992  12.547   2.587   9.441 -0.2963 -0.1147  0.1826
  125loPI   C3A 1993  12.543   2.563   8.994  0.3197 -0.0080  0.4111
  125loPI   C4A 1994  12.546   2.554   8.555  0.0707 -0.0319 -0.1938
  125loPI   C5A 1995  12.609   2.611   8.194  0.1293 -0.2323 -0.0515
  125loPI   C6A 1996  12.857   2.498   7.842  0.3482 -0.0468  0.0352
  125loPI   C1B 1997  12.385   2.195   9.709  0.0619 -0.3320 -0.0666
  125loPI   C2B 1998  12.480   2.029   9.292 -0.0185  0.0737 -0.0567
  125loPI   C3B 1999  12.502   2.060   8.890 -0.1590  0.2962 -0.3613
  125loPI   C4B 2000  12.502   2.076   8.420 -0.2125 -0.1476 -0.0484
  126loPI    C1 2001   4.723  13.125  10.925  0.1658  0.1928  0.1625
  126loPI    C2 2002   4.380  13.258  11.082  0.1718  0.2445  0.1320
  126loPI    C3 2003   4.662  13.104  11.320  0.0285 -0.0243  0.1317
  126loPI   PO4 2004   4.654  13.176  10.664 -0.1791  0.0395  0.0087
  126loPI   GL1 2005   4.882  13.269  10.265 -0.0385  0.4149 -0.0856
  126loPI   GL2 2006   4.919  13.617  10.108  0.1667 -0.0354 -0.0687
  126loPI   C1A 2007   4.901  13.169   9.843  0.1050  0.0509  0.3071
  126loPI   C2A 2008   4.802  13.391   9.434 -0.2651  0.3831 -0.1420
  126loPI   C3A 2009   4.824  13.379   8.951  0.1366 -0.3247  0.1815
  126loPI   C4A 2010   4.872  13.371   8.635 -0.1089 -0.3548  0.3680
  126loPI   C5A 2011   4.904  13.326   8.173 -0.0961  0.0656 -0.0723
  126loPI   C6A 2012   4.823  12.940   7.991 -0.0660 -0.1819 -0.1591
  126loPI   C1B 2013   4.978  13.727   9.760 -0.1654 -0.0869 -0.0695
  126loPI   C2B 2014   4.974  13.862   9.292  0.1702  0.0176  0.3377
  126loPI   C3B 2015   4.995  13.860   8.888 -0.2213 -0.2724 -0.0314
  126loPI   C4B 2016   4.892  13.843   8.511  0.4730  0.2636  0.0219
  127loPI    C1 2017   1.803   2.564  10.763 -0.2476 -0.1588  0.1319
  127loPI    C2 2018   2.013   2.248  10.890  0.1668  0.0210 -0.0898
  127loPI    C3 2019   2.002   2.582  11.109  0.0812 -0.0012 -0.0604
  127loPI   PO4 2020   1.899   2.622  10.446 -0.0423 -0.3513 -0.0657
  127loPI   GL1 2021   1.925   2.347  10.040 -0.2533  0.1429 -0.3596
  127loPI   GL2 2022   1.655   2.227   9.905 -0.0707 -0.2229 -0.0039
  127loPI   C1A 2023   2.189   2.516   9.793  0.1352  0.0394  0.3779
  127loPI   C2A 2024   2.313   2.541   9.285  0.0181 -0.1356 -0.1623
  127loPI   C3A 2025   2.371   2.557   8.882  0.2785  0.2725  0.0337
  127loPI   C4A 2026   2.175   2.318   8.690  0.0426 -0.2391  0.1436
  127loPI   C5A 2027   2.146   2.256   8.194  0.0309  0.0596 -0.0117
  127loPI   C6A 2028   2.070   1.936   7.883  0.1155 -0.0657  0.1676
  127loPI   C1B 2029   1.807   2.294   9.447 -0.2223  0.1396  0.0032
  127loPI   C2B 2030   1.895   2.313   9.145  0.0570  0.5546  0.2389
  127loPI   C3B 2031   1.646   2.174   8.828  0.0469  0.0747 -0.0262
  127loPI   C4B 2032   1.552   2.171   8.412 -0.0760 -0.0394 -0.0039
  128loPI    C1 2033   5.732   8.543  10.540 -0.0565  0.2906  0.1922
  128loPI    C2 2034   5.908   8.803  10.789  0.1652 -0.0558  0.4053
  128loPI    C3 2035   5.991   8.412  10.816 -0.2168 -0.1612  0.1360
  128loPI   PO4 2036   5.621   8.801  10.371 -0.1525  0.1046 -0.0275
  128loPI   GL1 2037   5.450   8.905  10.026  0.1144  0.0616 -0.1025
  128loPI   GL2 2038   5.561   9.257  10.033 -0.0586  0.0466  0.2541
  128loPI   C1A 2039   5.098   8.744   9.733  0.0506  0.0616  0.0903
  128loPI   C2A 2040   4.924   8.824   9.324 -0.0449 -0.2548  0.0627
  128loPI   C3A 2041   5.145   8.874   8.920 -0.0929 -0.2374 -0.2009
  128loPI   C4A 2042   5.200   8.893   8.428  0.1981 -0.1667 -0.1234
  128loPI   C5A 2043   5.001   9.270   8.185  0.3216  0.0578 -0.0709
  128loPI   C6A 2044   4.976   9.639   7.893  0.0983 -0.1202  0.0008
  128loPI   C1B 2045   5.526   9.082   9.574  0.1003  0.0117  0.1704
  128loPI   C2B 2046   5.574   9.080   9.073  0.0507 -0.0305 -0.0159
  128loPI   C3B 2047   5.620   8.912   8.647  0.1948 -0.0350  0.1932
  128loPI   C4B 2048   5.756   8.859   8.184  0.1326 -0.3154  0.0757
  129loPI    C1 2049  11.052  13.148  10.595 -0.0337  0.0118 -0.0269
  129loPI    C2 2050  11.132  13.447  10.849 -0.0177 -0.1360  0.1449
  129loPI    C3 2051  10.979  13.104  10.986  0.0252 -0.2313 -0.0414
  129loPI   PO4 2052  11.110  13.229  10.424  0.1727 -0.1304  0.0256
  129loPI   GL1 2053  11.048  13.366  10.066  0.2684  0.0406  0.0915
  129loPI   GL2 2054  10.985  13.082   9.931 -0.1655  0.2631  0.0043
  129loPI   C1A 2055  11.080  13.709   9.737  0.0136 -0.2067 -0.1447
  129loPI   C2A 2056  11.083  13.699   9.301  0.0966 -0.0749 -0.0674
  129loPI   C3A 2057  11.191  13.706   8.898  0.0877  0.1873  0.1469
  129loPI   C4A 2058  11.003  13.800   8.473 -0.1098 -0.1463  0.0747
  129loPI   C5A 2059  10.600  13.729   8.200 -0.0006  0.0621 -0.0511
  129loPI   C6A 2060  10.472  13.590   7.827 -0.1727  0.0930 -0.1724
  129loPI   C1B 2061  10.939  13.011   9.484  0.1981 -0.1053  0.2179
  129loPI   C2B 2062  11.070  13.223   9.096  0.0140 -0.0493  0.0207
  129loPI   C3B 2063  10.980  13.299   8.663 -0.0272 -0.1485 -0.2763
  129loPI   C4B 2064  10.794  13.295   8.230 -0.2971  0.0944 -0.0502
  130loPI    C1 2065  13.046   0.126  10.675 -0.0148 -0.2147  0.0511
  130loPI    C2 2066  12.886  -0.238  10.722 -0.2030 -0.1537 -0.1029
  130loPI    C3 2067  12.734   0.075  10.920  0.1105 -0.1966  0.2162
  130loPI   PO4 2068  13.088   0.141  10.426 -0.0231  0.1172  0.4358
  130loPI   GL1 2069  13.210   0.198  10.098 -0.0770  0.3204  0.2410
  130loPI   GL2 2070  13.419   0.354  10.136 -0.0447  0.0099 -0.2207
  130loPI   C1A 2071  12.971   0.298   9.671 -0.2194 -0.0633 -0.0747
  130loPI   C2A 2072  13.062   0.352   9.255 -0.1267 -0.2318  0.1390
  130loPI   C3A 2073  13.043   0.420   8.850 -0.1116  0.0448 -0.0127
  130loPI   C4A 2074  13.053   0.426   8.449  0.0591  0.1243  0.0836
  130loPI   C5A 2075  13.328   0.288   8.167  0.1527 -0.0411 -0.1696
  130loPI   C6A 2076  13.668   0.655   8.000 -0.2314  0.1944  0.0915
  130loPI   C1B 2077  13.389   0.563   9.814  0.0474 -0.1539 -0.1431
  130loPI   C2B 2078  13.470   0.597   9.406  0.1699  0.0970  0.0617
  130loPI   C3B 2079  13.589   0.574   8.915  0.2323 -0.1358 -0.2734
  130loPI   C4B 2080  13.602   0.601   8.589  0.2818 -0.0157  0.1599
  131loPI    C1 2081   0.800   0.528  10.733  0.0342 -0.1255 -0.0879
  131loPI    C2 2082   1.187   0.451  10.799  0.0714  0.1861  0.0788
  131loPI    C3 2083   0.914   0.351  11.073  0.0466  0.0803  0.0164
  131loPI   PO4 2084   0.847   0.481  10.369 -0.3379  0.2233  0.0338
  131loPI   GL1 2085   0.615   0.529  10.058  0.3316 -0.1873 -0.2342
  131loPI   GL2 2086   0.438   0.800   9.965 -0.1475  0.0628 -0.0647
  131loPI   C1A 2087   0.802   0.533   9.637 -0.3043 -0.0952 -0.2984
  131loPI   C2A 2088   0.940   0.519   9.133 -0.0261 -0.0405 -0.2557
  131loPI   C3A 2089   0.866   0.572   8.742  0.1105 -0.1056 -0.0092
  131loPI   C4A 2090   0.906   0.455   8.287  0.1956  0.1197  0.0632
  131loPI   C5A 2091   0.921   0.201   7.892 -0.2054 -0.2242  0.2156
  131loPI   C6A 2092   0.737  -0.223   7.813  0.0909 -0.0795  0.0724
  131loPI   C1B 2093   0.410   0.857   9.524 -0.0703 -0.0417  0.1064
  131loPI   C2B 2094   0.422   0.944   9.093 -0.1242  0.1703  0.0747
  131loPI   C3B 2095   0.505   0.954   8.702 -0.0251  0.0227 -0.1038
  131loPI   C4B 2096   0.425   0.802   8.366  0.2467 -0.1982  0.0781
  132loPI    C1 2097   0.073   2.273  10.739  0.1626 -0.2196 -0.0446
  132loPI    C2 2098   0.164   2.487  11.065 -0.0329 -0.1575 -0.0295
  132loPI    C3 2099  -0.219   2.433  10.962  0.0318  0.0204 -0.3796
  132loPI   PO4 2100   0.314   2.259  10.598 -0.2121 -0.1385 -0.1881
  132loPI   GL1 2101   0.438   2.592  10.315 -0.0877 -0.3197  0.1994
  132loPI   GL2 2102   0.654   2.574  10.019 -0.5125  0.0904  0.2845
  132loPI   C1A 2103   0.185   2.715   9.973  0.2914 -0.1597  0.0114
  132loPI   C2A 2104   0.232   2.749   9.560  0.2698 -0.0390  0.0497
  132loPI   C3A 2105   0.360   2.786   9.045  0.0287  0.1872  0.2486
  132loPI   C4A 2106   0.323   2.770   8.563  0.1739 -0.0609 -0.1268
  132loPI   C5A 2107  -0.005   2.706   8.204  0.1373 -0.2167 -0.0712
  132loPI   C6A 2108  -0.311   2.604   7.855 -0.1418 -0.1179  0.0105
  132loPI   C1B 2109   0.646   2.515   9.579  0.1701 -0.1371 -0.1562
  132loPI   C2B 2110   0.706   2.557   9.283  0.1433 -0.0644  0.2137
  132loPI   C3B 2111   0.780   2.518   8.875  0.1064  0.2113 -0.0253
  132loPI   C4B 2112   0.690   2.478   8.346 -0.2010 -0.0008  0.2361
  133loPI    C1 2113  11.629  10.699  10.548 -0.2179  0.2505  0.3760
  133loPI    C2 2114  11.566  10.427  10.834 -0.0713  0.0357  0.2085
  133loPI    C3 2115  11.771  10.760  10.916  0.2798 -0.1909  0.2705
  133loPI   PO4 2116  11.662  10.486  10.318 -0.3600  0.2764 -0.0979
  133loPI   GL1 2117  11.698  10.564  10.020 -0.1302  0.0239 -0.2736
  133loPI   GL2 2118  11.764  10.394   9.706 -0.1464  0.5858  0.3016
  133loPI   C1A 2119  11.816  10.918   9.671  0.0350  0.2753 -0.0863
  133loPI   C2A 2120  11.972  10.924   9.229 -0.2771  0.3103  0.1606
  133loPI   C3A 2121  12.038  10.995   8.869 -0.1246 -0.2678 -0.0033
  133loPI   C4A 2122  12.187  10.967   8.592 -0.1904  0.1672 -0.0409
  133loPI   C5A 2123  12.255  11.336   8.419 -0.0793 -0.0853 -0.1734
  133loPI   C6A 2124  12.299  11.710   8.436 -0.3311 -0.1136 -0.0742
  133loPI   C1B 2125  11.657  10.000   9.608 -0.0177  0.2655  0.1061
  133loPI   C2B 2126  11.658   9.679   9.306  0.5463  0.0104 -0.3824
  133loPI   C3B 2127  11.577   9.774   8.884  0.0056 -0.0952 -0.3675
  133loPI   C4B 2128  11.595   9.771   8.553  0.2180 -0.0359  0.1190
  134loPI    C1 2129   8.996   3.484  10.471  0.1565  0.0862 -0.0338
  134loPI    C2 2130   8.778   3.708  10.721  0.3437  0.0528  0.1620
  134loPI    C3 2131   8.738   3.310  10.722 -0.1117  0.0862 -0.3029
  134loPI   PO4 2132   9.043   3.683  10.275 -0.2699  0.0140 -0.0989
  134loPI   GL1 2133   9.202   3.803   9.950 -0.2156 -0.0500 -0.0983
  134loPI   GL2 2134   9.551   3.655   9.934 -0.0998  0.0372 -0.1061
  134loPI   C1A 2135   9.049   3.940   9.582  0.1239  0.1336  0.0902
  134loPI   C2A 2136   9.032   3.791   9.127 -0.0404  0.0185 -0.1676
  134loPI   C3A 2137   8.960   3.837   8.718 -0.1041  0.1854  0.3592
  134loPI   C4A 2138   8.843   3.778   8.247 -0.0197  0.0045  0.0754
  134loPI   C5A 2139   8.819   3.444   7.993 -0.0476  0.1060  0.0996
  134loPI   C6A 2140   8.698   3.010   8.080 -0.3617 -0.0699  0.1063
  134loPI   C1B 2141   9.630   3.901   9.568 -0.2442 -0.0046 -0.2266
  134loPI   C2B 2142   9.549   3.827   9.111  0.2357 -0.3030 -0.0110
  134loPI   C3B 2143   9.530   3.751   8.657 -0.1198  0.1943  0.0953
  134loPI   C4B 2144   9.473   3.671   8.211  0.1512 -0.1896  0.1049
  135loPI    C1 2145   5.756   7.983  10.624 -0.1536 -0.1244 -0.1183
  135loPI    C2 2146   5.838   7.595  10.571 -0.0527 -0.1152 -0.0337
  135loPI    C3 2147   6.122   7.843  10.705 -0.1590 -0.0409  0.0563
  135loPI   PO4 2148   5.670   8.067  10.448  0.0870 -0.0934 -0.2086
  135loPI   GL1 2149   5.864   8.239  10.024 -0.0854  0.1865 -0.1450
  135loPI   GL2 2150   5.769   8.461  10.029 -0.0033 -0.0340 -0.0526
  135loPI   C1A 2151   5.886   8.069   9.655 -0.0466 -0.2420  0.0928
  135loPI   C2A 2152   5.868   8.174   9.288  0.3195  0.0751 -0.0279
  135loPI   C3A 2153   5.809   8.275   8.853  0.0078  0.1496 -0.2183
  135loPI   C4A 2154   5.868   8.484   8.515  0.1609 -0.1574 -0.0291
  135loPI   C5A 2155   6.002   8.428   8.114 -0.3608  0.0108  0.0117
  135loPI   C6A 2156   6.116   8.682   7.847  0.0385  0.0220  0.0044
  135loPI   C1B 2157   5.546   8.584   9.674  0.0451  0.0279 -0.3336
  135loPI   C2B 2158   5.349   8.537   9.336 -0.2563 -0.3758  0.2418
  135loPI   C3B 2159   5.503   8.569   9.061  0.0562  0.2145 -0.0780
  135loPI   C4B 2160   5.339   8.470   8.647  0.1792  0.1578 -0.0368
  136loPI    C1 2161   9.286   9.615  10.525 -0.1694 -0.0431  0.2111
  136loPI    C2 2162   9.619   9.394  10.510 -0.0623  0.1338 -0.1258
  136loPI    C3 2163   9.629   9.760  10.670 -0.1468  0.0558  0.0611
  136loPI   PO4 2164   9.159   9.511  10.238  0.1738  0.0237  0.0614
  136loPI   GL1 2165   8.783   9.445   9.817 -0.0575 -0.1772 -0.3868
  136loPI   GL2 2166   8.810   9.786   9.950 -0.1622 -0.0840  0.2968
  136loPI   C1A 2167   8.704   9.535   9.333  0.2536 -0.3184  0.4748
  136loPI   C2A 2168   8.691   9.442   8.884  0.2841  0.0113  0.2448
  136loPI   C3A 2169   8.711   9.545   8.477  0.0983 -0.0845  0.0884
  136loPI   C4A 2170   8.718   9.639   8.006  0.2234 -0.1913  0.4392
  136loPI   C5A 2171   8.736  10.024   7.782 -0.1676 -0.2493 -0.2374
  136loPI   C6A 2172   8.294  10.113   7.615  0.1656 -0.0346  0.0738
  136loPI   C1B 2173   8.924   9.905   9.595 -0.1147 -0.2559 -0.0626
  136loPI   C2B 2174   8.954   9.891   9.074 -0.0509 -0.0888  0.0895
  136loPI   C3B 2175   8.985   9.926   8.636 -0.0692 -0.0641  0.2155
  136loPI   C4B 2176   8.814  10.061   8.305  0.0471 -0.1084  0.0132
  137loPI    C1 2177   2.699   8.192  10.844 -0.1070  0.2067  0.0059
  137loPI    C2 2178   2.470   8.042  11.135 -0.0846  0.0918 -0.0349
  137loPI    C3 2179   2.866   7.987  11.144 -0.0784  0.1314 -0.0610
  137loPI   PO4 2180   2.483   8.093  10.616 -0.1910 -0.4323 -0.2287
  137loPI   GL1 2181   2.301   8.165  10.243  0.2402  0.2589 -0.0980
  137loPI   GL2 2182   2.205   7.851  10.210  0.1335 -0.0270 -0.1574
  137loPI   C1A 2183   2.416   8.229   9.708 -0.0483 -0.1150  0.1593
  137loPI   C2A 2184   2.367   8.206   9.254 -0.1854  0.0974  0.5385
  137loPI   C3A 2185   2.532   8.165   8.892  0.1160  0.3487 -0.3541
  137loPI   C4A 2186   2.646   8.175   8.511 -0.0239  0.1248  0.1291
  137loPI   C5A 2187   2.434   8.355   8.101 -0.1309  0.1594  0.1018
  137loPI   C6A 2188   2.284   8.224   7.697  0.1346  0.2956  0.0552
  137loPI   C1B 2189   1.968   8.025   9.865 -0.1051  0.0422  0.0837
  137loPI   C2B 2190   1.927   7.957   9.503 -0.2433 -0.1220  0.2482
  137loPI   C3B 2191   1.944   8.043   9.009  0.0985 -0.1243 -0.1296
  137loPI   C4B 2192   2.060   7.984   8.484 -0.1128  0.1948  0.1006
  138loPI    C1 2193   1.809  17.184  11.233 -0.2707  0.0797 -0.0177
  138loPI    C2 2194   2.075  17.454  11.360 -0.0361 -0.0605 -0.2027
  138loPI    C3 2195   1.754  17.370  11.583  0.0486  0.1446  0.0012
  138loPI   PO4 2196   1.826  17.188  11.010 -0.3192 -0.2438 -0.3005
  138loPI   GL1 2197   1.659  17.141  10.613 -0.2980  0.0087  0.2749
  138loPI   GL2 2198   1.516  16.783  10.538  0.1748 -0.0239  0.1403
  138loPI   C1A 2199   1.582  17.130  10.185  0.1972 -0.1237 -0.1025
  138loPI   C2A 2200   1.412  17.144   9.811 -0.2302 -0.2203  0.1046
  138loPI   C3A 2201   1.431  17.029   9.405  0.2225 -0.2109  0.1597
  138loPI   C4A 2202   1.430  17.072   8.938  0.3348 -0.0631 -0.2743
  138loPI   C5A 2203   1.584  17.119   8.504  0.1208 -0.1019  0.2849
  138loPI   C6A 2204   1.813  17.206   8.166 -0.1473 -0.0208  0.1206
  138loPI   C1B 2205   1.408  16.539  10.155  0.3585 -0.1495  0.0711
  138loPI   C2B 2206   1.351  16.552   9.750  0.2129 -0.2684  0.4614
  138loPI   C3B 2207   1.416  16.584   9.252 -0.2068  0.1265 -0.1886
  138loPI   C4B 2208   1.424  16.577   8.809  0.0933 -0.0535 -0.0749
  139loPI    C1 2209  13.417  14.801  11.007 -0.2415  0.0286 -0.1484
  139loPI    C2 2210  13.784  14.794  11.165 -0.2404  0.1586 -0.1436
  139loPI    C3 2211  13.464  14.789  11.404 -0.2481 -0.2627 -0.1543
  139loPI   PO4 2212  13.418  15.037  10.832 -0.1071 -0.3219  0.1790
  139loPI   GL1 2213  13.633  15.287  10.509  0.0166  0.0319  0.1363
  139loPI   GL2 2214  13.685  15.619  10.396 -0.2233  0.0869 -0.0458
  139loPI   C1A 2215  13.336  15.380  10.201  0.0876 -0.2860  0.0305
  139loPI   C2A 2216  13.307  15.394   9.796 -0.0443  0.3183 -0.0493
  139loPI   C3A 2217  13.301  15.334   9.421 -0.0104 -0.3535  0.0105
  139loPI   C4A 2218  13.258  15.288   8.962  0.1892 -0.1359 -0.2717
  139loPI   C5A 2219  13.223  15.067   8.598  0.1908 -0.0357  0.3752
  139loPI   C6A 2220  13.378  14.805   8.273  0.2768 -0.4472 -0.1204
  139loPI   C1B 2221  13.782  15.467   9.947  0.1697 -0.0510 -0.0603
  139loPI   C2B 2222  13.740  15.561   9.563  0.1283 -0.2338 -0.0485
  139loPI   C3B 2223  13.735  15.483   9.135  0.4566  0.2832  0.1831
  139loPI   C4B 2224  13.859  15.522   8.703 -0.3225  0.3875  0.3462
  140loPI    C1 2225  10.379  15.417  11.053 -0.0396  0.0870 -0.0499
  140loPI    C2 2226  10.722  15.602  11.143 -0.0172 -0.0487  0.1482
  140loPI    C3 2227  10.378  15.727  11.306 -0.0425 -0.0016  0.0592
  140loPI   PO4 2228  10.183  15.376  10.898 -0.2582 -0.0550 -0.3977
  140loPI   GL1 2229  10.136  15.543  10.580 -0.0407 -0.2673  0.2005
  140loPI   GL2 2230   9.952  15.705  10.256 -0.1399 -0.2195 -0.1856
  140loPI   C1A 2231  10.310  15.376  10.160  0.0381 -0.1653  0.6268
  140loPI   C2A 2232  10.499  15.546   9.723  0.5770  0.0941  0.2661
  140loPI   C3A 2233  10.491  15.514   9.266 -0.0011  0.1241  0.0170
  140loPI   C4A 2234  10.501  15.594   8.847 -0.2187  0.2354 -0.0858
  140loPI   C5A 2235  10.744  15.589   8.355 -0.1740  0.0022  0.0397
  140loPI   C6A 2236  10.779  15.451   7.932  0.3599  0.2026 -0.0317
  140loPI   C1B 2237  10.022  15.789   9.844  0.1616 -0.2236 -0.2000
  140loPI   C2B 2238  10.114  15.790   9.456 -0.0229 -0.3082 -0.0037
  140loPI   C3B 2239  10.144  15.897   9.026 -0.3099  0.0072 -0.3568
  140loPI   C4B 2240  10.106  15.818   8.570  0.0342  0.0412  0.1349
  141loPI    C1 2241  16.352  12.836  11.006  0.1676 -0.1935 -0.0752
  141loPI    C2 2242  16.100  12.718  11.293  0.2164 -0.1370 -0.0089
  141loPI    C3 2243  16.404  12.962  11.381  0.1396  0.0067 -0.1379
  141loPI   PO4 2244  16.187  12.882  10.773  0.0895 -0.1226 -0.1550
  141loPI   GL1 2245  16.218  12.997  10.365 -0.0452  0.1734  0.0749
  141loPI   GL2 2246  16.208  13.288  10.134  0.2178  0.4557  0.1902
  141loPI   C1A 2247  16.134  12.864   9.958 -0.0565  0.2025 -0.0147
  141loPI   C2A 2248  16.114  12.988   9.491 -0.0762 -0.0116 -0.3988
  141loPI   C3A 2249  16.154  12.969   9.111  0.1768  0.0820 -0.2240
  141loPI   C4A 2250  16.132  12.850   8.706  0.1588 -0.1835 -0.0731
  141loPI   C5A 2251  15.927  12.967   8.323  0.0398 -0.3550  0.1230
  141loPI   C6A 2252  15.578  13.059   7.994  0.0725 -0.2975  0.1350
  141loPI   C1B 2253  16.071  13.390   9.770 -0.3652  0.2842  0.3198
  141loPI   C2B 2254  16.225  13.450   9.388 -0.2566  0.0705 -0.1737
  141loPI   C3B 2255  16.253  13.472   8.970  0.1240  0.2986 -0.0008
  141loPI   C4B 2256  16.219  13.340   8.561 -0.1630  0.2168 -0.1076
  142loPI    C1 2257   9.831   1.434  10.352 -0.1066 -0.1991 -0.0065
  142loPI    C2 2258   9.566   1.669  10.538 -0.0099 -0.1671  0.0919
  142loPI    C3 2259   9.956   1.758  10.550  0.0235 -0.3114  0.0969
  142loPI   PO4 2260   9.772   1.138  10.325  0.0288  0.3817  0.1705
  142loPI   GL1 2261   9.900   0.907   9.926  0.0931 -0.0419  0.1625
  142loPI   GL2 2262   9.648   0.789   9.925  0.1044  0.2900 -0.0618
  142loPI   C1A 2263   9.910   0.958   9.503 -0.0800 -0.2222 -0.1859
  142loPI   C2A 2264   9.913   0.929   9.011  0.0057 -0.1671  0.2200
  142loPI   C3A 2265   9.961   0.815   8.567 -0.2551  0.2698  0.1829
  142loPI   C4A 2266   9.963   0.974   8.089 -0.3307  0.1153 -0.3682
  142loPI   C5A 2267   9.936   1.165   7.662  0.1999  0.2530 -0.0961
  142loPI   C6A 2268   9.936   1.271   7.176 -0.1708  0.1154 -0.2229
  142loPI   C1B 2269   9.763   0.486   9.629  0.0849 -0.1208 -0.1511
  142loPI   C2B 2270   9.900   0.466   9.181  0.2272  0.1088 -0.1043
  142loPI   C3B 2271   9.854   0.344   8.756  0.0276 -0.0085 -0.0007
  142loPI   C4B 2272   9.864   0.270   8.372 -0.0384 -0.0277 -0.1732
  143loPI    C1 2273   9.523  17.088  11.013  0.1473  0.0328  0.0434
  143loPI    C2 2274   9.459  17.479  11.065  0.0368 -0.0104  0.2409
  143loPI    C3 2275   9.824  17.348  10.969  0.0319  0.1577 -0.0168
  143loPI   PO4 2276   9.368  16.985  10.834 -0.0063 -0.1439 -0.3363
  143loPI   GL1 2277   9.450  16.910  10.404 -0.0279  0.0326 -0.0218
  143loPI   GL2 2278   9.417  17.185  10.140  0.0037  0.3652  0.3587
  143loPI   C1A 2279   9.272  16.626  10.144  0.0204 -0.2800 -0.2806
  143loPI   C2A 2280   9.302  16.564   9.824  0.3824 -0.0322  0.4004
  143loPI   C3A 2281   9.334  16.649   9.371 -0.1213 -0.3635  0.0540
  143loPI   C4A 2282   9.349  16.626   8.938  0.2771  0.2285  0.0490
  143loPI   C5A 2283   9.398  16.513   8.550 -0.3403  0.1312  0.1922
  143loPI   C6A 2284   9.714  16.290   8.302 -0.2367  0.0826 -0.0442
  143loPI   C1B 2285   9.393  17.244   9.637 -0.0174 -0.1186  0.0230
  143loPI   C2B 2286   9.434  17.127   9.178 -0.1969 -0.1860  0.0582
  143loPI   C3B 2287   9.513  17.043   8.729  0.0033 -0.0061 -0.0699
  143loPI   C4B 2288   9.767  16.812   8.453 -0.0099  0.1081  0.0625
  144loPI    C1 2289   0.217  12.891  11.202  0.3278 -0.1757  0.1086
  144loPI    C2 2290  -0.116  12.695  11.097 -0.0598  0.4145  0.1844
  144loPI    C3 2291   0.056  12.622  11.450 -0.0119 -0.0048  0.0801
  144loPI   PO4 2292   0.392  12.829  10.995 -0.1255 -0.1329 -0.2127
  144loPI   GL1 2293   0.479  12.529  10.648 -0.0015 -0.2445 -0.1918
  144loPI   GL2 2294   0.552  12.304  10.413 -0.2654 -0.2784 -0.3866
  144loPI   C1A 2295   0.113  12.661  10.392  0.1219  0.1064 -0.2275
  144loPI   C2A 2296   0.133  12.713   9.946 -0.0523  0.1880 -0.0678
  144loPI   C3A 2297   0.155  12.698   9.435 -0.0093  0.2572 -0.3843
  144loPI   C4A 2298   0.113  12.732   9.049 -0.4170 -0.2141  0.0578
  144loPI   C5A 2299   0.076  12.705   8.619  0.0321 -0.0635  0.3354
  144loPI   C6A 2300  -0.225  12.732   8.360  0.0990 -0.0830  0.0892
  144loPI   C1B 2301   0.484  12.317  10.027  0.1676 -0.0376  0.3394
  144loPI   C2B 2302   0.517  12.372   9.518  0.1358  0.1606  0.0882
  144loPI   C3B 2303   0.508  12.394   9.181 -0.3389  0.1831  0.0150
  144loPI   C4B 2304   0.464  12.383   8.756  0.0358 -0.1877 -0.0282
  145loPI    C1 2305   6.915   7.358  10.737  0.0495  0.1936 -0.2684
  145loPI    C2 2306   7.016   7.745  10.738  0.0538  0.1936 -0.0373
  145loPI    C3 2307   7.022   7.536  11.079  0.1291 -0.0315 -0.1738
  145loPI   PO4 2308   6.689   7.356  10.518  0.1097  0.0436 -0.1286
  145loPI   GL1 2309   6.588   7.120  10.028 -0.3316 -0.0083  0.0098
  145loPI   GL2 2310   6.745   7.413   9.936  0.0175 -0.1818  0.1902
  145loPI   C1A 2311   6.514   7.001   9.646  0.2048  0.1757 -0.0676
  145loPI   C2A 2312   6.522   7.022   9.182 -0.0453 -0.1154 -0.0817
  145loPI   C3A 2313   6.488   6.994   8.726 -0.0457 -0.1398  0.2842
  145loPI   C4A 2314   6.659   7.133   8.310 -0.1765 -0.1674 -0.0702
  145loPI   C5A 2315   6.908   7.305   8.001 -0.1390 -0.0354  0.2766
  145loPI   C6A 2316   7.389   7.356   7.924 -0.0219  0.1441 -0.1910
  145loPI   C1B 2317   6.815   7.474   9.610  0.1800 -0.2683  0.1327
  145loPI   C2B 2318   6.926   7.422   9.153 -0.0362  0.2772  0.1769
  145loPI   C3B 2319   6.905   7.380   8.733 -0.2293  0.0721 -0.0179
  145loPI   C4B 2320   7.075   7.357   8.441 -0.4339 -0.1095  0.3821
  146loPI    C1 2321  10.280  10.202  10.274 -0.0297 -0.1613 -0.0467
  146loPI    C2 2322  10.466   9.945  10.517 -0.3724 -0.4357 -0.0664
  146loPI    C3 2323  10.178  10.183  10.660  0.1011  0.1176  0.0041
  146loPI   PO4 2324  10.256  10.116  10.061 -0.0786  0.1117  0.1142
  146loPI   GL1 2325  10.440  10.264   9.665 -0.2117  0.1302  0.1232
  146loPI   GL2 2326  10.358  10.574   9.834  0.2213  0.0096 -0.0690
  146loPI   C1A 2327  10.643  10.049   9.411  0.2854 -0.1191  0.0335
  146loPI   C2A 2328  10.771  10.162   9.051  0.2962  0.1920 -0.0238
  146loPI   C3A 2329  10.883  10.361   8.611  0.0041 -0.1169  0.2274
  146loPI   C4A 2330  10.805  10.322   8.239 -0.1188  0.1981  0.1787
  146loPI   C5A 2331  10.833  10.053   8.013 -0.0432  0.3402 -0.1102
  146loPI   C6A 2332  10.803   9.942   7.661 -0.0438 -0.1889  0.0118
  146loPI   C1B 2333  10.338  10.510   9.312 -0.1053 -0.1121 -0.1020
  146loPI   C2B 2334  10.353  10.522   8.907  0.1041 -0.1470  0.4952
  146loPI   C3B 2335  10.399  10.609   8.500 -0.1953 -0.3696  0.1532
  146loPI   C4B 2336  10.631  10.781   8.216 -0.6148 -0.0061  0.0182
  147loPI    C1 2337   8.573  17.072  11.030  0.1391  0.1773 -0.1337
  147loPI    C2 2338   8.344  16.941  11.330  0.2021 -0.2272 -0.2566
  147loPI    C3 2339   8.700  17.107  11.408 -0.0098  0.1589 -0.0814
  147loPI   PO4 2340   8.497  17.227  10.911  0.3214  0.0960  0.1065
  147loPI   GL1 2341   8.396  17.156  10.362 -0.0335  0.2935 -0.0512
  147loPI   GL2 2342   8.173  17.301  10.120 -0.0968 -0.0199 -0.1248
  147loPI   C1A 2343   8.871  17.076  10.202  0.0081 -0.0583  0.1303
  147loPI   C2A 2344   8.989  16.967   9.845  0.2189  0.1614  0.0201
  147loPI   C3A 2345   8.981  16.971   9.444  0.0357  0.0505  0.1066
  147loPI   C4A 2346   8.941  16.958   8.999  0.3603 -0.3122  0.1618
  147loPI   C5A 2347   9.024  16.856   8.664 -0.1873  0.4227 -0.0156
  147loPI   C6A 2348   8.994  16.571   8.244  0.2313  0.0289  0.0868
  147loPI   C1B 2349   8.196  17.294   9.690 -0.2252 -0.1194  0.2818
  147loPI   C2B 2350   8.101  17.232   9.263  0.1313  0.1303  0.0030
  147loPI   C3B 2351   8.106  17.097   8.801 -0.1600  0.5411 -0.1854
  147loPI   C4B 2352   8.157  17.066   8.440  0.0660 -0.0560  0.0507
  148loPI    C1 2353   3.973   1.108  10.620 -0.1063 -0.1804 -0.0539
  148loPI    C2 2354   4.340   1.199  10.750 -0.1709  0.0110 -0.0031
  148loPI    C3 2355   4.155   0.872  10.887  0.0062 -0.1225 -0.0790
  148loPI   PO4 2356   4.001   1.062  10.264  0.3880 -0.1102  0.0093
  148loPI   GL1 2357   3.918   1.015   9.944 -0.1864 -0.0110  0.1342
  148loPI   GL2 2358   3.657   1.076   9.869  0.1868  0.3891 -0.1339
  148loPI   C1A 2359   4.235   1.093   9.524  0.2692  0.1231  0.0033
  148loPI   C2A 2360   4.188   1.104   9.180  0.0088 -0.0151  0.0419
  148loPI   C3A 2361   4.218   1.068   8.749  0.0534  0.2547 -0.0041
  148loPI   C4A 2362   4.215   0.893   8.308 -0.0698  0.1740 -0.1383
  148loPI   C5A 2363   4.146   0.814   7.919 -0.2103  0.1915  0.3422
  148loPI   C6A 2364   3.785   1.008   7.625  0.2217  0.3323 -0.1961
  148loPI   C1B 2365   3.751   1.136   9.470  0.0745  0.1355 -0.0366
  148loPI   C2B 2366   3.717   1.070   8.983 -0.0012  0.0679 -0.1240
  148loPI   C3B 2367   3.736   0.902   8.604 -0.2404  0.0779  0.1360
  148loPI   C4B 2368   3.748   0.889   8.171  0.0146 -0.0082  0.1937
  149loPI    C1 2369  11.408   7.333  10.256  0.2524  0.2342 -0.1065
  149loPI    C2 2370  11.235   7.379  10.614 -0.1353  0.2157 -0.2866
  149loPI    C3 2371  11.541   7.614  10.508 -0.0034  0.2075  0.0620
  149loPI   PO4 2372  11.138   7.268  10.101 -0.0618  0.2903 -0.0010
  149loPI   GL1 2373  10.895   7.142   9.676  0.0599 -0.1242 -0.0802
  149loPI   GL2 2374  10.537   7.173   9.647 -0.0472  0.0310 -0.2797
  149loPI   C1A 2375  10.906   7.269   9.254  0.0321  0.2520 -0.0207
  149loPI   C2A 2376  10.650   7.470   8.929  0.1042 -0.0278 -0.0625
  149loPI   C3A 2377  10.690   7.699   8.607 -0.3441  0.0121  0.1321
  149loPI   C4A 2378  10.812   7.820   8.135  0.0452 -0.2187 -0.1797
  149loPI   C5A 2379  11.135   7.806   7.718 -0.3142  0.4772 -0.1092
  149loPI   C6A 2380  11.499   7.653   7.748 -0.2401  0.3622 -0.2154
  149loPI   C1B 2381  10.278   7.263   9.307  0.0045 -0.0201 -0.0003
  149loPI   C2B 2382  10.073   6.983   9.022  0.0905  0.3494 -0.0462
  149loPI   C3B 2383  10.029   6.949   8.627  0.0047  0.0277  0.0151
  149loPI   C4B 2384  10.161   7.032   8.152 -0.2930  0.1318 -0.0695
  150loPI    C1 2385  18.090  12.167  11.328  0.0933  0.1411  0.0234
  150loPI    C2 2386  17.814  11.959  11.530  0.1004 -0.0850 -0.1954
  150loPI    C3 2387  17.874  12.346  11.613  0.0253 -0.1460  0.1555
  150loPI   PO4 2388  18.048  12.096  11.051  0.1284 -0.0513  0.1687
  150loPI   GL1 2389  17.984  11.774  10.720 -0.1777 -0.1362 -0.0421
  150loPI   GL2 2390  17.774  12.010  10.643  0.2252  0.1193  0.1512
  150loPI   C1A 2391  18.100  11.719  10.250  0.0284 -0.0811  0.4193
  150loPI   C2A 2392  18.105  11.597   9.786 -0.0439 -0.1110 -0.2593
  150loPI   C3A 2393  18.286  11.654   9.433 -0.1120  0.0524 -0.2098
  150loPI   C4A 2394  18.237  11.652   9.055 -0.0691  0.2014 -0.2102
  150loPI   C5A 2395  18.189  11.314   8.880 -0.1096 -0.1204  0.1696
  150loPI   C6A 2396  17.849  11.060   8.923  0.0194  0.2335  0.0912
  150loPI   C1B 2397  17.751  12.081  10.152 -0.1679 -0.1189  0.0939
  150loPI   C2B 2398  17.816  11.938   9.817 -0.1237 -0.2967 -0.2825
  150loPI   C3B 2399  17.862  11.930   9.402 -0.0097  0.0716  0.0930
  150loPI   C4B 2400  17.829  12.071   9.055 -0.0427  0.3172 -0.0494
  151loPI    C1 2401  10.521  12.724  10.921 -0.0147  0.1730 -0.1562
  151loPI    C2 2402  10.433  13.032  11.160  0.2448  0.1250  0.0049
  151loPI    C3 2403  10.527  12.677  11.318  0.3484  0.0735 -0.1703
  151loPI   PO4 2404  10.568  12.814  10.683  0.1296  0.0933  0.4258
  151loPI   GL1 2405  10.534  13.143  10.303  0.0029  0.0781  0.3752
  151loPI   GL2 2406  10.322  12.978  10.272 -0.0437  0.4391 -0.1011
  151loPI   C1A 2407  10.520  13.453   9.959  0.2970 -0.1830  0.2159
  151loPI   C2A 2408  10.618  13.494   9.428  0.0489  0.3293  0.2156
  151loPI   C3A 2409  10.714  13.541   9.031  0.2398 -0.0391 -0.1929
  151loPI   C4A 2410  10.525  13.716   8.668 -0.0130 -0.0118 -0.1509
  151loPI   C5A 2411  10.173  13.858   8.425 -0.3360  0.2965  0.0522
  151loPI   C6A 2412  10.273  14.335   8.319 -0.1891 -0.1392 -0.2877
  151loPI   C1B 2413  10.484  12.917   9.880  0.2449  0.2485  0.0332
  151loPI   C2B 2414  10.488  12.901   9.498  0.1154 -0.1656  0.0827
  151loPI   C3B 2415  10.529  12.950   9.132 -0.3051 -0.0191  0.0044
  151loPI   C4B 2416  10.506  13.051   8.676  0.1401 -0.1841 -0.0345
  152loPI    C1 2417   3.950   6.185  10.587 -0.0872 -0.2889  0.0330
  152loPI    C2 2418   4.348   6.199  10.623 -0.1052  0.1181  0.1286
  152loPI    C3 2419   4.124   6.063  10.925 -0.0516  0.1055  0.1627
  152loPI   PO4 2420   3.916   6.455  10.428 -0.1254  0.1309 -0.2180
  152loPI   GL1 2421   3.706   6.548  10.088  0.1841 -0.3385 -0.0573
  152loPI   GL2 2422   3.858   6.838  10.108 -0.1546  0.0623 -0.1730
  152loPI   C1A 2423   3.599   6.545   9.658 -0.2153  0.0637  0.0077
  152loPI   C2A 2424   3.544   6.493   9.261  0.0826 -0.0819  0.0973
  152loPI   C3A 2425   3.399   6.628   8.927  0.1010  0.0205  0.0073
  152loPI   C4A 2426   3.438   6.620   8.482 -0.1182  0.2283 -0.0043
  152loPI   C5A 2427   3.797   6.681   8.195 -0.2279  0.2556 -0.0668
  152loPI   C6A 2428   4.148   6.755   7.887  0.0752  0.1811  0.2447
  152loPI   C1B 2429   3.824   6.992   9.588 -0.2490  0.1679  0.0658
  152loPI   C2B 2430   3.549   6.981   9.203  0.1565 -0.0993  0.2393
  152loPI   C3B 2431   3.550   7.105   8.788 -0.0266 -0.0546  0.2957
  152loPI   C4B 2432   3.450   7.048   8.294  0.2834  0.0976 -0.1122
  153loPI    C1 2433  16.265   8.936  11.478 -0.1840 -0.1929  0.0197
  153loPI    C2 2434  16.608   8.730  11.480 -0.0112  0.0889  0.0246
  153loPI    C3 2435  16.469   8.889  11.819 -0.3342 -0.3208  0.0930
  153loPI   PO4 2436  16.292   9.054  11.106 -0.0380 -0.2521  0.0272
  153loPI   GL1 2437  16.141   8.878  10.724 -0.2100  0.0666 -0.0483
  153loPI   GL2 2438  15.912   9.069  10.640 -0.0453 -0.3610 -0.2510
  153loPI   C1A 2439  16.141   8.715  10.317 -0.2684  0.2830  0.0959
  153loPI   C2A 2440  16.144   8.592   9.855  0.1765 -0.3293  0.0386
  153loPI   C3A 2441  16.107   8.591   9.491 -0.2808 -0.0959 -0.2609
  153loPI   C4A 2442  16.227   8.569   9.078  0.0482 -0.0816  0.2767
  153loPI   C5A 2443  16.349   8.907   8.780 -0.0082 -0.0280  0.1948
  153loPI   C6A 2444  16.425   9.298   8.590  0.2304 -0.1858 -0.0892
  153loPI   C1B 2445  15.764   9.040  10.297 -0.1736 -0.1418  0.0662
  153loPI   C2B 2446  15.703   8.977   9.865  0.1739 -0.0201  0.0047
  153loPI   C3B 2447  15.762   9.050   9.486  0.2255  0.0420 -0.0665
  153loPI   C4B 2448  15.982   9.069   9.115 -0.1351  0.1369  0.0039
  154loPI    C1 2449   5.724  11.480  10.677  0.0626  0.2679 -0.2003
  154loPI    C2 2450   5.824  11.735  10.969  0.4075  0.0819 -0.1504
  154loPI    C3 2451   5.581  11.427  11.047 -0.0432  0.4084 -0.2201
  154loPI   PO4 2452   5.617  11.636  10.528 -0.0375 -0.1350  0.0456
  154loPI   GL1 2453   5.402  11.603  10.191  0.1254 -0.0668 -0.0671
  154loPI   GL2 2454   5.112  11.898  10.118  0.1592  0.0640  0.1780
  154loPI   C1A 2455   5.501  11.507   9.724 -0.2307  0.2668 -0.0729
  154loPI   C2A 2456   5.439  11.544   9.204 -0.1481  0.1535  0.1874
  154loPI   C3A 2457   5.428  11.632   8.781  0.3575  0.2136 -0.0807
  154loPI   C4A 2458   5.456  11.541   8.365  0.0979 -0.1701  0.1418
  154loPI   C5A 2459   5.567  11.779   7.964 -0.1507  0.0876 -0.1877
  154loPI   C6A 2460   5.728  12.164   8.025  0.1124  0.1861 -0.1870
  154loPI   C1B 2461   5.105  11.862   9.673 -0.0435  0.2921 -0.2232
  154loPI   C2B 2462   5.004  11.832   9.325 -0.4479 -0.3999 -0.2446
  154loPI   C3B 2463   5.030  11.896   8.840  0.2304 -0.1290  0.2812
  154loPI   C4B 2464   5.068  12.006   8.403  0.1438 -0.5719 -0.2962
  155loPI    C1 2465  16.456  15.633  11.019  0.3939  0.1410 -0.1849
  155loPI    C2 2466  16.430  16.008  11.155  0.0958 -0.0037  0.1743
  155loPI    C3 2467  16.639  15.735  11.359  0.0141 -0.1184  0.1056
  155loPI   PO4 2468  16.627  15.690  10.795  0.3350 -0.1993 -0.0889
  155loPI   GL1 2469  16.635  15.837  10.284 -0.1687 -0.1605  0.1580
  155loPI   GL2 2470  16.889  15.775  10.265 -0.0175 -0.1355  0.1818
  155loPI   C1A 2471  16.618  15.985   9.864 -0.0419  0.2484  0.1209
  155loPI   C2A 2472  16.711  15.917   9.397  0.1776 -0.0778 -0.0513
  155loPI   C3A 2473  16.662  15.932   8.952  0.1162 -0.2985  0.0753
  155loPI   C4A 2474  16.708  15.957   8.478 -0.0497 -0.1256  0.0643
  155loPI   C5A 2475  16.932  16.008   8.206  0.2088 -0.0075 -0.1318
  155loPI   C6A 2476  17.173  15.660   8.117 -0.0802  0.0535 -0.0772
  155loPI   C1B 2477  17.076  15.571   9.977 -0.0549 -0.2417  0.1505
  155loPI   C2B 2478  17.070  15.577   9.527  0.0919  0.3489  0.0644
  155loPI   C3B 2479  17.073  15.634   9.040 -0.1851 -0.1908 -0.1845
  155loPI   C4B 2480  17.104  15.603   8.621  0.4311  0.1481 -0.4250
  156loPI    C1 2481  10.978  18.223  11.022  0.2251  0.0154  0.1822
  156loPI    C2 2482  10.613  18.101  11.133  0.1268 -0.0516 -0.1974
  156loPI    C3 2483  10.897  18.163  11.409 -0.1305 -0.1265  0.0899
  156loPI   PO4 2484  10.922  18.275  10.750 -0.0142 -0.1165 -0.0659
  156loPI   GL1 2485  10.935  18.334  10.359 -0.0407 -0.2974 -0.1349
  156loPI   GL2 2486  11.207  18.398  10.169  0.4062  0.0225  0.0370
  156loPI   C1A 2487  10.866  18.035  10.017  0.1723  0.0504  0.3127
  156loPI   C2A 2488  11.018  18.037   9.588  0.1427 -0.0484 -0.0578
  156loPI   C3A 2489  11.063  17.864   9.182 -0.0814 -0.2173 -0.0337
  156loPI   C4A 2490  11.124  18.076   8.850 -0.4115  0.2158  0.3716
  156loPI   C5A 2491  11.143  17.905   8.349  0.2083  0.0297 -0.0821
  156loPI   C6A 2492  11.090  17.709   7.950  0.1811 -0.0858  0.2465
  156loPI   C1B 2493  11.320  18.379   9.803  0.1156  0.0024  0.0905
  156loPI   C2B 2494  11.247  18.431   9.423 -0.1178 -0.1975 -0.0982
  156loPI   C3B 2495  11.195  18.552   9.059 -0.3668 -0.2737  0.2915
  156loPI   C4B 2496  11.179  18.634   8.681  0.0378  0.0709  0.4086
  157loPI    C1 2497  14.172  12.805  11.273  0.0292  0.0314 -0.1151
  157loPI    C2 2498  14.538  12.715  11.406 -0.0242 -0.1978 -0.1192
  157loPI    C3 2499  14.250  12.813  11.665 -0.0306 -0.2814 -0.0944
  157loPI   PO4 2500  14.255  12.960  10.986 -0.1482  0.2022 -0.1617
  157loPI   GL1 2501  14.148  13.037  10.625  0.0806 -0.1099 -0.3799
  157loPI   GL2 2502  13.818  12.872  10.474  0.1177 -0.0466  0.4938
  157loPI   C1A 2503  14.223  13.322  10.237 -0.1606  0.3988  0.1670
  157loPI   C2A 2504  14.168  13.300   9.841  0.2333 -0.3962 -0.0497
  157loPI   C3A 2505  14.264  13.220   9.370 -0.1255 -0.0396 -0.1242
  157loPI   C4A 2506  14.342  13.300   8.954 -0.2270  0.1177  0.0413
  157loPI   C5A 2507  14.333  13.329   8.589 -0.1694 -0.2566 -0.0777
  157loPI   C6A 2508  14.587  13.064   8.229  0.1757 -0.1776  0.0296
  157loPI   C1B 2509  13.753  13.041  10.054  0.0357 -0.0012  0.0417
  157loPI   C2B 2510  13.834  13.016   9.570  0.0347 -0.1585 -0.0566
  157loPI   C3B 2511  13.733  13.224   9.175 -0.2839  0.1291  0.1149
  157loPI   C4B 2512  13.860  13.153   8.806 -0.0232 -0.0602 -0.1696
  158loPI    C1 2513   3.321   9.639  10.920  0.0443  0.1289 -0.1702
  158loPI    C2 2514   3.496   9.546  11.268 -0.1897 -0.1392 -0.1193
  158loPI    C3 2515   3.158   9.760  11.265 -0.1046 -0.0043 -0.1921
  158loPI   PO4 2516   3.456   9.479  10.722  0.2064  0.0583 -0.0851
  158loPI   GL1 2517   3.209   9.571  10.306 -0.2408  0.1073 -0.1788
  158loPI   GL2 2518   3.252   9.331  10.203  0.1792  0.2177 -0.1843
  158loPI   C1A 2519   3.173   9.866   9.938  0.0830  0.0390  0.1264
  158loPI   C2A 2520   3.148   9.876   9.581  0.2530 -0.0540  0.1169
  158loPI   C3A 2521   3.184   9.873   9.167 -0.1264 -0.2258 -0.0424
  158loPI   C4A 2522   3.204   9.923   8.746 -0.0312  0.2397  0.1398
  158loPI   C5A 2523   3.204   9.758   8.261 -0.3992  0.0002  0.4408
  158loPI   C6A 2524   3.634   9.697   8.052  0.0872  0.0772 -0.0279
  158loPI   C1B 2525   3.260   9.262   9.801  0.0237 -0.2477  0.2004
  158loPI   C2B 2526   3.258   9.452   9.362  0.0842  0.1668  0.0522
  158loPI   C3B 2527   3.141   9.390   9.035  0.2699  0.2460 -0.1420
  158loPI   C4B 2528   3.076   9.416   8.685  0.3746 -0.0998  0.0926
  159loPI    C1 2529  12.013   9.573  10.166 -0.1023 -0.2439  0.0012
  159loPI    C2 2530  12.291   9.574  10.454 -0.2662 -0.0968  0.1610
  159loPI    C3 2531  12.042   9.885  10.415  0.0187  0.0740 -0.4003
  159loPI   PO4 2532  12.122   9.550   9.964  0.1889  0.1771  0.0075
  159loPI   GL1 2533  12.296   9.130   9.768  0.0178  0.0110 -0.3371
  159loPI   GL2 2534  12.017   9.125   9.795  0.0621 -0.0607 -0.2103
  159loPI   C1A 2535  12.344   9.013   9.237 -0.3151 -0.2382  0.0405
  159loPI   C2A 2536  12.328   9.118   8.792 -0.0950 -0.2304 -0.1650
  159loPI   C3A 2537  12.236   9.198   8.403 -0.2256 -0.2814  0.0457
  159loPI   C4A 2538  11.844   9.427   8.279  0.2255  0.0319  0.0141
  159loPI   C5A 2539  11.832   9.631   8.007 -0.5205  0.3219  0.0737
  159loPI   C6A 2540  11.787   9.859   7.636  0.0756  0.0522 -0.2679
  159loPI   C1B 2541  11.966   9.271   9.349  0.1507  0.3366 -0.2202
  159loPI   C2B 2542  11.957   9.376   8.897  0.0385 -0.3245  0.1206
  159loPI   C3B 2543  12.050   9.725   8.645 -0.2074  0.2938 -0.2429
  159loPI   C4B 2544  12.379   9.646   8.324  0.2178  0.0062 -0.1105
  160loPI    C1 2545   1.711   2.066  10.447  0.0122 -0.1353 -0.0102
  160loPI    C2 2546   1.499   2.096  10.784 -0.1001 -0.0265 -0.0896
  160loPI    C3 2547   1.424   2.343  10.478  0.0925 -0.0353 -0.1450
  160loPI   PO4 2548   1.617   1.780  10.352  0.4716  0.0681 -0.0667
  160loPI   GL1 2549   1.358   1.694  10.086 -0.2238  0.1733  0.1634
  160loPI   GL2 2550   1.024   1.653  10.000  0.3555  0.2975 -0.0010
  160loPI   C1A 2551   1.554   1.779   9.645  0.0209 -0.2523  0.1425
  160loPI   C2A 2552   1.581   1.802   9.231 -0.1632 -0.2985  0.1578
  160loPI   C3A 2553   1.653   1.703   8.771 -0.1758 -0.0629  0.0387
  160loPI   C4A 2554   1.519   1.623   8.445  0.5268 -0.1541  0.2635
  160loPI   C5A 2555   1.338   1.203   8.166  0.5029 -0.1300  0.0046
  160loPI   C6A 2556   0.954   0.937   8.177 -0.1466 -0.1848 -0.0074
  160loPI   C1B 2557   1.106   1.656   9.550  0.0571  0.0856  0.0451
  160loPI   C2B 2558   1.090   1.712   9.155  0.1048 -0.0693 -0.3503
  160loPI   C3B 2559   1.083   1.677   8.763 -0.1361  0.0436  0.1775
  160loPI   C4B 2560   1.015   1.559   8.315 -0.0937 -0.1183 -0.2528
  161loPI    C1 2561   9.977   5.107   9.978  0.2203 -0.0487  0.0793
  161loPI    C2 2562   9.846   5.312  10.296 -0.0042  0.3192 -0.2400
  161loPI    C3 2563   9.640   4.996  10.162  0.0598  0.1989 -0.0596
  161loPI   PO4 2564  10.270   5.021  10.083 -0.1295 -0.0830 -0.2693
  161loPI   GL1 2565  10.513   4.667   9.873 -0.1467  0.1625  0.2293
  161loPI   GL2 2566  10.705   4.940   9.769  0.0476 -0.3922 -0.1953
  161loPI   C1A 2567  10.760   4.609   9.400  0.1624 -0.0335  0.0605
  161loPI   C2A 2568  10.721   4.532   8.970 -0.1176  0.2769 -0.1486
  161loPI   C3A 2569  10.807   4.490   8.546  0.1823 -0.0569  0.0681
  161loPI   C4A 2570  10.749   4.284   8.154 -0.2842  0.0571 -0.3235
  161loPI   C5A 2571  10.472   4.333   7.934  0.2378 -0.2153  0.0385
  161loPI   C6A 2572  10.285   4.277   7.557 -0.0684  0.0431 -0.0471
  161loPI   C1B 2573  10.654   5.172   9.334 -0.1181 -0.2040 -0.0409
  161loPI   C2B 2574  10.705   5.171   8.892  0.0376 -0.0964  0.1722
  161loPI   C3B 2575  10.555   5.058   8.535 -0.2289 -0.3233 -0.1633
  161loPI   C4B 2576  10.680   4.764   8.119  0.1296 -0.3751 -0.0089
  162loPI    C1 2577  16.867  15.255  10.984 -0.0584 -0.0144  0.0370
  162loPI    C2 2578  16.612  15.224  11.290 -0.0155 -0.0137  0.0729
  162loPI    C3 2579  16.988  15.344  11.355 -0.0355  0.0869  0.0057
  162loPI   PO4 2580  16.746  15.198  10.780 -0.3864  0.0955 -0.0396
  162loPI   GL1 2581  16.558  15.314  10.354  0.3595 -0.6704 -0.1747
  162loPI   GL2 2582  16.277  15.170  10.551 -0.0047 -0.1407  0.2595
  162loPI   C1A 2583  16.647  15.332   9.979  0.1737  0.0730  0.0463
  162loPI   C2A 2584  16.591  15.431   9.492  0.3214  0.0648  0.2051
  162loPI   C3A 2585  16.591  15.496   9.033  0.0581 -0.0869 -0.2679
  162loPI   C4A 2586  16.574  15.473   8.557 -0.2017  0.2317 -0.1583
  162loPI   C5A 2587  16.623  15.211   8.108  0.2235 -0.1535  0.1674
  162loPI   C6A 2588  16.971  15.274   7.873  0.1368 -0.0773  0.0733
  162loPI   C1B 2589  16.034  15.169  10.154 -0.1410  0.2163  0.1416
  162loPI   C2B 2590  16.029  15.228   9.692 -0.0944 -0.3003 -0.2186
  162loPI   C3B 2591  16.110  15.351   9.268  0.0450  0.2554  0.0380
  162loPI   C4B 2592  16.128  15.356   8.823  0.1867 -0.1504 -0.1584
  163loPI    C1 2593  14.603   8.935  11.138 -0.3105  0.1040 -0.1811
  163loPI    C2 2594  14.563   8.594  10.934 -0.1725  0.0163 -0.0631
  163loPI    C3 2595  14.726   8.591  11.299  0.0759  0.2429 -0.1681
  163loPI   PO4 2596  14.688   9.084  10.884 -0.1414  0.3296 -0.0919
  163loPI   GL1 2597  14.773   9.120  10.485 -0.1215 -0.2672 -0.0356
  163loPI   GL2 2598  15.103   9.169  10.478  0.0371  0.0743 -0.1320
  163loPI   C1A 2599  14.810   9.129  10.104 -0.2847 -0.1433  0.0161
  163loPI   C2A 2600  14.848   9.187   9.645  0.0881 -0.1821 -0.2916
  163loPI   C3A 2601  14.956   9.199   9.283 -0.2547 -0.0765 -0.0207
  163loPI   C4A 2602  15.050   9.176   8.825  0.0800  0.1989 -0.1469
  163loPI   C5A 2603  15.183   9.544   8.530 -0.0908 -0.0187  0.2160
  163loPI   C6A 2604  15.354   9.984   8.495  0.1197 -0.0173  0.1208
  163loPI   C1B 2605  15.310   9.331  10.145 -0.2503  0.1275  0.1549
  163loPI   C2B 2606  15.307   9.481   9.663  0.4484  0.1095  0.1129
  163loPI   C3B 2607  15.434   9.386   9.236  0.6455  0.1030  0.1652
  163loPI   C4B 2608  15.625   9.521   8.777  0.2114 -0.1072 -0.0885
  164loPI    C1 2609  11.757   1.594  10.652  0.0115  0.2843  0.0817
  164loPI    C2 2610  11.387   1.610  10.803  0.0288  0.1000  0.1459
  164loPI    C3 2611  11.630   1.308  10.900  0.0590  0.0048 -0.2089
  164loPI   PO4 2612  11.622   1.611  10.379 -0.2210  0.0512 -0.3896
  164loPI   GL1 2613  11.377   1.858  10.052  0.0921  0.2480 -0.2299
  164loPI   GL2 2614  11.264   1.738   9.779 -0.0314 -0.0023 -0.1905
  164loPI   C1A 2615  11.737   1.664   9.693 -0.1783 -0.2453  0.0331
  164loPI   C2A 2616  11.919   1.561   9.240 -0.0887 -0.2372 -0.0421
  164loPI   C3A 2617  11.871   1.453   8.812 -0.0608 -0.0485  0.1760
  164loPI   C4A 2618  11.902   1.425   8.439 -0.1756  0.0289  0.0541
  164loPI   C5A 2619  12.183   1.360   8.070 -0.0636  0.0953 -0.1977
  164loPI   C6A 2620  12.537   1.646   8.044  0.1605  0.0541  0.2294
  164loPI   C1B 2621  11.427   1.845   9.362  0.2378  0.1250 -0.0807
  164loPI   C2B 2622  11.428   1.736   8.950  0.0724 -0.0670 -0.0161
  164loPI   C3B 2623  11.579   1.865   8.505  0.1620  0.0203  0.0435
  164loPI   C4B 2624  11.640   1.659   8.133  0.2373  0.0906 -0.1627
  165loPI    C1 2625  14.056   8.272  10.779  0.0975  0.2001  0.0827
  165loPI    C2 2626  14.248   8.224  11.127 -0.2508  0.0634  0.2612
  165loPI    C3 2627  13.849   8.201  11.114 -0.2441  0.0994 -0.1445
  165loPI   PO4 2628  14.152   8.478  10.677  0.0361  0.0724  0.0826
  165loPI   GL1 2629  14.273   8.759  10.317 -0.3678 -0.1196  0.0868
  165loPI   GL2 2630  13.982   8.803  10.290 -0.2171 -0.1573 -0.2394
  165loPI   C1A 2631  14.597   8.710   9.986  0.0372  0.0128 -0.1841
  165loPI   C2A 2632  14.779   8.589   9.621  0.1469 -0.0364 -0.1017
  165loPI   C3A 2633  14.711   8.700   9.266  0.2413 -0.0120 -0.0084
  165loPI   C4A 2634  14.929   8.729   8.774 -0.4013 -0.0463 -0.1801
  165loPI   C5A 2635  15.142   8.515   8.456  0.2456  0.0338 -0.1913
  165loPI   C6A 2636  15.058   8.183   8.230 -0.2652  0.1373 -0.0666
  165loPI   C1B 2637  13.974   8.530   9.971  0.0447 -0.1933  0.0512
  165loPI   C2B 2638  14.205   8.459   9.661 -0.1620  0.2363 -0.0521
  165loPI   C3B 2639  14.194   8.512   9.246  0.1711  0.0458  0.2775
  165loPI   C4B 2640  14.406   8.650   8.908 -0.0428  0.4221  0.0302
  166loPI    C1 2641  12.335   1.312  10.698 -0.1441 -0.2599 -0.0062
  166loPI    C2 2642  12.094   1.161  10.979  0.0092  0.1853  0.3778
  166loPI    C3 2643  12.491   1.136  11.022  0.0393 -0.1087 -0.0106
  166loPI   PO4 2644  12.230   1.458  10.580  0.0910  0.0085 -0.0539
  166loPI   GL1 2645  12.189   1.735  10.318 -0.1876 -0.2366 -0.2380
  166loPI   GL2 2646  12.032   1.508  10.114  0.1792  0.3790 -0.1183
  166loPI   C1A 2647  11.985   1.952  10.002 -0.0868  0.2920 -0.0772
  166loPI   C2A 2648  12.014   2.008   9.489  0.0748 -0.2161  0.2827
  166loPI   C3A 2649  12.016   1.945   8.972 -0.2910  0.0728 -0.0401
  166loPI   C4A 2650  12.048   1.952   8.615 -0.3449  0.3488  0.0271
  166loPI   C5A 2651  12.063   1.908   8.148  0.0976  0.0233  0.1154
  166loPI   C6A 2652  12.372   2.044   7.830 -0.1191 -0.1675  0.0444
  166loPI   C1B 2653  12.230   1.535   9.773  0.2157 -0.1610  0.1094
  166loPI   C2B 2654  12.382   1.555   9.365  0.1033 -0.1286 -0.1971
  166loPI   C3B 2655  12.384   1.583   8.936 -0.4838  0.2174  0.2451
  166loPI   C4B 2656  12.363   1.599   8.510 -0.0477 -0.1280  0.2521
  167loPI    C1 2657   0.462  14.891  10.990  0.2059  0.1045  0.1061
  167loPI    C2 2658   0.317  15.065  11.319  0.1978  0.1599  0.0733
  167loPI    C3 2659   0.537  14.732  11.349 -0.0315  0.0098  0.1160
  167loPI   PO4 2660   0.268  14.887  10.839 -0.1271 -0.0213  0.0918
  167loPI   GL1 2661   0.300  15.133  10.454  0.1245 -0.5270 -0.1859
  167loPI   GL2 2662   0.207  15.387  10.337  0.2481 -0.0334  0.1533
  167loPI   C1A 2663   0.446  14.948  10.011  0.0010 -0.0224 -0.0648
  167loPI   C2A 2664   0.522  14.851   9.539  0.1075 -0.0441  0.3142
  167loPI   C3A 2665   0.539  14.881   9.050  0.1544  0.0180 -0.3220
  167loPI   C4A 2666   0.613  14.973   8.579 -0.3365  0.1373 -0.2900
  167loPI   C5A 2667   0.703  14.679   8.251 -0.4302 -0.1923  0.2401
  167loPI   C6A 2668   0.963  14.670   7.945  0.1765 -0.0197 -0.0318
  167loPI   C1B 2669  -0.031  15.169  10.093  0.1167 -0.2667  0.3033
  167loPI   C2B 2670   0.001  15.142   9.639  0.1344 -0.1980 -0.3887
  167loPI   C3B 2671   0.205  15.129   9.314 -0.2039 -0.1286 -0.2342
  167loPI   C4B 2672   0.127  15.157   8.875 -0.0119  0.3773 -0.1595
  168loPI    C1 2673  15.537   7.438  11.052 -0.3373  0.0176  0.0342
  168loPI    C2 2674  15.409   7.604  11.393 -0.1578 -0.0374  0.1295
  168loPI    C3 2675  15.511   7.217  11.384  0.0419  0.0155  0.0664
  168loPI   PO4 2676  15.697   7.697  11.016  0.0767  0.1646  0.3197
  168loPI   GL1 2677  15.817   7.844  10.585  0.0453  0.0518 -0.0601
  168loPI   GL2 2678  15.560   8.021  10.515 -0.0341 -0.1138 -0.3772
  168loPI   C1A 2679  15.860   7.982  10.143  0.0199  0.1615  0.1529
  168loPI   C2A 2680  15.969   8.092   9.636  0.1138  0.2990 -0.1739
  168loPI   C3A 2681  16.006   8.152   9.186 -0.1589  0.0737 -0.0186
  168loPI   C4A 2682  16.201   8.200   8.713  0.2200 -0.0555 -0.1235
  168loPI   C5A 2683  16.091   8.116   8.278  0.1795  0.3558 -0.2874
  168loPI   C6A 2684  15.949   8.355   7.994 -0.0004  0.0143  0.2540
  168loPI   C1B 2685  15.355   8.041  10.135  0.0386 -0.2264 -0.1621
  168loPI   C2B 2686  15.510   7.966   9.707 -0.4571 -0.2271 -0.1274
  168loPI   C3B 2687  15.492   8.013   9.291  0.0378 -0.2476 -0.1690
  168loPI   C4B 2688  15.701   7.978   8.859 -0.1274 -0.2724 -0.1058
  169loPI    C1 2689  13.043  16.806  11.136 -0.1090 -0.0265 -0.0721
  169loPI    C2 2690  12.927  16.546  11.417 -0.1291 -0.0878 -0.1368
  169loPI    C3 2691  12.842  16.934  11.457  0.1356 -0.0503  0.0927
  169loPI   PO4 2692  13.024  16.638  10.903 -0.0143  0.0454  0.1502
  169loPI   GL1 2693  12.915  16.712  10.417 -0.0382 -0.1768  0.1349
  169loPI   GL2 2694  12.959  16.920  10.197  0.1282 -0.2222 -0.2469
  169loPI   C1A 2695  12.936  16.373  10.191 -0.1778 -0.1244 -0.0099
  169loPI   C2A 2696  13.045  16.166   9.747 -0.5157  0.0519  0.1406
  169loPI   C3A 2697  13.078  16.226   9.255  0.2255  0.3974 -0.0206
  169loPI   C4A 2698  13.043  16.150   8.825 -0.1619  0.2801 -0.1004
  169loPI   C5A 2699  12.937  16.069   8.481 -0.4225  0.0520 -0.0679
  169loPI   C6A 2700  12.976  16.035   8.066  0.1266 -0.1493  0.2253
  169loPI   C1B 2701  13.082  16.739   9.852  0.2295  0.0589  0.1404
  169loPI   C2B 2702  13.092  16.782   9.393  0.0875 -0.1165 -0.1529
  169loPI   C3B 2703  13.054  16.680   9.050 -0.2845  0.1749  0.2862
  169loPI   C4B 2704  13.146  16.684   8.614 -0.0320  0.0415 -0.1668
  170loPI    C1 2705   1.689  11.684  11.062 -0.1652  0.1706  0.1260
  170loPI    C2 2706   1.958  11.482  11.279 -0.1441  0.0507 -0.0100
  170loPI    C3 2707   1.607  11.586  11.441 -0.0653  0.1011  0.1300
  170loPI   PO4 2708   1.725  11.679  10.835 -0.5136 -0.1450  0.2585
  170loPI   GL1 2709   1.550  11.625  10.423 -0.3495 -0.0853 -0.0929
  170loPI   GL2 2710   1.882  11.507  10.398  0.1808  0.2327 -0.0621
  170loPI   C1A 2711   1.289  11.701  10.175  0.1359 -0.3558 -0.3251
  170loPI   C2A 2712   1.215  11.606   9.727  0.2945 -0.0504 -0.3099
  170loPI   C3A 2713   1.338  11.571   9.327  0.0377 -0.2894  0.3703
  170loPI   C4A 2714   1.282  11.717   8.964  0.1936 -0.0426 -0.1592
  170loPI   C5A 2715   1.299  11.750   8.539 -0.4040  0.0240 -0.1445
  170loPI   C6A 2716   1.642  11.776   8.251  0.1347 -0.2076  0.1079
  170loPI   C1B 2717   1.820  11.725  10.020  0.0091  0.0225  0.3691
  170loPI   C2B 2718   1.713  11.837   9.560  0.1699 -0.1986 -0.3343
  170loPI   C3B 2719   1.738  11.894   9.143  0.2211 -0.2367  0.1409
  170loPI   C4B 2720   1.739  11.821   8.728  0.1474  0.0603  0.0886
  171loPI    C1 2721   8.387   2.919  10.742 -0.0531  0.0703 -0.2263
  171loPI    C2 2722   8.055   3.118  10.844 -0.0059 -0.0414  0.1605
  171loPI    C3 2723   8.071   2.720  10.886  0.0494 -0.0815 -0.2077
  171loPI   PO4 2724   8.373   3.023  10.473 -0.2155 -0.2479  0.3310
  171loPI   GL1 2725   8.743   3.034  10.104  0.0110 -0.1574  0.2802
  171loPI   GL2 2726   8.984   3.219  10.046  0.0714  0.1598 -0.0596
  171loPI   C1A 2727   8.833   3.002   9.634 -0.0380 -0.1935  0.1317
  171loPI   C2A 2728   8.686   2.818   9.248 -0.0485 -0.0007 -0.0354
  171loPI   C3A 2729   8.762   2.470   9.021  0.1671 -0.6042  0.0875
  171loPI   C4A 2730   8.818   2.450   8.578  0.2148 -0.3485 -0.0695
  171loPI   C5A 2731   8.968   2.316   8.126  0.0494  0.0357 -0.0684
  171loPI   C6A 2732   8.811   2.448   7.865  0.0138 -0.4788  0.3507
  171loPI   C1B 2733   9.245   3.309   9.666 -0.1537 -0.1448 -0.1105
  171loPI   C2B 2734   9.052   3.281   9.240 -0.0749  0.1841 -0.1703
  171loPI   C3B 2735   8.896   3.033   8.860 -0.2802 -0.2490 -0.1763
  171loPI   C4B 2736   8.576   2.902   8.688 -0.2627 -0.0218 -0.1320
  172loPI    C1 2737   8.905  14.783  10.914  0.0331  0.0391 -0.4776
  172loPI    C2 2738   9.269  14.622  10.955  0.0302  0.1213 -0.1015
  172loPI    C3 2739   9.039  14.683  11.277 -0.3531 -0.0092 -0.3440
  172loPI   PO4 2740   8.927  14.965  10.719  0.0709  0.0625  0.2393
  172loPI   GL1 2741   8.725  15.308  10.435 -0.1825  0.0995 -0.0360
  172loPI   GL2 2742   8.487  15.117  10.428 -0.2593  0.1128  0.0895
  172loPI   C1A 2743   8.953  15.545  10.079 -0.0943 -0.0170 -0.0153
  172loPI   C2A 2744   9.134  15.509   9.741  0.1224 -0.3068 -0.3821
  172loPI   C3A 2745   9.153  15.564   9.366 -0.1407  0.1803  0.0930
  172loPI   C4A 2746   9.173  15.541   8.935 -0.2623  0.0038 -0.0952
  172loPI   C5A 2747   9.128  15.506   8.455  0.1936  0.0529  0.0537
  172loPI   C6A 2748   8.848  15.283   8.203 -0.1208 -0.2145 -0.0084
  172loPI   C1B 2749   8.501  14.950  10.017 -0.0528  0.0299 -0.1949
  172loPI   C2B 2750   8.384  14.913   9.571  0.2472  0.0256 -0.2254
  172loPI   C3B 2751   8.456  14.854   9.282 -0.5234  0.1864 -0.0560
  172loPI   C4B 2752   8.505  14.869   8.862  0.0781  0.1548  0.1185
  173loPI    C1 2753   8.387   8.660  10.484 -0.2061  0.0136  0.2307
  173loPI    C2 2754   8.456   8.470  10.830  0.3574  0.2588  0.2646
  173loPI    C3 2755   8.737   8.475  10.545  0.0277  0.3448 -0.0673
  173loPI   PO4 2756   8.145   8.473  10.375 -0.0515 -0.1560  0.2088
  173loPI   GL1 2757   8.056   8.548   9.931 -0.2140  0.0536 -0.0830
  173loPI   GL2 2758   8.206   8.273   9.863 -0.2942 -0.2416  0.0108
  173loPI   C1A 2759   8.037   8.815   9.557  0.0797  0.0935 -0.0875
  173loPI   C2A 2760   7.946   8.872   9.215 -0.0417 -0.4650  0.0570
  173loPI   C3A 2761   7.923   8.805   8.781  0.0023  0.1593  0.2249
  173loPI   C4A 2762   8.134   8.909   8.440  0.1711 -0.1396 -0.1843
  173loPI   C5A 2763   8.184   8.994   8.041  0.0961 -0.0091 -0.0287
  173loPI   C6A 2764   8.263   8.890   7.572 -0.0261  0.1090  0.0086
  173loPI   C1B 2765   8.510   8.437   9.472  0.2086  0.0318 -0.4019
  173loPI   C2B 2766   8.765   8.390   9.022  0.0506 -0.2918  0.3250
  173loPI   C3B 2767   8.822   8.486   8.563  0.0050 -0.0677  0.4649
  173loPI   C4B 2768   9.011   8.295   8.167  0.4247  0.4440  0.0783
  174loPI    C1 2769  13.812   9.192  10.664 -0.2013 -0.0752  0.0340
  174loPI    C2 2770  13.883   9.146  11.056 -0.1484 -0.1451  0.0166
  174loPI    C3 2771  13.746   9.496  10.916 -0.0627 -0.0846  0.0828
  174loPI   PO4 2772  13.619   9.008  10.542 -0.0083 -0.2285  0.2315
  174loPI   GL1 2773  13.580   9.062  10.147 -0.0669  0.1749 -0.0137
  174loPI   GL2 2774  13.617   8.910   9.916 -0.2162  0.1992 -0.1460
  174loPI   C1A 2775  13.396   9.280   9.635 -0.1558  0.0004 -0.1477
  174loPI   C2A 2776  13.515   9.301   9.237  0.0959  0.0219  0.0441
  174loPI   C3A 2777  13.625   9.295   8.802  0.0139 -0.0171 -0.0888
  174loPI   C4A 2778  13.791   9.331   8.412  0.1893 -0.2874  0.1209
  174loPI   C5A 2779  13.991   9.329   7.978 -0.0298  0.0953  0.2180
  174loPI   C6A 2780  14.212   9.378   7.574 -0.0323 -0.0441 -0.0785
  174loPI   C1B 2781  13.768   8.947   9.531 -0.1912  0.1038 -0.0374
  174loPI   C2B 2782  13.869   8.879   9.121  0.1513  0.1501 -0.2067
  174loPI   C3B 2783  14.044   9.003   8.776 -0.0978  0.0566 -0.1249
  174loPI   C4B 2784  14.176   8.835   8.416  0.0645  0.2627  0.2927
  175loPI    C1 2785   2.548   7.624  10.870  0.3392  0.2252 -0.1825
  175loPI    C2 2786   2.858   7.444  11.049  0.1764  0.0371 -0.0860
  175loPI    C3 2787   2.551   7.578  11.268  0.1453  0.1379 -0.1904
  175loPI   PO4 2788   2.452   7.507  10.619 -0.1882 -0.2051 -0.1276
  175loPI   GL1 2789   2.346   7.128  10.406 -0.1978  0.0252 -0.1579
  175loPI   GL2 2790   2.140   7.383  10.275 -0.0384  0.1672 -0.2149
  175loPI   C1A 2791   2.315   6.942  10.053 -0.1336  0.0235  0.0288
  175loPI   C2A 2792   2.333   7.114   9.632  0.2250 -0.0033 -0.1824
  175loPI   C3A 2793   2.168   7.153   9.207  0.1164 -0.1043  0.2418
  175loPI   C4A 2794   2.134   7.192   8.729 -0.0246 -0.1311  0.0756
  175loPI   C5A 2795   2.150   7.162   8.384  0.1697  0.0894  0.2780
  175loPI   C6A 2796   2.137   7.258   7.972  0.2102 -0.0565  0.3092
  175loPI   C1B 2797   1.982   7.564   9.861  0.1393 -0.1879  0.1434
  175loPI   C2B 2798   1.825   7.466   9.443  0.1275  0.0703  0.2609
  175loPI   C3B 2799   1.899   7.564   8.956 -0.1237  0.0586 -0.1799
  175loPI   C4B 2800   1.848   7.571   8.510 -0.0759 -0.0044 -0.0410
  176loPI    C1 2801   4.874   5.938   9.989 -0.0620 -0.0541  0.0307
  176loPI    C2 2802   4.788   5.952  10.380  0.1497 -0.1079  0.0806
  176loPI    C3 2803   5.164   5.887  10.260  0.0845 -0.1000 -0.1330
  176loPI   PO4 2804   4.550   6.027   9.892  0.1128  0.0127 -0.3002
  176loPI   GL1 2805   4.437   6.053   9.556 -0.4142  0.0955 -0.1810
  176loPI   GL2 2806   4.268   5.770   9.485 -0.1616  0.2669  0.1052
  176loPI   C1A 2807   4.436   6.275   9.226 -0.1326  0.0084  0.1724
  176loPI   C2A 2808   4.365   6.279   8.767  0.2420 -0.1187 -0.1325
  176loPI   C3A 2809   4.110   6.297   8.379  0.1304 -0.2389  0.0833
  176loPI   C4A 2810   4.139   6.220   8.021  0.1575 -0.2761 -0.0327
  176loPI   C5A 2811   3.968   6.290   7.645 -0.2357  0.0929  0.1532
  176loPI   C6A 2812   3.772   6.389   7.336  0.1530 -0.0165  0.0338
  176loPI   C1B 2813   4.381   5.793   9.031  0.0710  0.0831  0.1271
  176loPI   C2B 2814   4.220   5.764   8.660  0.0886  0.2020  0.0941
  176loPI   C3B 2815   4.095   5.802   8.249 -0.4156  0.0077  0.1060
  176loPI   C4B 2816   3.758   5.893   7.949  0.2921  0.2506  0.1077
  177loPI    C1 2817  14.806  14.650  11.198 -0.1427 -0.0337  0.1450
  177loPI    C2 2818  14.774  15.026  11.330  0.3465  0.0675 -0.0059
  177loPI    C3 2819  14.729  14.721  11.584 -0.1733  0.2182  0.0941
  177loPI   PO4 2820  14.632  14.532  11.027 -0.0354 -0.2664 -0.0441
  177loPI   GL1 2821  14.502  14.396  10.618 -0.0565  0.2803  0.1327
  177loPI   GL2 2822  14.185  14.594  10.494  0.2623 -0.0493  0.0070
  177loPI   C1A 2823  14.363  14.308  10.051  0.0984  0.2590  0.2514
  177loPI   C2A 2824  14.413  14.288   9.626 -0.0480 -0.1631 -0.0722
  177loPI   C3A 2825  14.469  14.272   9.274  0.1095  0.4787 -0.3215
  177loPI   C4A 2826  14.560  14.299   8.767  0.0098 -0.2995 -0.2684
  177loPI   C5A 2827  14.546  14.290   8.400  0.1969 -0.2319 -0.4271
  177loPI   C6A 2828  14.573  14.066   8.030  0.0780  0.0079 -0.3635
  177loPI   C1B 2829  13.979  14.627  10.041 -0.1925  0.2735 -0.0348
  177loPI   C2B 2830  13.972  14.636   9.571 -0.0919  0.1395 -0.1804
  177loPI   C3B 2831  14.076  14.630   9.095  0.2093 -0.3665 -0.0099
  177loPI   C4B 2832  14.170  14.700   8.665 -0.0820 -0.2571 -0.1771
  178loPI    C1 2833  15.520   3.423  10.528  0.1531  0.2501  0.1499
  178loPI    C2 2834  15.661   3.671  10.808  0.2373  0.2183  0.1361
  178loPI    C3 2835  15.733   3.279  10.834 -0.0677  0.1681  0.2671
  178loPI   PO4 2836  15.612   3.547  10.336 -0.0459  0.0902  0.0586
  178loPI   GL1 2837  15.465   3.538   9.912  0.0329  0.0552  0.2437
  178loPI   GL2 2838  15.338   3.171  10.074 -0.0038  0.1706 -0.0712
  178loPI   C1A 2839  15.493   3.738   9.541 -0.1166  0.2422 -0.0578
  178loPI   C2A 2840  15.490   3.646   9.033 -0.0857 -0.1444  0.2054
  178loPI   C3A 2841  15.591   3.732   8.583  0.2460 -0.0620  0.0358
  178loPI   C4A 2842  15.598   3.884   8.187 -0.1503  0.0559 -0.3288
  178loPI   C5A 2843  15.594   4.097   7.792 -0.1704 -0.0843 -0.0650
  178loPI   C6A 2844  15.892   4.361   7.752 -0.0623 -0.0576  0.0254
  178loPI   C1B 2845  15.348   3.060   9.592 -0.1878 -0.1494  0.0129
  178loPI   C2B 2846  15.361   3.087   9.222  0.1009  0.0431  0.0481
  178loPI   C3B 2847  15.399   3.168   8.750  0.0992  0.2942  0.2820
  178loPI   C4B 2848  15.440   3.282   8.347  0.0324 -0.0008  0.2293
  179loPI    C1 2849  14.587   2.326  10.609 -0.0792 -0.0014 -0.3606
  179loPI    C2 2850  14.921   2.383  10.821 -0.4471  0.2263  0.1796
  179loPI    C3 2851  14.792   2.668  10.572 -0.3235  0.2017  0.0865
  179loPI   PO4 2852  14.697   2.037  10.472  0.0465  0.1357 -0.0748
  179loPI   GL1 2853  14.529   1.731  10.222 -0.0221 -0.0433 -0.0926
  179loPI   GL2 2854  14.181   1.731  10.119  0.0831  0.1142  0.1563
  179loPI   C1A 2855  14.691   1.875   9.863  0.2056  0.1758 -0.0677
  179loPI   C2A 2856  14.676   1.854   9.420  0.1062  0.1435 -0.0639
  179loPI   C3A 2857  14.743   1.797   9.007  0.1666 -0.3440  0.2404
  179loPI   C4A 2858  14.796   1.967   8.684  0.1919 -0.2707  0.0392
  179loPI   C5A 2859  14.815   1.821   8.237  0.1071 -0.0905  0.1349
  179loPI   C6A 2860  14.717   2.171   7.955  0.2630  0.2721 -0.1038
  179loPI   C1B 2861  14.233   1.827   9.664 -0.0783  0.0598 -0.0088
  179loPI   C2B 2862  14.237   1.668   9.351  0.0135  0.0932  0.0999
  179loPI   C3B 2863  14.301   1.743   8.809 -0.0903 -0.0435  0.0960
  179loPI   C4B 2864  14.358   1.829   8.376 -0.0283 -0.0598 -0.0942
  180loPI    C1 2865  16.157  14.342  11.057 -0.1603 -0.0683 -0.0385
  180loPI    C2 2866  16.286  14.675  11.238 -0.0150 -0.0181 -0.2311
  180loPI    C3 2867  15.894  14.596  11.219 -0.0623  0.2312 -0.3373
  180loPI   PO4 2868  16.241  14.314  10.772 -0.3034  0.0799  0.0104
  180loPI   GL1 2869  16.049  14.219  10.437 -0.0613 -0.1319  0.3552
  180loPI   GL2 2870  16.281  14.332  10.192  0.3626  0.0989  0.2919
  180loPI   C1A 2871  15.828  14.232   9.966 -0.0824  0.1129 -0.2649
  180loPI   C2A 2872  15.886  14.227   9.549  0.1427  0.3157 -0.0668
  180loPI   C3A 2873  15.970  14.249   9.146 -0.1465  0.1310 -0.0670
  180loPI   C4A 2874  15.966  14.223   8.748 -0.0733  0.2353  0.1420
  180loPI   C5A 2875  16.117  14.053   8.384  0.0926  0.0324  0.2170
  180loPI   C6A 2876  16.371  13.880   8.078  0.3111 -0.0140  0.0727
  180loPI   C1B 2877  16.261  14.398   9.832  0.1275  0.2844 -0.0971
  180loPI   C2B 2878  16.379  14.425   9.402  0.1691 -0.2791  0.1704
  180loPI   C3B 2879  16.419  14.520   8.925 -0.0152 -0.3910 -0.2584
  180loPI   C4B 2880  16.397  14.395   8.497 -0.1100  0.1518  0.0957
  181loPI    C1 2881   6.368   9.637  10.476  0.0227 -0.1031 -0.1015
  181loPI    C2 2882   6.257   9.508  10.838  0.1973 -0.1816 -0.0751
  181loPI    C3 2883   6.633   9.629  10.775  0.0791  0.1625 -0.1418
  181loPI   PO4 2884   6.078   9.816  10.371  0.2263  0.0412 -0.2516
  181loPI   GL1 2885   5.753   9.704  10.153 -0.0742  0.2345 -0.2040
  181loPI   GL2 2886   5.792   9.997  10.000 -0.2071 -0.1373  0.2227
  181loPI   C1A 2887   5.783   9.540   9.716 -0.0783  0.0277  0.0566
  181loPI   C2A 2888   5.732   9.498   9.304  0.1255 -0.0547  0.4595
  181loPI   C3A 2889   5.556   9.586   9.018  0.1968  0.2057 -0.0487
  181loPI   C4A 2890   5.529   9.797   8.661 -0.1250 -0.0287 -0.0992
  181loPI   C5A 2891   5.889   9.959   8.263 -0.0474  0.0958  0.1075
  181loPI   C6A 2892   6.007   9.890   7.874 -0.0863  0.1977  0.2263
  181loPI   C1B 2893   5.821  10.038   9.604  0.1095  0.1684 -0.1694
  181loPI   C2B 2894   5.671  10.110   9.135  0.2623  0.1968  0.2857
  181loPI   C3B 2895   5.695  10.244   8.651 -0.2757 -0.0052 -0.2725
  181loPI   C4B 2896   5.357  10.227   8.429  0.3899  0.0008  0.0225
  182loPI    C1 2897  12.316   4.863  10.142  0.0363  0.0189  0.2399
  182loPI    C2 2898  12.093   5.151   9.976 -0.0228 -0.0287  0.2363
  182loPI    C3 2899  12.025   5.038  10.354 -0.0933 -0.1359  0.1920
  182loPI   PO4 2900  12.422   4.783   9.919 -0.1007 -0.4473  0.0876
  182loPI   GL1 2901  12.562   4.687   9.612  0.1163  0.1202  0.0656
  182loPI   GL2 2902  12.844   4.460   9.507  0.1427 -0.0623  0.2156
  182loPI   C1A 2903  12.500   4.732   9.219  0.0700 -0.2342 -0.0881
  182loPI   C2A 2904  12.348   4.827   8.855  0.3304 -0.2349 -0.0883
  182loPI   C3A 2905  12.440   4.838   8.429 -0.3823 -0.1588  0.3342
  182loPI   C4A 2906  12.377   4.603   8.053 -0.0444  0.0913  0.0607
  182loPI   C5A 2907  11.932   4.608   7.828 -0.1292  0.0698 -0.0364
  182loPI   C6A 2908  11.504   4.741   7.660  0.0143 -0.1083  0.0700
  182loPI   C1B 2909  12.847   4.390   9.023  0.2109  0.0504  0.1005
  182loPI   C2B 2910  12.888   4.456   8.548 -0.0319  0.1900  0.2068
  182loPI   C3B 2911  12.915   4.309   8.163  0.0455 -0.1496 -0.0692
  182loPI   C4B 2912  12.973   3.967   7.794 -0.0345 -0.1784  0.3014
  183loPI    C1 2913   0.502   5.827  10.864 -0.0775  0.0220 -0.0320
  183loPI    C2 2914   0.304   5.497  10.974  0.1983 -0.0935  0.1295
  183loPI    C3 2915   0.555   5.674  11.230  0.1886  0.1397 -0.0192
  183loPI   PO4 2916   0.645   5.755  10.591 -0.1566 -0.3198 -0.0595
  183loPI   GL1 2917   0.384   5.833  10.198 -0.0054  0.0028  0.1574
  183loPI   GL2 2918   0.164   5.837  10.130  0.0440 -0.1735 -0.1009
  183loPI   C1A 2919   0.459   5.589   9.813  0.3884  0.0133  0.1025
  183loPI   C2A 2920   0.435   5.644   9.312  0.1565 -0.0150 -0.1518
  183loPI   C3A 2921   0.458   5.733   8.944  0.0606 -0.2435 -0.2299
  183loPI   C4A 2922   0.474   5.819   8.574 -0.1451 -0.4372 -0.0571
  183loPI   C5A 2923   0.415   5.619   8.171  0.0388  0.0002 -0.2183
  183loPI   C6A 2924   0.433   5.211   8.115 -0.0872  0.1138  0.0455
  183loPI   C1B 2925   0.101   5.945   9.699  0.2019 -0.0436  0.2054
  183loPI   C2B 2926   0.139   5.997   9.187 -0.1960  0.1544  0.1860
  183loPI   C3B 2927   0.062   6.091   8.773 -0.3545 -0.0772  0.0476
  183loPI   C4B 2928  -0.020   6.258   8.232  0.1841  0.0662  0.0098
  184loPI    C1 2929   9.081   7.016  10.461 -0.0172 -0.0741  0.0279
  184loPI    C2 2930   9.321   6.704  10.389 -0.0864 -0.1195 -0.0071
  184loPI    C3 2931   9.382   6.933  10.711  0.0726 -0.0636 -0.0756
  184loPI   PO4 2932   9.106   7.109  10.144 -0.5486  0.3429  0.1430
  184loPI   GL1 2933   8.819   6.949   9.734 -0.5317 -0.1389  0.2441
  184loPI   GL2 2934   8.918   6.628   9.546  0.1080 -0.1436  0.2184
  184loPI   C1A 2935   9.084   7.075   9.430  0.0777 -0.0499 -0.1647
  184loPI   C2A 2936   9.186   7.141   9.077 -0.2249  0.0645  0.3897
  184loPI   C3A 2937   9.104   7.263   8.712  0.1125 -0.0558 -0.3189
  184loPI   C4A 2938   8.834   7.473   8.395  0.3044  0.0656 -0.0684
  184loPI   C5A 2939   8.576   7.714   8.121  0.0241  0.0124  0.2206
  184loPI   C6A 2940   8.335   7.772   7.771  0.2354 -0.0990 -0.1553
  184loPI   C1B 2941   8.761   6.433   9.132  0.2072  0.1047  0.1199
  184loPI   C2B 2942   8.822   6.042   8.877 -0.0590 -0.4270  0.3393
  184loPI   C3B 2943   9.098   6.042   8.584  0.2204 -0.1881 -0.0624
  184loPI   C4B 2944   9.234   6.361   8.275  0.1709  0.1506  0.0317
  185loPI    C1 2945   6.971  14.529  10.706 -0.1123 -0.0266 -0.0351
  185loPI    C2 2946   7.243  14.394  10.966 -0.0369  0.0158 -0.0915
  185loPI    C3 2947   6.872  14.475  11.089 -0.0515 -0.1346 -0.0339
  185loPI   PO4 2948   7.108  14.619  10.523 -0.0834 -0.1008 -0.0240
  185loPI   GL1 2949   7.191  14.521  10.162 -0.2182 -0.3016  0.0091
  185loPI   GL2 2950   7.226  14.847  10.072  0.2204  0.0713  0.1605
  185loPI   C1A 2951   7.119  14.629   9.685  0.2166  0.1341  0.0386
  185loPI   C2A 2952   7.082  14.630   9.260 -0.1302 -0.1700 -0.0438
  185loPI   C3A 2953   6.992  14.436   8.937 -0.0545  0.0288 -0.3086
  185loPI   C4A 2954   6.990  14.513   8.455 -0.0904 -0.2647 -0.0783
  185loPI   C5A 2955   6.670  14.603   8.137  0.0874  0.1162 -0.0143
  185loPI   C6A 2956   6.455  14.907   7.834 -0.0403  0.2591  0.2060
  185loPI   C1B 2957   6.971  15.126   9.892  0.1473 -0.3545 -0.2686
  185loPI   C2B 2958   6.987  15.131   9.414 -0.2705 -0.1376 -0.2411
  185loPI   C3B 2959   7.082  15.048   8.889  0.0241  0.1393  0.2042
  185loPI   C4B 2960   7.185  14.991   8.479  0.0517  0.0056 -0.0791
  186loPI    C1 2961  14.400  17.653  10.874  0.1225 -0.1428  0.2287
  186loPI    C2 2962  14.536  17.892  11.164 -0.0845  0.0902  0.1366
  186loPI    C3 2963  14.151  17.908  11.055  0.0044  0.0513 -0.1944
  186loPI   PO4 2964  14.469  17.656  10.660 -0.2323 -0.2127  0.0588
  186loPI   GL1 2965  14.397  17.579  10.187 -0.0426 -0.1685  0.0214
  186loPI   GL2 2966  14.576  17.664  10.028 -0.2965 -0.0078 -0.3975
  186loPI   C1A 2967  14.153  17.539   9.758 -0.0176 -0.0571  0.4808
  186loPI   C2A 2968  14.217  17.573   9.319 -0.2089 -0.2967  0.0604
  186loPI   C3A 2969  14.161  17.546   8.910  0.1259  0.4407  0.0772
  186loPI   C4A 2970  14.217  17.572   8.592 -0.0411 -0.2242 -0.0949
  186loPI   C5A 2971  14.265  17.309   8.230  0.0239  0.1021 -0.0912
  186loPI   C6A 2972  14.270  17.287   7.759 -0.2505  0.1486  0.2348
  186loPI   C1B 2973  14.681  17.715   9.507 -0.0983 -0.2800 -0.1923
  186loPI   C2B 2974  14.790  17.771   9.141 -0.4162  0.0187  0.0922
  186loPI   C3B 2975  14.698  17.775   8.729  0.1196  0.1875  0.1101
  186loPI   C4B 2976  14.571  17.884   8.380 -0.0059 -0.0148  0.0190
  187loPI    C1 2977   7.863  14.067  10.776  0.0433 -0.0475 -0.0356
  187loPI    C2 2978   8.244  14.185  10.799 -0.0080  0.1701 -0.2660
  187loPI    C3 2979   8.136  13.829  10.946  0.2359  0.2115  0.0220
  187loPI   PO4 2980   7.873  14.118  10.503  0.2365 -0.2920 -0.0013
  187loPI   GL1 2981   7.942  13.965  10.073  0.1387  0.1936 -0.1260
  187loPI   GL2 2982   8.213  13.808   9.963  0.0089  0.2553  0.2299
  187loPI   C1A 2983   7.920  14.149   9.642 -0.0200  0.0734  0.3478
  187loPI   C2A 2984   7.859  14.196   9.251 -0.2514  0.2066  0.0370
  187loPI   C3A 2985   7.890  14.217   8.858 -0.2535 -0.2622 -0.0768
  187loPI   C4A 2986   7.861  14.251   8.379  0.3575  0.3613 -0.3579
  187loPI   C5A 2987   7.843  14.239   7.958  0.0309  0.2388 -0.2602
  187loPI   C6A 2988   7.615  14.379   7.499  0.2364 -0.0082 -0.0789
  187loPI   C1B 2989   8.322  13.741   9.509  0.0979  0.1726 -0.1465
  187loPI   C2B 2990   8.263  13.899   9.090  0.0231 -0.1147  0.0089
  187loPI   C3B 2991   8.183  13.845   8.583  0.0884  0.0260 -0.1042
  187loPI   C4B 2992   7.982  13.801   8.154 -0.2167  0.1550 -0.3525
  188loPI    C1 2993   2.566  16.523  11.020  0.1298 -0.1920  0.0707
  188loPI    C2 2994   2.249  16.282  10.989 -0.0541  0.0217  0.2543
  188loPI    C3 2995   2.414  16.350  11.347  0.1787 -0.0602  0.1642
  188loPI   PO4 2996   2.484  16.714  10.858 -0.0274 -0.2585 -0.0526
  188loPI   GL1 2997   2.087  16.648  10.675 -0.2587 -0.0627  0.0373
  188loPI   GL2 2998   2.111  16.984  10.731  0.2391  0.1771  0.0560
  188loPI   C1A 2999   1.876  16.704  10.260 -0.2769  0.4011  0.0809
  188loPI   C2A 3000   1.772  16.765   9.857  0.2278 -0.1365 -0.0132
  188loPI   C3A 3001   1.889  16.671   9.413 -0.0933  0.1979 -0.2695
  188loPI   C4A 3002   1.897  16.768   8.876  0.2855  0.2055  0.0939
  188loPI   C5A 3003   1.978  16.816   8.503  0.1406 -0.1513  0.1334
  188loPI   C6A 3004   2.108  16.755   8.234 -0.3130  0.2512  0.3585
  188loPI   C1B 3005   2.053  17.177  10.269  0.1486 -0.1488  0.3456
  188loPI   C2B 3006   2.227  17.012   9.853 -0.1813 -0.3592  0.0876
  188loPI   C3B 3007   2.351  16.917   9.475  0.3010 -0.0648 -0.0701
  188loPI   C4B 3008   2.321  16.949   9.101  0.1464 -0.0202  0.1233
  189loPI    C1 3009  13.178   2.957  10.896 -0.1594  0.1515  0.0275
  189loPI    C2 3010  13.057   2.584  10.973  0.0145  0.0240 -0.2991
  189loPI    C3 3011  12.969   2.879  11.228  0.2063 -0.3047  0.1607
  189loPI   PO4 3012  13.174   2.950  10.607  0.1159  0.1481 -0.1191
  189loPI   GL1 3013  13.299   2.953  10.135  0.1905 -0.0167 -0.4610
  189loPI   GL2 3014  13.023   2.696  10.105  0.0391  0.2988  0.0940
  189loPI   C1A 3015  13.238   3.155   9.673  0.0665 -0.0175 -0.4376
  189loPI   C2A 3016  13.338   3.081   9.340 -0.1797  0.0337  0.2296
  189loPI   C3A 3017  13.334   3.194   8.952 -0.2254  0.0232  0.2851
  189loPI   C4A 3018  13.296   3.233   8.541 -0.2245  0.0794 -0.0556
  189loPI   C5A 3019  13.308   3.196   8.108  0.1465  0.1476  0.3036
  189loPI   C6A 3020  13.220   3.457   7.785 -0.1064  0.2063 -0.1720
  189loPI   C1B 3021  12.911   2.762   9.721 -0.3885  0.3076  0.1188
  189loPI   C2B 3022  12.966   2.786   9.286 -0.1129  0.1325 -0.0362
  189loPI   C3B 3023  13.039   2.735   8.900 -0.2612 -0.1455 -0.0299
  189loPI   C4B 3024  13.043   2.794   8.486 -0.1283  0.1574 -0.3131
  190loPI    C1 3025   7.921   8.861  10.488  0.0643 -0.1294 -0.1918
  190loPI    C2 3026   7.679   8.707  10.767  0.0771 -0.1490 -0.1914
  190loPI    C3 3027   8.064   8.775  10.851  0.0055  0.1561 -0.0989
  190loPI   PO4 3028   7.695   8.905  10.247 -0.0608  0.0326 -0.2103
  190loPI   GL1 3029   7.586   8.801   9.855 -0.0779 -0.1226 -0.1309
  190loPI   GL2 3030   7.482   8.493   9.712  0.1759 -0.1182 -0.1542
  190loPI   C1A 3031   7.529   8.913   9.484 -0.0699 -0.1319 -0.2372
  190loPI   C2A 3032   7.494   8.883   9.065  0.5058 -0.1515  0.1430
  190loPI   C3A 3033   7.337   9.206   8.729 -0.0919  0.3029 -0.2127
  190loPI   C4A 3034   7.259   9.169   8.308  0.1751 -0.0807  0.2397
  190loPI   C5A 3035   7.112   9.290   7.891 -0.4395 -0.1400  0.3755
  190loPI   C6A 3036   6.738   9.202   7.686  0.2173  0.1536  0.3909
  190loPI   C1B 3037   7.666   8.335   9.305 -0.0137  0.0400 -0.0350
  190loPI   C2B 3038   7.767   8.151   8.883 -0.3339 -0.0735  0.0823
  190loPI   C3B 3039   7.719   8.247   8.449 -0.1290 -0.3044  0.1897
  190loPI   C4B 3040   7.525   8.302   8.017  0.3885  0.1591 -0.1892
  191loPI    C1 3041  14.050   3.593  10.395  0.0512  0.2096  0.2063
  191loPI    C2 3042  14.199   3.340  10.667  0.2919  0.0858 -0.0359
  191loPI    C3 3043  13.944   3.627  10.780  0.2632 -0.0636  0.2924
  191loPI   PO4 3044  14.235   3.712  10.184 -0.1244 -0.1861  0.1977
  191loPI   GL1 3045  14.207   3.864   9.708  0.1044  0.0980 -0.1970
  191loPI   GL2 3046  14.505   3.982   9.655 -0.1769  0.2311  0.1339
  191loPI   C1A 3047  14.113   3.839   9.236  0.3285 -0.0883  0.1689
  191loPI   C2A 3048  14.100   3.808   8.829  0.1130 -0.1061  0.1136
  191loPI   C3A 3049  14.272   3.706   8.432 -0.1406  0.0029  0.1299
  191loPI   C4A 3050  14.426   3.678   7.957  0.3066  0.2133  0.1485
  191loPI   C5A 3051  14.821   3.590   7.822  0.2016 -0.1672 -0.2143
  191loPI   C6A 3052  15.043   3.533   7.509 -0.1002  0.0138  0.0698
  191loPI   C1B 3053  14.611   3.961   9.245  0.0268 -0.0931  0.5447
  191loPI   C2B 3054  14.609   3.939   8.751 -0.1597  0.0760 -0.0900
  191loPI   C3B 3055  14.719   3.997   8.328  0.1214 -0.0033 -0.1954
  191loPI   C4B 3056  14.687   4.152   7.873 -0.0772 -0.0736 -0.0563
  192loPI    C1 3057   6.419   4.040  10.166  0.2391  0.0305  0.0695
  192loPI    C2 3058   6.454   3.755  10.445  0.0660  0.1446  0.2099
  192loPI    C3 3059   6.587   4.125  10.519  0.1950  0.1280  0.0674
  192loPI   PO4 3060   6.436   3.885   9.978  0.0948  0.0175 -0.4683
  192loPI   GL1 3061   6.302   3.779   9.626 -0.0548  0.4007  0.2479
  192loPI   GL2 3062   6.443   3.452   9.655 -0.0522 -0.0687  0.0602
  192loPI   C1A 3063   5.948   3.466   9.631  0.0491 -0.0023  0.2069
  192loPI   C2A 3064   5.731   3.160   9.346 -0.0541  0.1566 -0.1400
  192loPI   C3A 3065   5.689   3.040   8.852  0.0737 -0.1135 -0.1375
  192loPI   C4A 3066   5.537   2.993   8.462 -0.3390  0.1061 -0.3009
  192loPI   C5A 3067   5.552   2.958   8.027 -0.0589 -0.0986  0.1031
  192loPI   C6A 3068   5.444   3.100   7.661  0.0040 -0.1395  0.0071
  192loPI   C1B 3069   6.567   3.414   9.353 -0.2098 -0.1669 -0.0344
  192loPI   C2B 3070   6.547   3.338   8.917 -0.0595  0.0115 -0.2234
  192loPI   C3B 3071   6.320   3.535   8.499 -0.0564  0.3678  0.0940
  192loPI   C4B 3072   5.944   3.590   8.398 -0.1801  0.2306 -0.0559
  193loPI    C1 3073  12.335   6.064  10.234 -0.1838  0.0980  0.0206
  193loPI    C2 3074  12.270   5.941  10.609  0.0124  0.1624  0.0771
  193loPI    C3 3075  12.007   6.183  10.429 -0.1617  0.0044  0.1157
  193loPI   PO4 3076  12.377   5.897  10.111 -0.0136  0.1778 -0.0753
  193loPI   GL1 3077  12.355   5.690   9.728 -0.1622  0.2077  0.1448
  193loPI   GL2 3078  12.651   5.663   9.723  0.3406  0.1938  0.0193
  193loPI   C1A 3079  12.205   5.689   9.312  0.1837 -0.4219  0.2304
  193loPI   C2A 3080  12.205   5.843   8.973 -0.0163 -0.0482  0.1105
  193loPI   C3A 3081  12.240   5.772   8.612 -0.0847  0.1997  0.1398
  193loPI   C4A 3082  12.256   5.692   8.199 -0.0112  0.3057  0.3470
  193loPI   C5A 3083  12.366   5.580   7.828  0.2030 -0.1406 -0.0404
  193loPI   C6A 3084  12.666   5.466   7.537 -0.1481  0.0281  0.0872
  193loPI   C1B 3085  12.606   5.948   9.313 -0.0629  0.1142  0.1189
  193loPI   C2B 3086  12.713   5.974   8.807 -0.4509  0.0985  0.1346
  193loPI   C3B 3087  12.755   5.772   8.412 -0.2885 -0.0571 -0.1728
  193loPI   C4B 3088  12.796   5.640   8.066  0.1089 -0.4342  0.2060
  194loPI    C1 3089  12.225  11.956  10.752  0.0249  0.0158  0.1249
  194loPI    C2 3090  12.124  12.142  11.091  0.2129  0.1410  0.1138
  194loPI    C3 3091  12.223  11.755  11.097  0.1285  0.1204  0.1870
  194loPI   PO4 3092  12.114  12.228  10.563 -0.0514  0.0834 -0.3042
  194loPI   GL1 3093  12.173  12.380  10.163  0.0761 -0.0194 -0.0406
  194loPI   GL2 3094  12.322  12.543   9.941 -0.0917 -0.1739 -0.3411
  194loPI   C1A 3095  12.157  12.028   9.775  0.2496  0.0194 -0.3087
  194loPI   C2A 3096  12.230  11.991   9.307 -0.1475 -0.4894  0.0370
  194loPI   C3A 3097  12.165  12.176   8.888  0.0991  0.1029  0.3233
  194loPI   C4A 3098  12.053  12.129   8.485 -0.2637 -0.1323 -0.0030
  194loPI   C5A 3099  11.988  11.893   8.093 -0.2321 -0.1851 -0.2618
  194loPI   C6A 3100  12.153  11.512   7.976  0.3308  0.4458 -0.2887
  194loPI   C1B 3101  12.260  12.524   9.515 -0.1904 -0.2301 -0.0544
  194loPI   C2B 3102  12.359  12.622   9.119  0.2592  0.0407 -0.3810
  194loPI   C3B 3103  12.265  12.656   8.741  0.2942 -0.2244  0.1542
  194loPI   C4B 3104  12.295  12.572   8.302  0.1517  0.1474 -0.2925
  195loPI    C1 3105   6.995  12.653  10.799  0.1463  0.0437 -0.2257
  195loPI    C2 3106   7.125  12.393  10.524  0.2136 -0.0580 -0.0991
  195loPI    C3 3107   7.061  12.271  10.899  0.1208  0.0797 -0.0695
  195loPI   PO4 3108   7.119  12.886  10.726  0.0528 -0.0243 -0.2244
  195loPI   GL1 3109   7.128  12.899  10.315 -0.0399 -0.0909  0.1140
  195loPI   GL2 3110   7.396  12.768  10.309 -0.0621 -0.0731  0.0457
  195loPI   C1A 3111   7.141  12.939   9.812 -0.1806 -0.2146  0.0425
  195loPI   C2A 3112   7.173  13.064   9.376  0.5482 -0.3278 -0.0504
  195loPI   C3A 3113   7.221  13.068   9.008  0.2662  0.1446 -0.0406
  195loPI   C4A 3114   7.151  13.154   8.616 -0.0291  0.2809 -0.0234
  195loPI   C5A 3115   7.202  13.174   8.144 -0.0606 -0.1041  0.2332
  195loPI   C6A 3116   7.511  13.464   8.140  0.0032 -0.0581  0.2269
  195loPI   C1B 3117   7.231  12.490  10.037 -0.1709  0.1501 -0.0734
  195loPI   C2B 3118   7.097  12.432   9.588 -0.0082  0.4118  0.0891
  195loPI   C3B 3119   7.050  12.588   9.186 -0.1981  0.1876  0.0578
  195loPI   C4B 3120   7.014  12.590   8.853 -0.1055  0.2794  0.2747
  196loPI    C1 3121  16.995  11.959  11.196 -0.0346  0.0064 -0.1063
  196loPI    C2 3122  17.242  11.786  11.459 -0.0421 -0.1173 -0.1801
  196loPI    C3 3123  16.850  11.807  11.537 -0.0926 -0.4481 -0.3259
  196loPI   PO4 3124  17.086  12.107  11.086  0.3861 -0.0127 -0.0043
  196loPI   GL1 3125  17.269  12.021  10.723 -0.0418 -0.0743 -0.0316
  196loPI   GL2 3126  17.359  11.777  10.719  0.1604 -0.0182  0.1536
  196loPI   C1A 3127  17.281  11.866  10.242  0.4320 -0.0763  0.3576
  196loPI   C2A 3128  17.312  11.950   9.822  0.1290  0.0134  0.0374
  196loPI   C3A 3129  17.377  11.820   9.478 -0.0478  0.3284 -0.0966
  196loPI   C4A 3130  17.351  11.863   9.101  0.0713 -0.2182 -0.0495
  196loPI   C5A 3131  17.210  11.860   8.628 -0.3484  0.2300  0.3514
  196loPI   C6A 3132  17.301  11.867   8.199 -0.0992 -0.0214 -0.0067
  196loPI   C1B 3133  17.637  11.503  10.414 -0.1713  0.2050 -0.0680
  196loPI   C2B 3134  17.645  11.514   9.942 -0.4268  0.0778  0.1403
  196loPI   C3B 3135  17.676  11.441   9.570  0.1198  0.1892  0.0228
  196loPI   C4B 3136  17.702  11.523   9.050 -0.0649  0.1662 -0.1818
  197loPI    C1 3137   6.886   8.637  10.497  0.0930  0.0996  0.0858
  197loPI    C2 3138   6.990   8.874  10.803 -0.3376 -0.1937  0.4732
  197loPI    C3 3139   7.238   8.584  10.681 -0.0308  0.1208  0.3338
  197loPI   PO4 3140   6.677   8.728  10.338  0.2407 -0.4614  0.0242
  197loPI   GL1 3141   6.516   8.803   9.965  0.1465  0.2192  0.3693
  197loPI   GL2 3142   6.690   9.204   9.831  0.4205  0.0591  0.2676
  197loPI   C1A 3143   6.538   8.847   9.541  0.5869 -0.0447  0.1141
  197loPI   C2A 3144   6.517   9.083   9.081  0.2212 -0.0914  0.1738
  197loPI   C3A 3145   6.897   9.033   8.790  0.2025  0.2901 -0.0056
  197loPI   C4A 3146   6.968   8.739   8.401 -0.1389 -0.0814  0.0791
  197loPI   C5A 3147   7.228   8.699   8.098  0.0211 -0.2170  0.0738
  197loPI   C6A 3148   7.408   8.881   7.740  0.2751  0.1547 -0.1103
  197loPI   C1B 3149   6.596   9.461   9.515  0.0113 -0.3022  0.0283
  197loPI   C2B 3150   6.510   9.571   9.056 -0.0198 -0.2065 -0.0750
  197loPI   C3B 3151   6.557   9.371   8.651  0.3062 -0.0767 -0.1806
  197loPI   C4B 3152   6.728   9.145   8.249 -0.3169 -0.0480  0.1829
  198loPI    C1 3153   2.672   1.125  10.749 -0.0291  0.0465 -0.1605
  198loPI    C2 3154   2.318   1.302  10.809 -0.0848 -0.0522 -0.1938
  198loPI    C3 3155   2.373   0.923  10.924  0.0544  0.0067 -0.0625
  198loPI   PO4 3156   2.761   1.111  10.463 -0.0135  0.0042  0.3127
  198loPI   GL1 3157   2.762   1.337  10.048  0.2483 -0.0900  0.1421
  198loPI   GL2 3158   2.875   1.493   9.918  0.1418  0.1063  0.1195
  198loPI   C1A 3159   2.386   1.260   9.731 -0.2457  0.1539 -0.0286
  198loPI   C2A 3160   2.426   1.092   9.342 -0.4892 -0.0524  0.0856
  198loPI   C3A 3161   2.393   1.050   8.859  0.3182  0.0027 -0.2842
  198loPI   C4A 3162   2.358   0.933   8.388 -0.0542  0.3230 -0.0180
  198loPI   C5A 3163   2.496   0.995   7.983 -0.0550 -0.3961  0.0067
  198loPI   C6A 3164   2.613   0.914   7.495 -0.4222  0.3072  0.0001
  198loPI   C1B 3165   2.891   1.368   9.505 -0.1209  0.2166 -0.2477
  198loPI   C2B 3166   2.838   1.243   9.099 -0.2524 -0.1481 -0.0848
  198loPI   C3B 3167   2.834   1.155   8.642 -0.0781  0.2867 -0.0947
  198loPI   C4B 3168   2.873   1.131   8.235 -0.0630  0.0746 -0.0988
  199loPI    C1 3169   2.359  17.704  11.049 -0.1138  0.2164  0.1692
  199loPI    C2 3170   2.226  18.073  11.127 -0.0245  0.2088  0.3630
  199loPI    C3 3171   2.375  17.848  11.422 -0.3161 -0.0793  0.2962
  199loPI   PO4 3172   2.503  17.731  10.855 -0.0293  0.0601  0.0137
  199loPI   GL1 3173   2.405  17.859  10.353 -0.0652 -0.2816  0.0014
  199loPI   GL2 3174   2.236  18.103  10.226 -0.3293 -0.2331  0.3448
  199loPI   C1A 3175   2.562  17.980   9.870  0.0414  0.1576  0.0200
  199loPI   C2A 3176   2.507  17.999   9.464 -0.0200  0.1178  0.0152
  199loPI   C3A 3177   2.556  17.929   9.088  0.1406  0.3320 -0.0443
  199loPI   C4A 3178   2.554  17.929   8.696  0.1075 -0.0571  0.1268
  199loPI   C5A 3179   2.624  17.750   8.267  0.2079  0.1062  0.2316
  199loPI   C6A 3180   2.782  17.751   7.886  0.1487 -0.0474 -0.1011
  199loPI   C1B 3181   2.098  17.936   9.757 -0.4566 -0.1735  0.1870
  199loPI   C2B 3182   2.040  17.740   9.356  0.3532  0.0566  0.1994
  199loPI   C3B 3183   2.143  17.735   8.830  0.2295  0.2503 -0.0314
  199loPI   C4B 3184   2.182  17.586   8.402  0.1792  0.0837 -0.1291
  200loPI    C1 3185   7.135   9.390  10.673  0.1320 -0.1214 -0.0474
  200loPI    C2 3186   7.359   9.333  10.999  0.0760  0.0402  0.0201
  200loPI    C3 3187   7.429   9.119  10.669  0.1008 -0.1600  0.1533
  200loPI   PO4 3188   7.103   9.682  10.555 -0.2294  0.2639 -0.0589
  200loPI   GL1 3189   6.835   9.837  10.385 -0.0634 -0.0177  0.1786
  200loPI   GL2 3190   6.879  10.120  10.244 -0.4840  0.1676  0.0276
  200loPI   C1A 3191   6.673   9.812   9.877 -0.1926 -0.0060  0.1841
  200loPI   C2A 3192   6.614   9.934   9.446  0.1815  0.0132  0.0558
  200loPI   C3A 3193   6.610  10.071   9.091  0.1046 -0.2973 -0.0239
  200loPI   C4A 3194   6.514  10.061   8.647  0.1589  0.1516 -0.1680
  200loPI   C5A 3195   6.444  10.075   8.209  0.1122  0.3907  0.1883
  200loPI   C6A 3196   6.600   9.664   7.933  0.2396 -0.2542  0.0847
  200loPI   C1B 3197   6.650  10.403   9.923 -0.2390  0.0629  0.2646
  200loPI   C2B 3198   6.608  10.481   9.419  0.2948 -0.1566  0.0402
  200loPI   C3B 3199   6.613  10.566   8.985  0.1465 -0.1012  0.1151
  200loPI   C4B 3200   6.646  10.502   8.629  0.0319  0.1595  0.3780
  201loPI    C1 3201   0.745   4.487  10.871 -0.0126 -0.0834  0.0845
  201loPI    C2 3202   0.772   4.646  11.237 -0.1651 -0.0316  0.0738
  201loPI    C3 3203   0.799   4.250  11.189 -0.2095 -0.0439  0.1487
  201loPI   PO4 3204   0.900   4.703  10.784  0.0280 -0.2571  0.0873
  201loPI   GL1 3205   1.020   4.709  10.319 -0.3028 -0.1168  0.2307
  201loPI   GL2 3206   1.154   4.495  10.109  0.0654  0.0823 -0.1253
  201loPI   C1A 3207   0.799   4.784   9.947 -0.3016 -0.2427 -0.1746
  201loPI   C2A 3208   0.691   4.828   9.499  0.1009 -0.0233 -0.0967
  201loPI   C3A 3209   0.834   4.925   9.089  0.1586  0.0936  0.1086
  201loPI   C4A 3210   0.672   4.978   8.567 -0.0511  0.1613 -0.2251
  201loPI   C5A 3211   0.902   4.946   8.159  0.1431  0.2211 -0.0546
  201loPI   C6A 3212   0.864   5.189   7.847 -0.3985 -0.2466  0.0172
  201loPI   C1B 3213   1.110   4.473   9.717 -0.1889 -0.1181  0.2353
  201loPI   C2B 3214   1.136   4.492   9.322  0.3048 -0.0502  0.2101
  201loPI   C3B 3215   1.188   4.501   8.779 -0.1058 -0.0132  0.2384
  201loPI   C4B 3216   1.039   4.489   8.367  0.0578  0.2902 -0.0403
  202loPI    C1 3217   5.239   1.780  10.711  0.0033 -0.0639  0.0944
  202loPI    C2 3218   5.031   1.692  11.041 -0.1266  0.1138  0.0615
  202loPI    C3 3219   5.219   2.044  11.011 -0.2228  0.1521 -0.1056
  202loPI   PO4 3220   5.123   1.573  10.511 -0.4382  0.0796  0.1442
  202loPI   GL1 3221   5.269   1.468   9.984 -0.2398  0.1678  0.2422
  202loPI   GL2 3222   5.211   1.177   9.847 -0.2119 -0.0545 -0.0507
  202loPI   C1A 3223   5.423   1.561   9.587  0.0817 -0.1497  0.1055
  202loPI   C2A 3224   5.446   1.702   9.210  0.0556  0.1970  0.2261
  202loPI   C3A 3225   5.576   1.754   8.854 -0.1374 -0.2232 -0.0908
  202loPI   C4A 3226   5.600   1.772   8.506  0.2875  0.1129 -0.1374
  202loPI   C5A 3227   5.282   1.893   8.191 -0.2397 -0.0690  0.3042
  202loPI   C6A 3228   4.986   2.262   8.046 -0.2064  0.1455  0.0405
  202loPI   C1B 3229   5.305   1.011   9.420  0.3447  0.0133  0.1580
  202loPI   C2B 3230   5.271   0.897   9.022  0.1536 -0.0842 -0.0014
  202loPI   C3B 3231   5.099   0.839   8.607  0.1479  0.1388  0.1199
  202loPI   C4B 3232   4.728   0.860   8.267 -0.1207  0.2002  0.1036
  203loPI    C1 3233  10.384   0.946  10.919  0.0979  0.0945 -0.2621
  203loPI    C2 3234  10.168   0.710  11.159  0.4586 -0.0387 -0.0612
  203loPI    C3 3235  10.080   1.099  11.130  0.3906 -0.0268  0.2670
  203loPI   PO4 3236  10.370   0.757  10.671 -0.0006 -0.0671  0.1191
  203loPI   GL1 3237  10.478   0.862  10.234  0.0675 -0.0220  0.1883
  203loPI   GL2 3238  10.316   1.117  10.086  0.1209  0.1212 -0.2545
  203loPI   C1A 3239  10.297   0.604   9.910 -0.1142 -0.2647 -0.2624
  203loPI   C2A 3240  10.282   0.618   9.514  0.2339  0.1753  0.1489
  203loPI   C3A 3241  10.332   0.571   9.085  0.1575  0.1819  0.0836
  203loPI   C4A 3242  10.347   0.505   8.666 -0.2392  0.0458 -0.0936
  203loPI   C5A 3243  10.214   0.603   8.227 -0.0998 -0.0630 -0.2982
  203loPI   C6A 3244  10.521   0.789   8.013  0.3461  0.1035  0.1546
  203loPI   C1B 3245  10.354   1.124   9.743 -0.0994 -0.0506 -0.1752
  203loPI   C2B 3246  10.353   1.081   9.292  0.0908  0.1021  0.0308
  203loPI   C3B 3247  10.453   1.055   8.863 -0.2012 -0.1689  0.0697
  203loPI   C4B 3248  10.425   1.061   8.452 -0.2383  0.1735 -0.1223
  204loPI    C1 3249   2.189  10.561  11.054 -0.2120  0.1174 -0.0744
  204loPI    C2 3250   2.056  10.258  10.830 -0.0705 -0.0387  0.0498
  204loPI    C3 3251   1.942  10.289  11.212 -0.0499  0.0398  0.0495
  204loPI   PO4 3252   2.220  10.792  10.838  0.2462  0.3244  0.0308
  204loPI   GL1 3253   2.074  10.639  10.481  0.3421  0.1017 -0.2902
  204loPI   GL2 3254   2.067  11.009  10.384  0.2018 -0.3729  0.0675
  204loPI   C1A 3255   1.663  10.690  10.277  0.3963  0.0297  0.1019
  204loPI   C2A 3256   1.642  10.723   9.806  0.2109  0.0596  0.1040
  204loPI   C3A 3257   1.581  10.772   9.362 -0.0950  0.1917  0.1284
  204loPI   C4A 3258   1.657  10.786   8.928 -0.0800 -0.1829  0.1193
  204loPI   C5A 3259   1.563  10.867   8.385  0.1116 -0.0757  0.0106
  204loPI   C6A 3260   1.400  11.261   8.174  0.0403 -0.3781 -0.1650
  204loPI   C1B 3261   2.120  10.865   9.983  0.0113  0.1695 -0.1758
  204loPI   C2B 3262   2.068  10.823   9.523 -0.3480  0.0343 -0.2674
  204loPI   C3B 3263   2.118  10.970   9.124 -0.1331 -0.1388 -0.0395
  204loPI   C4B 3264   2.118  10.873   8.735  0.2466  0.1496 -0.1371
  205loPI    C1 3265   2.270   6.373  10.841  0.1448 -0.1868 -0.0545
  205loPI    C2 3266   2.360   5.999  10.951  0.4013 -0.0928  0.0613
  205loPI    C3 3267   2.307   6.282  11.229  0.1665 -0.0506 -0.0242
  205loPI   PO4 3268   2.123   6.361  10.652 -0.2459 -0.0711 -0.0393
  205loPI   GL1 3269   1.825   6.177  10.298 -0.1653  0.1880  0.0578
  205loPI   GL2 3270   1.540   6.261  10.210  0.2173 -0.1279 -0.0816
  205loPI   C1A 3271   2.027   6.045   9.873  0.0324  0.1301  0.1163
  205loPI   C2A 3272   1.939   6.233   9.441  0.0991 -0.2076  0.2740
  205loPI   C3A 3273   2.045   6.065   9.034  0.3438  0.0846 -0.0871
  205loPI   C4A 3274   1.903   6.174   8.633 -0.0858 -0.2726  0.0957
  205loPI   C5A 3275   1.960   6.213   8.206  0.2150 -0.2056  0.1022
  205loPI   C6A 3276   2.145   6.388   8.014  0.0307  0.0651  0.0772
  205loPI   C1B 3277   1.645   6.424   9.796  0.1157 -0.3691 -0.1517
  205loPI   C2B 3278   1.603   6.552   9.293 -0.0308 -0.1268  0.2852
  205loPI   C3B 3279   1.521   6.511   8.890 -0.1431 -0.0071  0.1133
  205loPI   C4B 3280   1.584   6.507   8.419 -0.2566  0.0680 -0.0573
  206loPI    C1 3281  17.479   5.327  10.672 -0.0230 -0.0643  0.1702
  206loPI    C2 3282  17.178   5.439  10.910 -0.0905 -0.0176  0.0641
  206loPI    C3 3283  17.154   5.097  10.706  0.0076 -0.1039  0.1952
  206loPI   PO4 3284  17.470   5.598  10.529  0.0825 -0.1210  0.0303
  206loPI   GL1 3285  17.407   5.579  10.168 -0.1279  0.1630 -0.0786
  206loPI   GL2 3286  17.134   5.657  10.111  0.2980 -0.0391  0.0521
  206loPI   C1A 3287  17.671   5.305   9.899  0.1110  0.0055 -0.2317
  206loPI   C2A 3288  17.676   5.276   9.458 -0.2880  0.0595  0.2435
  206loPI   C3A 3289  17.712   5.331   9.025  0.0245 -0.1015  0.0790
  206loPI   C4A 3290  17.839   5.487   8.659 -0.0124  0.1058 -0.0824
  206loPI   C5A 3291  17.831   5.506   8.266  0.0612  0.2180 -0.0449
  206loPI   C6A 3292  17.591   5.659   7.864 -0.0301  0.0499  0.1888
  206loPI   C1B 3293  17.307   5.640   9.691 -0.3097  0.0906  0.3224
  206loPI   C2B 3294  17.412   5.686   9.207 -0.3685 -0.1214 -0.0234
  206loPI   C3B 3295  17.355   5.733   8.790  0.1799  0.1291 -0.1652
  206loPI   C4B 3296  17.454   5.774   8.385  0.3164 -0.0080  0.2731
  207loPI    C1 3297   2.661   4.554  10.323 -0.1357 -0.1083  0.0614
  207loPI    C2 3298   2.966   4.694  10.540 -0.0688  0.1089 -0.1685
  207loPI    C3 3299   2.590   4.790  10.638 -0.0412  0.1747 -0.1258
  207loPI   PO4 3300   2.796   4.360  10.238  0.0660 -0.0420 -0.4659
  207loPI   GL1 3301   2.850   4.270   9.772  0.0606  0.0620  0.1433
  207loPI   GL2 3302   2.985   4.528   9.609 -0.1900 -0.2293 -0.2425
  207loPI   C1A 3303   2.542   4.356   9.418  0.2791  0.0629  0.2137
  207loPI   C2A 3304   2.578   4.424   9.001  0.4429 -0.1666 -0.1308
  207loPI   C3A 3305   2.718   4.450   8.610  0.2878  0.0888 -0.1760
  207loPI   C4A 3306   2.744   4.619   8.252  0.0157 -0.0122  0.1271
  207loPI   C5A 3307   2.818   4.543   7.770  0.2031  0.4372 -0.0643
  207loPI   C6A 3308   2.973   4.434   7.309 -0.1695 -0.1557  0.1052
  207loPI   C1B 3309   2.710   4.844   9.395  0.0022 -0.0753 -0.1151
  207loPI   C2B 3310   2.685   4.877   8.965  0.0749  0.0266 -0.2400
  207loPI   C3B 3311   2.721   4.941   8.599  0.1011 -0.2571  0.0409
  207loPI   C4B 3312   2.458   5.110   8.211  0.1018 -0.0055 -0.1923
  208loPI    C1 3313   1.277  14.896  11.028 -0.1753  0.2116 -0.2925
  208loPI    C2 3314   0.940  14.697  10.944 -0.0052 -0.2133 -0.0029
  208loPI    C3 3315   1.058  14.740  11.324  0.1596  0.1190 -0.0878
  208loPI   PO4 3316   1.442  14.812  10.964 -0.0859 -0.2046  0.2272
  208loPI   GL1 3317   1.573  15.020  10.589  0.0455  0.1137 -0.0500
  208loPI   GL2 3318   1.549  15.274  10.294  0.2675  0.0534  0.1205
  208loPI   C1A 3319   1.866  14.860  10.204 -0.0653 -0.2108 -0.0718
  208loPI   C2A 3320   1.950  14.841   9.806  0.0820  0.0513  0.0388
  208loPI   C3A 3321   1.913  14.761   9.399 -0.0007 -0.2512  0.1141
  208loPI   C4A 3322   1.917  14.858   8.950 -0.2706 -0.2145 -0.0400
  208loPI   C5A 3323   1.811  14.618   8.572  0.0668 -0.2228 -0.2316
  208loPI   C6A 3324   1.909  14.404   8.198 -0.0830  0.0463  0.0990
  208loPI   C1B 3325   1.566  15.226   9.860 -0.0815  0.0397  0.0166
  208loPI   C2B 3326   1.573  15.137   9.498 -0.0803  0.3160  0.1823
  208loPI   C3B 3327   1.513  15.228   9.020 -0.0354 -0.1072  0.3195
  208loPI   C4B 3328   1.633  15.173   8.583  0.3816  0.1104  0.1163
  209loPI    C1 3329   0.831  15.150  11.056 -0.1767 -0.1443  0.1207
  209loPI    C2 3330   0.752  15.475  11.275  0.0405 -0.0914  0.1230
  209loPI    C3 3331   1.120  15.320  11.274  0.0152 -0.1537 -0.1230
  209loPI   PO4 3332   0.827  15.173  10.824 -0.1838 -0.3394 -0.3960
  209loPI   GL1 3333   1.078  15.031  10.475 -0.2209 -0.0292  0.0405
  209loPI   GL2 3334   1.203  14.731  10.492 -0.2607  0.0543 -0.1799
  209loPI   C1A 3335   0.979  15.039  10.129  0.0952 -0.2189 -0.0795
  209loPI   C2A 3336   1.103  14.967   9.778 -0.0207  0.0317 -0.1356
  209loPI   C3A 3337   1.105  15.005   9.264  0.1188 -0.3886  0.1049
  209loPI   C4A 3338   1.060  14.990   8.840  0.1034 -0.3851  0.1538
  209loPI   C5A 3339   1.112  15.065   8.416 -0.2777  0.1068  0.0504
  209loPI   C6A 3340   1.371  15.125   8.130 -0.0933 -0.0707 -0.1683
  209loPI   C1B 3341   1.376  14.730  10.101 -0.1414  0.1223 -0.0713
  209loPI   C2B 3342   1.481  14.625   9.650  0.1020 -0.1315 -0.1136
  209loPI   C3B 3343   1.441  14.683   9.173  0.0210  0.1582 -0.4971
  209loPI   C4B 3344   1.413  14.646   8.831 -0.0838  0.0133 -0.0898
  210loPI    C1 3345  13.947  11.726  11.057 -0.1960 -0.0858  0.0084
  210loPI    C2 3346  13.565  11.728  11.176 -0.2164 -0.0961 -0.0563
  210loPI    C3 3347  13.849  11.880  11.413 -0.2313 -0.2909  0.0888
  210loPI   PO4 3348  13.941  11.610  10.856  0.7333 -0.0521  0.0370
  210loPI   GL1 3349  14.034  11.576  10.516 -0.1404  0.0573 -0.2434
  210loPI   GL2 3350  14.198  11.288  10.565  0.3857 -0.0389  0.1334
  210loPI   C1A 3351  13.973  11.717  10.025 -0.2452  0.2953 -0.1886
  210loPI   C2A 3352  13.983  11.801   9.649 -0.0011  0.1323  0.0666
  210loPI   C3A 3353  13.995  11.717   9.255  0.2295  0.2021  0.0751
  210loPI   C4A 3354  13.996  11.850   8.906  0.0674  0.0601  0.1489
  210loPI   C5A 3355  14.222  11.680   8.503  0.3328 -0.1801  0.3364
  210loPI   C6A 3356  14.415  11.391   8.444 -0.2025 -0.0620 -0.0865
  210loPI   C1B 3357  14.278  11.330  10.140 -0.2869 -0.0149  0.2131
  210loPI   C2B 3358  14.420  11.386   9.793  0.0919  0.3517  0.0156
  210loPI   C3B 3359  14.445  11.368   9.356  0.2500 -0.0930  0.0741
  210loPI   C4B 3360  14.368  11.445   8.971  0.0981  0.0908 -0.0012
  211loPI    C1 3361   0.720   7.498  11.024  0.1935  0.1935  0.3732
  211loPI    C2 3362   0.596   7.117  11.020 -0.0833  0.2789 -0.2088
  211loPI    C3 3363   0.348   7.407  11.139  0.0426  0.3071 -0.0102
  211loPI   PO4 3364   0.827   7.474  10.741 -0.0675  0.0847  0.0766
  211loPI   GL1 3365   1.084   7.312  10.378  0.0180  0.1863 -0.0414
  211loPI   GL2 3366   0.998   7.643  10.306 -0.0575 -0.0769  0.1125
  211loPI   C1A 3367   0.985   7.176   9.986  0.2518  0.0142 -0.0859
  211loPI   C2A 3368   0.849   7.182   9.590 -0.0059  0.1871  0.2932
  211loPI   C3A 3369   0.842   7.169   9.162  0.2750 -0.1465 -0.1273
  211loPI   C4A 3370   0.916   7.163   8.751 -0.1948 -0.0516 -0.0154
  211loPI   C5A 3371   1.250   6.876   8.456  0.0383  0.1823  0.0320
  211loPI   C6A 3372   1.347   6.713   8.055 -0.1062 -0.0851  0.0182
  211loPI   C1B 3373   1.008   7.672   9.875  0.3470  0.1484 -0.1193
  211loPI   C2B 3374   0.997   7.640   9.485  0.2156  0.2131  0.1315
  211loPI   C3B 3375   0.975   7.674   9.057  0.3269 -0.1788  0.1288
  211loPI   C4B 3376   0.916   7.717   8.698 -0.0550 -0.1618 -0.1489
  212loPI    C1 3377   7.761   5.679  10.228 -0.0501  0.2277  0.1479
  212loPI    C2 3378   7.832   5.335  10.420 -0.1325  0.1190 -0.0142
  212loPI    C3 3379   8.084   5.643  10.461  0.1623 -0.0945 -0.1856
  212loPI   PO4 3380   7.786   5.723  10.011  0.2608 -0.1106  0.3383
  212loPI   GL1 3381   7.755   6.059   9.707 -0.2961 -0.1910 -0.1204
  212loPI   GL2 3382   7.798   6.283   9.418 -0.2574 -0.3966 -0.1977
  212loPI   C1A 3383   7.440   5.924   9.373 -0.0592  0.0312 -0.4233
  212loPI   C2A 3384   7.373   5.936   8.966  0.2193  0.0486  0.3025
  212loPI   C3A 3385   7.521   6.009   8.517  0.1420  0.1779  0.0656
  212loPI   C4A 3386   7.659   5.963   8.053 -0.3193 -0.0090 -0.1195
  212loPI   C5A 3387   7.928   6.138   7.701  0.3578  0.2656  0.1749
  212loPI   C6A 3388   7.771   6.177   7.265 -0.1179 -0.1157  0.0927
  212loPI   C1B 3389   7.786   6.305   9.007  0.1652 -0.2329 -0.0016
  212loPI   C2B 3390   7.921   6.355   8.651 -0.1800 -0.3711  0.2912
  212loPI   C3B 3391   8.080   6.166   8.356 -0.2174  0.1079  0.2201
  212loPI   C4B 3392   8.306   6.078   8.005  0.1977 -0.0473  0.1963
  213loPI    C1 3393  10.799  17.724  10.940  0.0108 -0.1523 -0.0195
  213loPI    C2 3394  10.941  17.374  11.072  0.4341  0.0504  0.0802
  213loPI    C3 3395  10.923  17.689  11.318  0.0926  0.1132 -0.0198
  213loPI   PO4 3396  10.945  17.780  10.726 -0.0397  0.1851  0.0803
  213loPI   GL1 3397  11.046  17.692  10.298 -0.0877  0.1113 -0.0665
  213loPI   GL2 3398  10.852  17.519  10.154  0.0456  0.1285 -0.0382
  213loPI   C1A 3399  11.239  17.715   9.876  0.1215  0.2063  0.1396
  213loPI   C2A 3400  11.440  17.624   9.435  0.0707  0.1520 -0.0023
  213loPI   C3A 3401  11.536  17.576   9.004  0.1103  0.1357 -0.2004
  213loPI   C4A 3402  11.412  17.617   8.641 -0.1705 -0.0562 -0.0164
  213loPI   C5A 3403  11.583  17.649   8.183  0.3623  0.0510  0.0608
  213loPI   C6A 3404  11.594  17.661   7.806  0.2591  0.2920  0.1410
  213loPI   C1B 3405  10.741  17.608   9.706 -0.1164 -0.0052 -0.0002
  213loPI   C2B 3406  10.798  17.430   9.273  0.1005  0.2162  0.2514
  213loPI   C3B 3407  11.030  17.405   8.895 -0.0453 -0.0087  0.0772
  213loPI   C4B 3408  11.056  17.449   8.350  0.0304  0.3403 -0.1454
  214loPI    C1 3409   2.170   6.870  10.981  0.0400 -0.0520 -0.0821
  214loPI    C2 3410   2.466   7.138  10.966 -0.0256  0.0227 -0.0487
  214loPI    C3 3411   2.165   7.188  11.224  0.0074 -0.1304  0.0205
  214loPI   PO4 3412   2.067   6.879  10.747 -0.4146  0.1742 -0.0534
  214loPI   GL1 3413   1.755   7.113  10.450  0.0329  0.2992  0.0537
  214loPI   GL2 3414   1.465   6.984  10.336 -0.0284  0.2089 -0.2920
  214loPI   C1A 3415   1.832   7.079   9.983 -0.0500  0.1339  0.1307
  214loPI   C2A 3416   1.716   6.956   9.552  0.1309  0.1594  0.2896
  214loPI   C3A 3417   1.705   7.026   9.036 -0.2567 -0.1441 -0.1328
  214loPI   C4A 3418   1.754   6.966   8.622 -0.1565 -0.1351  0.0034
  214loPI   C5A 3419   1.649   7.131   8.277 -0.1145  0.2110  0.0603
  214loPI   C6A 3420   1.364   7.193   8.037 -0.4974 -0.1706 -0.4581
  214loPI   C1B 3421   1.418   6.789  10.024  0.0419  0.1192 -0.2204
  214loPI   C2B 3422   1.181   6.807   9.752  0.1338  0.0139  0.0659
  214loPI   C3B 3423   1.142   6.813   9.366  0.2454 -0.0242  0.2354
  214loPI   C4B 3424   1.225   6.859   9.002 -0.0122 -0.0712  0.2100
  215loPI    C1 3425   9.885   0.080  10.561  0.1179 -0.0331  0.1298
  215loPI    C2 3426  10.057   0.338  10.812 -0.1156  0.0265  0.2317
  215loPI    C3 3427   9.763   0.100  10.941 -0.2333  0.0531  0.0170
  215loPI   PO4 3428  10.068  -0.105  10.429 -0.2755 -0.0688 -0.0274
  215loPI   GL1 3429  10.285  -0.028   9.981  0.3065  0.1586  0.0882
  215loPI   GL2 3430  10.057   0.160  10.023 -0.0916  0.1079  0.2216
  215loPI   C1A 3431  10.451  -0.228   9.707  0.1225  0.1450  0.0618
  215loPI   C2A 3432  10.492  -0.368   9.336 -0.1957 -0.0211 -0.0116
  215loPI   C3A 3433  10.575  -0.303   9.003  0.0066  0.0072  0.0583
  215loPI   C4A 3434  10.738  -0.444   8.646  0.1701 -0.1166  0.1095
  215loPI   C5A 3435  10.613  -0.390   8.304 -0.2149 -0.3818  0.1341
  215loPI   C6A 3436  10.284  -0.407   7.980 -0.2310 -0.2844 -0.2900
  215loPI   C1B 3437  10.109   0.118   9.524 -0.0509  0.0589  0.1172
  215loPI   C2B 3438  10.132  -0.021   9.156 -0.1689  0.2303 -0.0522
  215loPI   C3B 3439  10.262   0.057   8.832  0.1385 -0.1571 -0.1575
  215loPI   C4B 3440  10.241  -0.083   8.507  0.3174  0.1204  0.0358
  216loPI    C1 3441   7.428  15.596  10.485  0.2386  0.0568  0.1618
  216loPI    C2 3442   7.340  15.786  10.825 -0.0141  0.0891  0.0803
  216loPI    C3 3443   7.087  15.513  10.678  0.1404  0.0051 -0.0310
  216loPI   PO4 3444   7.667  15.538  10.447 -0.0314 -0.0315  0.1038
  216loPI   GL1 3445   7.758  15.720  10.131 -0.2106 -0.1075  0.1350
  216loPI   GL2 3446   8.003  15.871  10.063 -0.0292 -0.0434  0.1492
  216loPI   C1A 3447   7.612  15.745   9.786 -0.0890 -0.1637  0.0623
  216loPI   C2A 3448   7.597  15.750   9.447  0.1848  0.0065  0.1591
  216loPI   C3A 3449   7.829  15.533   9.056  0.2257  0.0026 -0.0152
  216loPI   C4A 3450   7.799  15.575   8.661 -0.1552  0.0373 -0.0641
  216loPI   C5A 3451   7.669  15.661   8.257 -0.1487  0.2724  0.0454
  216loPI   C6A 3452   7.454  15.702   7.820 -0.0390  0.2590  0.1104
  216loPI   C1B 3453   8.209  15.781   9.680  0.0549 -0.2860  0.1525
  216loPI   C2B 3454   8.179  15.886   9.300  0.0290  0.0330  0.0743
  216loPI   C3B 3455   8.304  15.723   8.850 -0.0010 -0.4419  0.3027
  216loPI   C4B 3456   8.239  15.740   8.404 -0.2402 -0.0071  0.2060
  217loPI    C1 3457  13.360   1.062  10.591  0.0596 -0.0582 -0.2299
  217loPI    C2 3458  13.359   1.051  10.991  0.1115 -0.1149 -0.2311
  217loPI    C3 3459  13.701   1.111  10.793  0.0847 -0.0797 -0.2669
  217loPI   PO4 3460  13.218   1.102  10.501  0.1900 -0.0554  0.1766
  217loPI   GL1 3461  12.966   1.094  10.132 -0.0399  0.2371 -0.0601
  217loPI   GL2 3462  13.183   1.431  10.077 -0.2740  0.2808 -0.0258
  217loPI   C1A 3463  13.113   0.903   9.652  0.0293 -0.1932  0.0580
  217loPI   C2A 3464  13.157   0.869   9.107  0.3040  0.2029  0.0188
  217loPI   C3A 3465  13.169   0.887   8.665  0.1783  0.2316 -0.3553
  217loPI   C4A 3466  13.269   0.846   8.251 -0.0066 -0.1630  0.0542
  217loPI   C5A 3467  13.424   1.321   8.016  0.0232 -0.0775  0.0670
  217loPI   C6A 3468  13.275   1.781   8.028 -0.0966  0.1298  0.4143
  217loPI   C1B 3469  13.227   1.366   9.642 -0.1846 -0.0570  0.0129
  217loPI   C2B 3470  13.211   1.403   9.306  0.1831 -0.1421  0.2976
  217loPI   C3B 3471  13.211   1.370   8.859 -0.0504 -0.0290  0.0819
  217loPI   C4B 3472  13.238   1.386   8.411  0.1012  0.0622 -0.2270
  218loPI    C1 3473   5.371   7.666  10.385 -0.0043 -0.0273  0.1415
  218loPI    C2 3474   5.401   7.298  10.540 -0.3675 -0.1128  0.0180
  218loPI    C3 3475   5.314   7.609  10.777  0.0661 -0.0811  0.1441
  218loPI   PO4 3476   5.260   7.624  10.171 -0.2507  0.0603  0.0600
  218loPI   GL1 3477   5.263   7.504   9.791  0.1565 -0.0852  0.3017
  218loPI   GL2 3478   5.626   7.475   9.586 -0.0705 -0.0258  0.0307
  218loPI   C1A 3479   5.185   7.518   9.390 -0.0638 -0.1180 -0.1702
  218loPI   C2A 3480   5.040   7.541   8.977  0.1234  0.0793  0.0053
  218loPI   C3A 3481   4.923   7.450   8.615 -0.1159 -0.0974  0.0444
  218loPI   C4A 3482   4.922   7.384   8.209 -0.0346  0.1799  0.2453
  218loPI   C5A 3483   4.918   7.273   7.758 -0.0061  0.1264  0.0607
  218loPI   C6A 3484   4.944   6.988   7.502 -0.0500  0.0521 -0.1601
  218loPI   C1B 3485   5.600   7.313   9.229  0.1441 -0.3433  0.4433
  218loPI   C2B 3486   5.531   7.402   8.745  0.0778 -0.1439  0.0851
  218loPI   C3B 3487   5.402   7.523   8.335  0.6836  0.1726 -0.0307
  218loPI   C4B 3488   5.313   7.559   7.845 -0.0681 -0.1401 -0.2129
  219loPI    C1 3489   1.210  13.145  11.082  0.0368 -0.1102 -0.2130
  219loPI    C2 3490   1.464  12.890  11.256 -0.0523 -0.1022 -0.0696
  219loPI    C3 3491   1.291  13.179  11.472 -0.3062 -0.2061 -0.1295
  219loPI   PO4 3492   1.252  13.085  10.854  0.0360 -0.0251  0.0545
  219loPI   GL1 3493   1.432  13.180  10.471  0.0186 -0.0425 -0.1886
  219loPI   GL2 3494   1.058  13.059  10.364 -0.2541 -0.1335 -0.0159
  219loPI   C1A 3495   1.566  13.132  10.132 -0.1036  0.0905 -0.1522
  219loPI   C2A 3496   1.514  13.197   9.722  0.3908  0.2336  0.0500
  219loPI   C3A 3497   1.532  13.247   9.289 -0.1393  0.2284  0.0330
  219loPI   C4A 3498   1.488  13.333   8.814  0.0057 -0.1332  0.2512
  219loPI   C5A 3499   1.508  13.183   8.319 -0.1159 -0.2016 -0.2151
  219loPI   C6A 3500   1.837  13.280   8.052  0.0538  0.1490 -0.0145
  219loPI   C1B 3501   1.104  12.993   9.881 -0.3133 -0.2793  0.1552
  219loPI   C2B 3502   1.086  13.007   9.452 -0.2631 -0.0538  0.2373
  219loPI   C3B 3503   1.020  13.084   9.028  0.0796 -0.1235  0.2886
  219loPI   C4B 3504   1.059  12.922   8.644  0.1735  0.1700  0.0347
  220loPI    C1 3505  11.000   8.758  10.114  0.0572 -0.0682  0.2041
  220loPI    C2 3506  10.880   8.947  10.445  0.0341  0.2175  0.0359
  220loPI    C3 3507  11.270   8.886  10.381  0.0306  0.0323  0.1833
  220loPI   PO4 3508  10.807   8.821   9.941  0.0698 -0.1811  0.0690
  220loPI   GL1 3509  10.862   9.006   9.543 -0.1480 -0.3460 -0.3260
  220loPI   GL2 3510  10.597   8.784   9.488 -0.0816 -0.0341 -0.1559
  220loPI   C1A 3511  10.909   9.216   9.172  0.1513  0.0060  0.0548
  220loPI   C2A 3512  10.991   9.144   8.800 -0.0681  0.0908  0.0892
  220loPI   C3A 3513  11.017   9.110   8.379 -0.1408  0.0147  0.0803
  220loPI   C4A 3514  11.046   9.053   8.031  0.0346  0.2222 -0.1195
  220loPI   C5A 3515  10.831   8.718   7.736 -0.1469 -0.1275 -0.0811
  220loPI   C6A 3516  10.479   8.596   7.506 -0.0215 -0.2557 -0.0787
  220loPI   C1B 3517  10.568   8.807   9.099 -0.1796 -0.3200  0.1237
  220loPI   C2B 3518  10.686   8.789   8.738 -0.1096  0.0238  0.2415
  220loPI   C3B 3519  10.532   8.762   8.364  0.0193  0.1018 -0.1903
  220loPI   C4B 3520  10.333   8.726   7.975 -0.1724 -0.2935 -0.4105
  221loPI    C1 3521  13.958  14.021  10.986 -0.1341 -0.0357  0.2328
  221loPI    C2 3522  14.118  14.163  11.324 -0.0019  0.5090 -0.0465
  221loPI    C3 3523  13.760  14.292  11.202 -0.2568 -0.0227  0.1052
  221loPI   PO4 3524  14.053  14.095  10.749  0.2599 -0.1170  0.1734
  221loPI   GL1 3525  13.857  14.074  10.436  0.3375  0.1171 -0.0224
  221loPI   GL2 3526  13.825  14.186  10.257  0.2840 -0.3158 -0.2005
  221loPI   C1A 3527  13.847  13.683  10.118  0.3853 -0.0830 -0.0126
  221loPI   C2A 3528  13.873  13.676   9.581  0.2136 -0.1514 -0.1753
  221loPI   C3A 3529  13.949  13.674   9.165 -0.1640 -0.0558  0.1522
  221loPI   C4A 3530  13.967  13.652   8.835 -0.2159 -0.0418 -0.1741
  221loPI   C5A 3531  13.847  13.468   8.423 -0.0493 -0.0401  0.1190
  221loPI   C6A 3532  13.781  13.410   8.031 -0.2644  0.2545  0.1983
  221loPI   C1B 3533  13.895  14.165   9.806 -0.3427  0.2706 -0.1503
  221loPI   C2B 3534  13.955  14.169   9.378  0.0907  0.1088 -0.0947
  221loPI   C3B 3535  14.059  14.160   8.978 -0.2645  0.1825  0.1488
  221loPI   C4B 3536  14.142  13.970   8.498  0.0340  0.3373 -0.0759
  222loPI    C1 3537   6.082   2.493  10.801 -0.0131 -0.0941  0.1128
  222loPI    C2 3538   6.420   2.628  10.634 -0.1495  0.0889 -0.0196
  222loPI    C3 3539   6.423   2.496  11.012  0.1026 -0.0644 -0.0724
  222loPI   PO4 3540   6.065   2.309  10.479 -0.0864  0.1855  0.2308
  222loPI   GL1 3541   6.110   2.139  10.071  0.1382 -0.0991  0.0527
  222loPI   GL2 3542   5.958   2.467   9.863 -0.0626  0.0288 -0.1876
  222loPI   C1A 3543   6.239   1.922   9.715 -0.2296  0.0622  0.1656
  222loPI   C2A 3544   6.476   1.947   9.349 -0.2262  0.1739  0.1452
  222loPI   C3A 3545   6.530   1.891   8.883  0.1867  0.0305  0.0314
  222loPI   C4A 3546   6.562   2.056   8.503 -0.2896 -0.0793 -0.0372
  222loPI   C5A 3547   6.567   2.208   8.157  0.0316  0.1692  0.0379
  222loPI   C6A 3548   6.649   1.998   7.734 -0.0991 -0.0751  0.0193
  222loPI   C1B 3549   5.811   2.615   9.460 -0.2527 -0.2325 -0.0204
  222loPI   C2B 3550   5.848   2.577   9.155  0.0802  0.4266 -0.0086
  222loPI   C3B 3551   5.896   2.647   8.713  0.0599  0.1665 -0.1006
  222loPI   C4B 3552   5.938   2.663   8.253 -0.0093 -0.2063 -0.0392
  223loPI    C1 3553  18.227  15.934  10.698 -0.1549 -0.0289 -0.0836
  223loPI    C2 3554  18.197  15.968  11.096 -0.1432 -0.1325 -0.0736
  223loPI    C3 3555  18.056  16.258  10.860 -0.0831 -0.0361  0.0080
  223loPI   PO4 3556  18.193  15.729  10.595  0.0275 -0.0955 -0.1712
  223loPI   GL1 3557  17.978  15.656  10.248  0.2967 -0.0195 -0.1509
  223loPI   GL2 3558  17.848  15.878  10.311  0.3088  0.3355  0.4240
  223loPI   C1A 3559  17.918  15.511   9.864 -0.1686  0.0293  0.1602
  223loPI   C2A 3560  17.896  15.459   9.526  0.0083 -0.0676 -0.0967
  223loPI   C3A 3561  17.924  15.566   9.092  0.1986  0.2978 -0.2252
  223loPI   C4A 3562  17.952  15.368   8.665 -0.0662  0.4190  0.0451
  223loPI   C5A 3563  17.859  15.597   8.281 -0.0910  0.1925  0.0431
  223loPI   C6A 3564  17.622  15.448   7.983  0.2942  0.0451  0.1547
  223loPI   C1B 3565  17.996  16.011   9.880  0.3027  0.1686  0.2449
  223loPI   C2B 3566  18.072  15.917   9.482  0.0512 -0.1229 -0.1445
  223loPI   C3B 3567  18.161  15.983   9.055  0.2795  0.2499 -0.0064
  223loPI   C4B 3568  18.003  15.922   8.635 -0.0917 -0.0129  0.4898
  224loPI    C1 3569   9.695  12.774  10.917 -0.1335  0.0332  0.1507
  224loPI    C2 3570  10.025  12.753  11.142  0.0044  0.0078 -0.0499
  224loPI    C3 3571   9.735  12.481  11.186  0.1543 -0.1609 -0.0961
  224loPI   PO4 3572   9.739  12.858  10.728 -0.1110  0.1906 -0.0606
  224loPI   GL1 3573   9.863  12.888  10.355 -0.1660  0.0746 -0.1241
  224loPI   GL2 3574   9.879  13.194  10.326 -0.0024 -0.0926  0.0513
  224loPI   C1A 3575   9.579  12.756  10.014  0.2347 -0.0125 -0.0479
  224loPI   C2A 3576   9.455  12.676   9.572 -0.0556 -0.3649  0.0003
  224loPI   C3A 3577   9.558  12.743   9.098  0.1533  0.2467 -0.3028
  224loPI   C4A 3578   9.479  12.850   8.703 -0.0966  0.1814  0.1718
  224loPI   C5A 3579   9.328  12.931   8.354  0.0985 -0.2131  0.0667
  224loPI   C6A 3580   9.445  12.752   7.968 -0.0436 -0.1879 -0.3540
  224loPI   C1B 3581   9.991  13.213   9.952 -0.1385 -0.0729 -0.1321
  224loPI   C2B 3582  10.132  13.307   9.526  0.2157 -0.1231 -0.1206
  224loPI   C3B 3583  10.151  13.514   9.082  0.2557  0.2926 -0.0390
  224loPI   C4B 3584  10.086  13.465   8.789  0.4242  0.0665  0.1874
  225loPI    C1 3585  17.407   1.016  10.700  0.0349 -0.0252 -0.0681
  225loPI    C2 3586  17.790   0.910  10.654  0.0492  0.0037 -0.0166
  225loPI    C3 3587  17.692   1.202  10.911  0.0168  0.1599 -0.2042
  225loPI   PO4 3588  17.376   1.091  10.450  0.0457  0.0481 -0.1384
  225loPI   GL1 3589  17.261   0.891  10.164 -0.0849  0.1098  0.0928
  225loPI   GL2 3590  17.164   0.560  10.105  0.0268 -0.1913 -0.0393
  225loPI   C1A 3591  17.335   0.995   9.673  0.1472  0.0728  0.1629
  225loPI   C2A 3592  17.330   1.042   9.241  0.3870  0.2469 -0.0058
  225loPI   C3A 3593  17.196   0.995   8.903 -0.0293  0.3637 -0.0546
  225loPI   C4A 3594  17.301   0.939   8.480 -0.0513 -0.0751 -0.1150
  225loPI   C5A 3595  17.610   0.720   8.242 -0.1227  0.1178 -0.1674
  225loPI   C6A 3596  17.787   0.474   8.084  0.2477  0.3281  0.5901
  225loPI   C1B 3597  17.211   0.490   9.641  0.1958  0.1153  0.3692
  225loPI   C2B 3598  17.299   0.468   9.305  0.0807 -0.2664 -0.1402
  225loPI   C3B 3599  17.174   0.443   8.862  0.2005 -0.1726 -0.1683
  225loPI   C4B 3600  17.159   0.370   8.525 -0.0442  0.3461  0.1785
  226loPI    C1 3601  18.034  13.499  11.153 -0.0109  0.0084 -0.0404
  226loPI    C2 3602  18.160  13.261  11.449 -0.1385 -0.0526 -0.0345
  226loPI    C3 3603  18.088  13.649  11.520  0.2174  0.0250 -0.0796
  226loPI   PO4 3604  17.956  13.248  10.953  0.1780  0.1330 -0.1434
  226loPI   GL1 3605  18.266  13.129  10.566 -0.3465 -0.0799  0.2760
  226loPI   GL2 3606  18.167  13.401  10.491 -0.0236 -0.0417 -0.2607
  226loPI   C1A 3607  18.441  13.200  10.134  0.1173 -0.1408 -0.0616
  226loPI   C2A 3608  18.474  13.114   9.738 -0.0412  0.0325 -0.1107
  226loPI   C3A 3609  18.528  13.288   9.332 -0.0082  0.2710 -0.3918
  226loPI   C4A 3610  18.477  13.340   8.979 -0.2855  0.0081  0.2465
  226loPI   C5A 3611  18.418  13.368   8.531 -0.1348 -0.0984  0.0573
  226loPI   C6A 3612  18.424  13.180   8.179 -0.1857 -0.1108 -0.4003
  226loPI   C1B 3613  18.115  13.594  10.130 -0.2160  0.2082 -0.0092
  226loPI   C2B 3614  18.090  13.430   9.626 -0.1918 -0.0456 -0.1126
  226loPI   C3B 3615  18.098  13.594   9.155  0.0124  0.0537  0.2670
  226loPI   C4B 3616  18.083  13.674   8.751  0.2083  0.0401  0.2546
  227loPI    C1 3617   8.414  12.770  10.845 -0.1055 -0.1330  0.0779
  227loPI    C2 3618   8.087  12.858  11.057  0.0653  0.0309  0.2778
  227loPI    C3 3619   8.448  12.963  11.194  0.1888  0.0145 -0.0286
  227loPI   PO4 3620   8.346  12.851  10.577 -0.0277 -0.0821  0.0961
  227loPI   GL1 3621   8.550  13.112  10.306 -0.0528  0.0647  0.3003
  227loPI   GL2 3622   8.313  13.272  10.244 -0.0337 -0.1051  0.1347
  227loPI   C1A 3623   8.523  12.947   9.759 -0.5817 -0.0559  0.0794
  227loPI   C2A 3624   8.556  12.895   9.435 -0.0064  0.2257 -0.0669
  227loPI   C3A 3625   8.480  12.965   9.060  0.0750 -0.1931  0.0673
  227loPI   C4A 3626   8.555  13.035   8.602  0.2851  0.0406 -0.3629
  227loPI   C5A 3627   8.483  13.157   8.192 -0.0814 -0.0298  0.1546
  227loPI   C6A 3628   8.620  13.299   7.803 -0.4000 -0.3856 -0.1274
  227loPI   C1B 3629   8.146  13.368   9.823  0.0719  0.2749 -0.2321
  227loPI   C2B 3630   8.160  13.315   9.299  0.2842  0.3403 -0.1440
  227loPI   C3B 3631   8.181  13.292   8.859  0.0637  0.1290 -0.2497
  227loPI   C4B 3632   8.076  13.352   8.448  0.3642 -0.0106 -0.0393
  228loPI    C1 3633  10.410   1.921  10.659 -0.0845  0.2408 -0.0156
  228loPI    C2 3634  10.124   2.098  10.876 -0.1145  0.1218  0.0431
  228loPI    C3 3635  10.494   2.063  11.024 -0.1302  0.0577  0.0677
  228loPI   PO4 3636  10.382   2.048  10.462 -0.1974  0.2660  0.1683
  228loPI   GL1 3637  10.305   1.772  10.016 -0.4031 -0.0825 -0.3427
  228loPI   GL2 3638  10.053   1.514   9.912  0.1368 -0.1908 -0.0160
  228loPI   C1A 3639  10.404   1.638   9.580  0.1234 -0.0030 -0.0821
  228loPI   C2A 3640  10.568   1.522   9.131 -0.1389  0.0046  0.4101
  228loPI   C3A 3641  10.543   1.591   8.614  0.0725  0.0763 -0.0373
  228loPI   C4A 3642  10.636   1.481   8.201  0.2881 -0.1930  0.0474
  228loPI   C5A 3643  10.504   1.336   7.921  0.3059  0.2034 -0.1879
  228loPI   C6A 3644  10.435   1.313   7.515  0.0416  0.1419  0.4319
  228loPI   C1B 3645   9.942   1.455   9.438  0.0062  0.1020  0.0857
  228loPI   C2B 3646   9.953   1.473   9.063 -0.0870 -0.1871  0.3102
  228loPI   C3B 3647  10.052   1.335   8.686  0.2677  0.4912  0.1089
  228loPI   C4B 3648  10.073   1.411   8.312 -0.1241 -0.0596 -0.3100
  229loPI    C1 3649  10.173  13.473  11.265  0.0333  0.0642  0.0185
  229loPI    C2 3650   9.881  13.211  11.184 -0.0410  0.0995  0.1688
  229loPI    C3 3651  10.115  13.157  11.504  0.1765  0.0228 -0.0008
  229loPI   PO4 3652  10.231  13.561  11.018 -0.2540  0.0977  0.2285
  229loPI   GL1 3653  10.374  13.840  10.663  0.0416 -0.3940  0.1181
  229loPI   GL2 3654  10.289  13.545  10.494 -0.1055 -0.1720  0.0832
  229loPI   C1A 3655  10.560  14.142  10.356  0.3743  0.0516  0.1053
  229loPI   C2A 3656  10.824  14.383  10.058 -0.0723 -0.0897  0.0675
  229loPI   C3A 3657  10.801  14.495   9.657 -0.2763 -0.0654  0.1897
  229loPI   C4A 3658  10.854  14.567   9.281  0.3457  0.0495  0.2237
  229loPI   C5A 3659  10.756  14.635   8.953 -0.1560  0.3572  0.1298
  229loPI   C6A 3660  10.997  14.678   8.681 -0.1832  0.1079  0.0646
  229loPI   C1B 3661  10.159  13.748  10.131  0.1582  0.1112 -0.0543
  229loPI   C2B 3662  10.229  13.883   9.745  0.1887 -0.0408  0.0871
  229loPI   C3B 3663  10.272  13.910   9.345 -0.0848 -0.1352 -0.0428
  229loPI   C4B 3664  10.147  13.982   8.907  0.0309 -0.0573 -0.0079
  230loPI    C1 3665   3.906  10.465  11.044  0.0866  0.1861 -0.1003
  230loPI    C2 3666   3.867  10.588  11.423  0.1798  0.1860 -0.0903
  230loPI    C3 3667   4.115  10.287  11.335  0.1152  0.1480 -0.1441
  230loPI   PO4 3668   3.728  10.426  10.917 -0.0790  0.1115  0.3533
  230loPI   GL1 3669   3.598  10.355  10.496  0.2931  0.1034  0.1492
  230loPI   GL2 3670   3.495   9.972  10.485 -0.1950 -0.0139  0.1205
  230loPI   C1A 3671   3.460  10.303  10.031  0.0138  0.2439  0.2197
  230loPI   C2A 3672   3.411  10.323   9.629  0.2090 -0.1705  0.1774
  230loPI   C3A 3673   3.411  10.330   9.164 -0.0692  0.1335  0.2484
  230loPI   C4A 3674   3.470  10.363   8.686 -0.3351 -0.2480  0.0112
  230loPI   C5A 3675   3.511  10.304   8.262  0.2092 -0.3148 -0.2706
  230loPI   C6A 3676   3.209  10.227   7.893  0.0649 -0.2334 -0.2389
  230loPI   C1B 3677   3.655   9.878  10.167  0.1991  0.0188 -0.0344
  230loPI   C2B 3678   3.676   9.967   9.694 -0.1450  0.2035  0.4610
  230loPI   C3B 3679   3.734   9.909   9.271  0.0840  0.0187  0.1267
  230loPI   C4B 3680   3.838  10.038   8.822 -0.2608  0.1371  0.1514
  231loPI    C1 3681  16.257   8.452  11.228 -0.2180  0.0211 -0.0595
  231loPI    C2 3682  16.437   8.219  11.499 -0.0074 -0.0102 -0.2239
  231loPI    C3 3683  16.155   8.478  11.614 -0.1080 -0.2096 -0.0133
  231loPI   PO4 3684  16.264   8.507  11.008  0.1880  0.3691 -0.1665
  231loPI   GL1 3685  16.575   8.710  10.749  0.1826  0.0192  0.2943
  231loPI   GL2 3686  16.794   8.864  11.036  0.1889 -0.1147  0.0126
  231loPI   C1A 3687  16.630   8.851  10.334  0.1087 -0.0409  0.2008
  231loPI   C2A 3688  16.636   8.888   9.833 -0.0212 -0.0915  0.1882
  231loPI   C3A 3689  16.543   8.809   9.438 -0.0955 -0.0221 -0.0082
  231loPI   C4A 3690  16.725   8.717   9.040 -0.0739 -0.0542 -0.0243
  231loPI   C5A 3691  17.055   8.619   8.682 -0.3600  0.0818 -0.1161
  231loPI   C6A 3692  17.412   8.600   8.482  0.1576  0.0210 -0.0912
  231loPI   C1B 3693  17.013   8.962  10.622  0.1040 -0.1729  0.0238
  231loPI   C2B 3694  17.129   8.844  10.135 -0.1406  0.2032 -0.2443
  231loPI   C3B 3695  17.113   8.924   9.688 -0.0736 -0.2214  0.1734
  231loPI   C4B 3696  17.110   9.005   9.185  0.0566  0.1620  0.2197
  232loPI    C1 3697   5.082   9.687  10.983 -0.0049 -0.0498 -0.0365
  232loPI    C2 3698   4.688   9.626  10.957 -0.0479  0.1810  0.0456
  232loPI    C3 3699   4.884   9.526  11.291 -0.0055 -0.0885 -0.0570
  232loPI   PO4 3700   5.177   9.684  10.688 -0.0504 -0.0737 -0.0367
  232loPI   GL1 3701   5.267   9.929  10.329  0.0335 -0.2958 -0.2785
  232loPI   GL2 3702   5.228   9.588  10.145 -0.4968  0.0283  0.3426
  232loPI   C1A 3703   4.893   9.937   9.977  0.0999 -0.0508  0.1723
  232loPI   C2A 3704   4.850  10.109   9.557 -0.0736  0.0273  0.0007
  232loPI   C3A 3705   4.735  10.282   9.115 -0.0206 -0.3775  0.0464
  232loPI   C4A 3706   4.854  10.315   8.555  0.1193 -0.1527 -0.2566
  232loPI   C5A 3707   4.651  10.515   8.278 -0.2045  0.1115  0.3409
  232loPI   C6A 3708   4.314  10.489   7.936  0.1928  0.1305 -0.1299
  232loPI   C1B 3709   5.357   9.747   9.749  0.0256  0.5608 -0.0695
  232loPI   C2B 3710   5.232   9.796   9.320 -0.0564 -0.1720  0.2195
  232loPI   C3B 3711   5.149   9.970   8.895  0.3678 -0.0492 -0.3013
  232loPI   C4B 3712   5.073   9.842   8.357  0.1348 -0.1062  0.2145
  233loPI    C1 3713  11.517   5.163  10.147 -0.1342 -0.0998  0.1812
  233loPI    C2 3714  11.399   4.910  10.434 -0.5039 -0.0972  0.0375
  233loPI    C3 3715  11.198   5.250  10.373 -0.1889  0.0925  0.0327
  233loPI   PO4 3716  11.561   5.141   9.877  0.1246  0.1099  0.0375
  233loPI   GL1 3717  11.497   4.870   9.603  0.0423 -0.0337 -0.0691
  233loPI   GL2 3718  11.179   4.872   9.498  0.0407  0.3808  0.0188
  233loPI   C1A 3719  11.527   5.189   9.279 -0.2458 -0.0495 -0.0306
  233loPI   C2A 3720  11.575   5.514   9.003  0.2918  0.1524 -0.1941
  233loPI   C3A 3721  11.767   5.729   8.760 -0.1103 -0.0085 -0.0758
  233loPI   C4A 3722  11.741   5.752   8.425 -0.0530 -0.3140 -0.0115
  233loPI   C5A 3723  11.802   5.979   8.084 -0.3450 -0.2742 -0.0580
  233loPI   C6A 3724  12.094   6.088   7.819  0.1009  0.0231 -0.2082
  233loPI   C1B 3725  11.113   4.865   9.159  0.3735 -0.2365 -0.0343
  233loPI   C2B 3726  11.030   4.874   8.757 -0.0462  0.2242  0.0195
  233loPI   C3B 3727  11.077   4.974   8.412 -0.4144 -0.1028  0.1024
  233loPI   C4B 3728  11.147   5.204   7.975 -0.0037  0.2110  0.1262
  234loPI    C1 3729  15.825   9.859  11.353 -0.3660  0.0792  0.0762
  234loPI    C2 3730  16.068   9.803  11.665 -0.1050 -0.0727 -0.1504
  234loPI    C3 3731  15.700   9.949  11.722 -0.0374 -0.0376  0.2191
  234loPI   PO4 3732  15.892   9.603  11.232 -0.1416 -0.0667 -0.2492
  234loPI   GL1 3733  16.071   9.497  10.857  0.0828  0.0691  0.0541
  234loPI   GL2 3734  16.283   9.740  10.788 -0.0078  0.1123  0.2925
  234loPI   C1A 3735  16.225   9.308  10.394  0.3999  0.0709  0.1138
  234loPI   C2A 3736  16.161   9.171   9.940  0.0798 -0.1658  0.0953
  234loPI   C3A 3737  16.235   9.172   9.538 -0.0081  0.0595 -0.1466
  234loPI   C4A 3738  16.443   9.280   9.137 -0.3218 -0.2693  0.2226
  234loPI   C5A 3739  16.877   9.323   8.898 -0.3211  0.2062 -0.4501
  234loPI   C6A 3740  17.277   9.100   8.696 -0.0886 -0.1560  0.1903
  234loPI   C1B 3741  16.325   9.852  10.350  0.0755  0.1391 -0.0897
  234loPI   C2B 3742  16.311   9.750   9.910  0.0792  0.0777 -0.1093
  234loPI   C3B 3743  16.358   9.665   9.488  0.3815 -0.2548 -0.2097
  234loPI   C4B 3744  16.565   9.786   9.076 -0.2035  0.1454  0.0070
  235loPI    C1 3745  13.841  12.382  11.033 -0.0269  0.0121 -0.0548
  235loPI    C2 3746  13.472  12.453  10.896 -0.0700  0.0025  0.0557
  235loPI    C3 3747  13.524  12.229  11.224  0.0156  0.2649  0.2246
  235loPI   PO4 3748  14.023  12.552  10.815 -0.1003 -0.0645  0.1081
  235loPI   GL1 3749  14.346  12.519  10.525 -0.3110  0.1915 -0.2396
  235loPI   GL2 3750  14.563  12.247  10.523  0.1303  0.3607  0.0029
  235loPI   C1A 3751  14.185  12.724  10.131 -0.3189  0.0301 -0.0014
  235loPI   C2A 3752  14.170  12.670   9.749 -0.1813 -0.1120 -0.1914
  235loPI   C3A 3753  14.241  12.746   9.365  0.0877 -0.2192  0.0604
  235loPI   C4A 3754  14.340  12.837   8.996 -0.1736  0.2050 -0.5607
  235loPI   C5A 3755  14.203  12.809   8.545  0.1991 -0.0742 -0.1420
  235loPI   C6A 3756  14.083  13.030   8.288 -0.0417 -0.1089 -0.1356
  235loPI   C1B 3757  14.559  12.363  10.038 -0.0646  0.3420 -0.3308
  235loPI   C2B 3758  14.595  12.356   9.565 -0.0508 -0.0120 -0.1421
  235loPI   C3B 3759  14.654  12.420   9.116  0.1404  0.3105 -0.1105
  235loPI   C4B 3760  14.573  12.507   8.719 -0.2131  0.3151  0.0116
  236loPI    C1 3761  15.589   4.520  10.569 -0.3823  0.2533  0.0985
  236loPI    C2 3762  15.601   4.143  10.704 -0.2137  0.1785 -0.1183
  236loPI    C3 3763  15.402   4.423  10.909  0.0503  0.0741  0.2937
  236loPI   PO4 3764  15.721   4.506  10.384 -0.3136 -0.2364 -0.0848
  236loPI   GL1 3765  15.857   4.392   9.990 -0.2460  0.1813  0.2322
  236loPI   GL2 3766  16.259   4.401  10.094  0.1830  0.2269  0.0979
  236loPI   C1A 3767  16.094   4.272   9.615  0.0860 -0.0984 -0.1660
  236loPI   C2A 3768  16.049   4.284   9.214  0.0328  0.0381 -0.2277
  236loPI   C3A 3769  16.154   4.411   8.809 -0.0188 -0.0558  0.1382
  236loPI   C4A 3770  16.200   4.449   8.306  0.1954 -0.1492  0.0649
  236loPI   C5A 3771  16.194   4.798   8.075  0.1253  0.0046  0.0859
  236loPI   C6A 3772  16.468   4.990   8.023  0.1992  0.3407  0.0731
  236loPI   C1B 3773  16.594   4.409   9.764 -0.2708  0.1488  0.1444
  236loPI   C2B 3774  16.559   4.505   9.421  0.1699  0.1324  0.1626
  236loPI   C3B 3775  16.628   4.481   9.045  0.0510 -0.0240  0.2527
  236loPI   C4B 3776  16.685   4.569   8.599 -0.0896 -0.2922 -0.1060
  237loPI    C1 3777  11.312   0.930  10.684  0.1369  0.3515  0.0019
  237loPI    C2 3778  11.648   0.828  10.876  0.0470 -0.3068 -0.1655
  237loPI    C3 3779  11.317   0.915  11.083  0.2268  0.0209 -0.0085
  237loPI   PO4 3780  11.395   1.174  10.488  0.2900 -0.2049 -0.0800
  237loPI   GL1 3781  11.289   1.298   9.982  0.3336 -0.2366 -0.2542
  237loPI   GL2 3782  11.600   1.226  10.033 -0.2081  0.1598  0.1886
  237loPI   C1A 3783  11.377   1.267   9.570 -0.1326  0.0681 -0.0726
  237loPI   C2A 3784  11.383   1.309   9.127 -0.2856 -0.1519 -0.0978
  237loPI   C3A 3785  11.367   1.312   8.681  0.1492  0.3936 -0.0180
  237loPI   C4A 3786  11.494   1.171   8.261  0.0457 -0.1017 -0.1277
  237loPI   C5A 3787  11.286   0.988   7.885  0.0778  0.2219  0.0540
  237loPI   C6A 3788  10.928   1.177   7.510 -0.2151  0.1843 -0.4346
  237loPI   C1B 3789  11.891   1.167   9.782  0.0256  0.1310  0.0060
  237loPI   C2B 3790  11.769   1.088   9.357 -0.3374 -0.1815 -0.0088
  237loPI   C3B 3791  11.746   0.908   8.984 -0.2521  0.0101  0.2487
  237loPI   C4B 3792  11.688   0.918   8.626  0.1409 -0.0308 -0.0382
  238loPI    C1 3793   5.049   5.294  10.150  0.0496 -0.0363 -0.1053
  238loPI    C2 3794   4.940   5.480  10.487  0.1134  0.0040 -0.1068
  238loPI    C3 3795   4.661   5.326  10.244  0.0638  0.0384 -0.0720
  238loPI   PO4 3796   5.147   5.492   9.967 -0.0446  0.0022  0.1530
  238loPI   GL1 3797   5.112   5.775   9.545 -0.1671 -0.1497 -0.1277
  238loPI   GL2 3798   5.046   5.511   9.437 -0.3772  0.1353  0.0266
  238loPI   C1A 3799   5.335   5.826   9.169  0.1527 -0.0084 -0.1883
  238loPI   C2A 3800   5.372   6.046   8.802  0.1896  0.0271 -0.4556
  238loPI   C3A 3801   5.391   6.010   8.481  0.1181  0.2608 -0.1432
  238loPI   C4A 3802   5.081   5.980   8.175 -0.1989 -0.0377 -0.0389
  238loPI   C5A 3803   4.625   5.782   7.974 -0.2158  0.0765 -0.0923
  238loPI   C6A 3804   4.200   5.785   7.779 -0.5221 -0.1661  0.0458
  238loPI   C1B 3805   4.902   5.562   9.035  0.2293 -0.0284  0.1550
  238loPI   C2B 3806   4.642   5.506   8.704  0.3109  0.0499  0.0873
  238loPI   C3B 3807   4.390   5.396   8.326  0.3927 -0.2959 -0.0819
  238loPI   C4B 3808   4.257   5.152   7.942  0.2712 -0.1798  0.0210
  239loPI    C1 3809   0.724  16.770  11.168 -0.2333 -0.2426  0.0779
  239loPI    C2 3810   0.435  16.714  11.438 -0.1105 -0.2134  0.2166
  239loPI    C3 3811   0.666  17.040  11.457 -0.1568 -0.1685  0.0246
  239loPI   PO4 3812   0.637  16.752  10.922 -0.0451 -0.0345 -0.3368
  239loPI   GL1 3813   0.627  16.583  10.538 -0.0393 -0.0518  0.1312
  239loPI   GL2 3814   0.944  16.672  10.429  0.2744 -0.5549  0.2023
  239loPI   C1A 3815   0.466  16.748  10.118 -0.0004  0.2061 -0.0834
  239loPI   C2A 3816   0.518  16.698   9.665  0.1317 -0.0396 -0.1053
  239loPI   C3A 3817   0.504  16.656   9.214  0.1415 -0.0261 -0.2208
  239loPI   C4A 3818   0.526  16.717   8.799  0.5583  0.2428  0.1923
  239loPI   C5A 3819   0.608  16.563   8.361 -0.3701 -0.1550 -0.0945
  239loPI   C6A 3820   0.590  16.319   8.005 -0.1423 -0.2463  0.0838
  239loPI   C1B 3821   0.917  16.485   9.924  0.1750 -0.0945 -0.1144
  239loPI   C2B 3822   0.886  16.403   9.464  0.1726 -0.2845 -0.3899
  239loPI   C3B 3823   0.917  16.408   9.074  0.0173 -0.0945 -0.2387
  239loPI   C4B 3824   0.889  16.358   8.745 -0.1310 -0.1722 -0.2703
  240loPI    C1 3825  17.387   0.408  10.509 -0.0960  0.1516  0.1874
  240loPI    C2 3826  17.781   0.410  10.574 -0.0747 -0.1220  0.0806
  240loPI    C3 3827  17.530   0.523  10.864  0.0767 -0.0576  0.1877
  240loPI   PO4 3828  17.357   0.094  10.454 -0.0980  0.0246 -0.1892
  240loPI   GL1 3829  17.378   0.065  10.038 -0.2456 -0.0477  0.0187
  240loPI   GL2 3830  17.444  -0.300  10.172 -0.3179 -0.1987  0.0508
  240loPI   C1A 3831  17.548   0.035   9.675 -0.0250 -0.2531 -0.0678
  240loPI   C2A 3832  17.659   0.093   9.218 -0.2278  0.0582 -0.0702
  240loPI   C3A 3833  17.593   0.084   8.825  0.1744  0.0990  0.1330
  240loPI   C4A 3834  17.617  -0.001   8.362  0.1303 -0.0540 -0.0132
  240loPI   C5A 3835  17.896   0.010   7.941 -0.0325 -0.0310 -0.2240
  240loPI   C6A 3836  17.999   0.332   7.637 -0.1371  0.0733  0.0183
  240loPI   C1B 3837  17.438  -0.466   9.848  0.2877 -0.1498  0.3858
  240loPI   C2B 3838  17.492  -0.446   9.383 -0.0060  0.0031 -0.0381
  240loPI   C3B 3839  17.466  -0.483   8.858  0.0238  0.0225  0.1953
  240loPI   C4B 3840  17.566  -0.547   8.393  0.2967 -0.1564 -0.1717
  241loPI    C1 3841  16.375  16.676  10.849 -0.0727  0.0589 -0.1120
  241loPI    C2 3842  16.264  16.723  11.230  0.0334 -0.0461 -0.0676
  241loPI    C3 3843  16.579  16.493  11.140  0.1156  0.1184 -0.2051
  241loPI   PO4 3844  16.158  16.573  10.682  0.1888  0.0159 -0.0740
  241loPI   GL1 3845  15.941  16.749  10.371  0.1115 -0.1738  0.3815
  241loPI   GL2 3846  15.919  17.088  10.393  0.1414  0.0380 -0.0757
  241loPI   C1A 3847  15.984  16.630   9.982  0.0164  0.0117 -0.0767
  241loPI   C2A 3848  15.957  16.720   9.553  0.2500 -0.0289  0.1660
  241loPI   C3A 3849  15.916  16.661   9.148  0.2406 -0.1007 -0.0130
  241loPI   C4A 3850  15.913  16.684   8.684  0.0070 -0.3667  0.2456
  241loPI   C5A 3851  16.004  16.776   8.284 -0.2466  0.0601  0.1644
  241loPI   C6A 3852  16.405  16.849   8.016 -0.0667  0.1348 -0.3235
  241loPI   C1B 3853  15.857  17.155   9.923 -0.3299 -0.1091  0.3943
  241loPI   C2B 3854  15.996  17.277   9.539 -0.0355 -0.3368 -0.2854
  241loPI   C3B 3855  15.960  17.225   9.081 -0.0043  0.0602 -0.0084
  241loPI   C4B 3856  16.038  17.164   8.735  0.3729  0.1954  0.0081
  242loPI    C1 3857  13.750   5.506  10.212 -0.1587 -0.2096  0.0215
  242loPI    C2 3858  13.696   5.678  10.569 -0.1109  0.0429 -0.0905
  242loPI    C3 3859  13.420   5.428  10.423 -0.2421  0.1223  0.0196
  242loPI   PO4 3860  13.817   5.672  10.098  0.0335  0.0671 -0.0161
  242loPI   GL1 3861  14.056   5.515   9.823  0.3572  0.2161 -0.1839
  242loPI   GL2 3862  13.763   5.458   9.615  0.0327 -0.0735 -0.2216
  242loPI   C1A 3863  14.052   5.656   9.329  0.2806 -0.0026 -0.2748
  242loPI   C2A 3864  14.016   5.582   8.973  0.2954 -0.0188 -0.0723
  242loPI   C3A 3865  14.125   5.651   8.522  0.4656  0.0943 -0.2672
  242loPI   C4A 3866  14.320   5.819   8.096 -0.0796 -0.1201 -0.4936
  242loPI   C5A 3867  14.256   6.143   7.839 -0.0435 -0.0633 -0.2416
  242loPI   C6A 3868  14.014   6.494   7.786  0.2683 -0.0881  0.3022
  242loPI   C1B 3869  13.580   5.577   9.149 -0.1092 -0.2103 -0.2133
  242loPI   C2B 3870  13.595   5.624   8.739  0.1525  0.2313  0.2168
  242loPI   C3B 3871  13.656   5.582   8.262 -0.0417  0.2289 -0.0535
  242loPI   C4B 3872  13.641   5.448   7.886  0.0240  0.2421  0.0848
  243loPI    C1 3873  17.977   1.944  10.839 -0.1246 -0.0675 -0.1095
  243loPI    C2 3874  17.681   2.092  11.064 -0.0338 -0.0042 -0.0306
  243loPI    C3 3875  17.812   1.719  11.126  0.0134  0.0244  0.0441
  243loPI   PO4 3876  17.906   1.992  10.542  0.0355  0.0203 -0.2868
  243loPI   GL1 3877  18.061   1.953  10.132 -0.0560  0.1687 -0.2850
  243loPI   GL2 3878  18.372   2.166  10.159 -0.0659  0.2339  0.0502
  243loPI   C1A 3879  18.073   2.043   9.702 -0.2107  0.0370 -0.0121
  243loPI   C2A 3880  18.098   2.038   9.299  0.0836 -0.2280 -0.3145
  243loPI   C3A 3881  18.018   2.143   8.994  0.0559  0.0274  0.1285
  243loPI   C4A 3882  18.000   2.174   8.628  0.1302  0.1124 -0.0996
  243loPI   C5A 3883  17.912   2.108   8.234  0.1752  0.4216  0.0694
  243loPI   C6A 3884  17.735   2.018   7.837 -0.1648  0.3919 -0.1529
  243loPI   C1B 3885  18.546   2.209   9.737 -0.1883 -0.0075 -0.2376
  243loPI   C2B 3886  18.498   2.340   9.233 -0.2508 -0.0180  0.0773
  243loPI   C3B 3887  18.527   2.324   8.798  0.3099  0.3438 -0.1723
  243loPI   C4B 3888  18.461   2.300   8.405 -0.1372 -0.1002  0.2444
  244loPI    C1 3889   5.626  15.050  10.763 -0.0984  0.0753  0.1415
  244loPI    C2 3890   5.245  15.153  10.828 -0.0950  0.1394  0.0614
  244loPI    C3 3891   5.466  15.004  11.126 -0.2330 -0.0581  0.0663
  244loPI   PO4 3892   5.687  15.144  10.486  0.1190  0.1436  0.0182
  244loPI   GL1 3893   5.611  15.255  10.032 -0.1838 -0.0369  0.0574
  244loPI   GL2 3894   5.531  14.892  10.054  0.0478  0.0887  0.4004
  244loPI   C1A 3895   5.379  15.603   9.962  0.4441 -0.0759  0.0249
  244loPI   C2A 3896   5.275  15.826   9.662  0.3422 -0.2538  0.0014
  244loPI   C3A 3897   5.449  15.976   9.348  0.0732 -0.0733  0.1353
  244loPI   C4A 3898   5.400  15.990   8.942 -0.1139  0.1570 -0.0188
  244loPI   C5A 3899   5.452  15.972   8.483  0.1504 -0.0605  0.1879
  244loPI   C6A 3900   5.439  15.963   7.970 -0.1490 -0.0281 -0.0043
  244loPI   C1B 3901   5.728  14.901   9.693 -0.1191 -0.0768 -0.2310
  244loPI   C2B 3902   5.722  14.997   9.330 -0.0098 -0.2493 -0.0709
  244loPI   C3B 3903   5.668  14.947   8.958 -0.3403 -0.1562  0.2388
  244loPI   C4B 3904   5.680  14.973   8.477 -0.1798 -0.4235 -0.1149
  245loPI    C1 3905   0.122  13.893  11.107  0.0182  0.0266 -0.7052
  245loPI    C2 3906   0.513  13.825  11.162 -0.0722 -0.0726 -0.1078
  245loPI    C3 3907   0.356  14.182  11.255 -0.1726 -0.1242 -0.0775
  245loPI   PO4 3908   0.079  13.884  10.871 -0.1323 -0.0943 -0.0075
  245loPI   GL1 3909   0.331  13.942  10.498  0.1814  0.0810 -0.0392
  245loPI   GL2 3910   0.578  13.840  10.667 -0.0678  0.3757 -0.1944
  245loPI   C1A 3911   0.359  13.692   9.944 -0.1498  0.1556 -0.3145
  245loPI   C2A 3912   0.249  13.791   9.579 -0.0794  0.0834 -0.0393
  245loPI   C3A 3913   0.410  13.915   9.219 -0.0000  0.0401  0.1248
  245loPI   C4A 3914   0.355  13.856   8.747 -0.0003  0.0660 -0.1390
  245loPI   C5A 3915   0.642  13.869   8.480 -0.3048 -0.0678  0.0207
  245loPI   C6A 3916   0.565  13.615   8.108  0.1354 -0.1899 -0.0602
  245loPI   C1B 3917   0.799  13.894  10.207  0.0619  0.1778 -0.0286
  245loPI   C2B 3918   0.724  13.950   9.716 -0.0709 -0.0901 -0.1159
  245loPI   C3B 3919   0.894  14.044   9.338  0.0154 -0.1128 -0.0382
  245loPI   C4B 3920   0.851  14.031   9.036 -0.0211  0.2070 -0.0601
  246loPI    C1 3921  12.478   6.928  10.197  0.0899 -0.1714 -0.0926
  246loPI    C2 3922  12.380   7.305  10.288 -0.0635 -0.2241 -0.0369
  246loPI    C3 3923  12.579   7.081  10.553  0.1862 -0.1260 -0.1392
  246loPI   PO4 3924  12.598   6.965   9.915 -0.0233 -0.1861 -0.0733
  246loPI   GL1 3925  12.814   7.197   9.630 -0.1624 -0.1535  0.0555
  246loPI   GL2 3926  13.143   7.261   9.708 -0.0412  0.2518 -0.1747
  246loPI   C1A 3927  12.754   7.267   9.228 -0.1647 -0.1263  0.1438
  246loPI   C2A 3928  12.927   7.361   8.693  0.1492 -0.1480  0.1845
  246loPI   C3A 3929  12.798   7.376   8.307 -0.0937 -0.2393 -0.0762
  246loPI   C4A 3930  12.727   7.581   7.949 -0.2140  0.1121 -0.2716
  246loPI   C5A 3931  12.978   7.940   7.724 -0.3373  0.2570 -0.2681
  246loPI   C6A 3932  13.391   8.101   7.566  0.2621 -0.1974 -0.0250
  246loPI   C1B 3933  13.234   7.119   9.341  0.0625 -0.1189 -0.2532
  246loPI   C2B 3934  13.158   7.020   8.901 -0.0544  0.1912 -0.1638
  246loPI   C3B 3935  13.342   7.057   8.543  0.0277 -0.0418 -0.3261
  246loPI   C4B 3936  12.989   6.986   8.159 -0.1013  0.3671  0.0442
  247loPI    C1 3937   9.441  15.054  10.846 -0.1964  0.0084 -0.0872
  247loPI    C2 3938   9.202  15.374  10.819 -0.4113 -0.1262  0.1667
  247loPI    C3 3939   9.206  15.155  11.154 -0.1611 -0.3086  0.0482
  247loPI   PO4 3940   9.446  14.988  10.565 -0.1764 -0.0808 -0.4712
  247loPI   GL1 3941   9.535  15.180  10.289  0.2952 -0.0272  0.2680
  247loPI   GL2 3942   9.828  15.249  10.131  0.0597 -0.0031 -0.4651
  247loPI   C1A 3943   9.456  15.097   9.851  0.0853 -0.3850  0.2213
  247loPI   C2A 3944   9.488  15.202   9.288  0.0821  0.2559 -0.0850
  247loPI   C3A 3945   9.484  15.168   8.788  0.1392  0.3014 -0.1481
  247loPI   C4A 3946   9.390  15.038   8.391 -0.4000  0.1026 -0.1717
  247loPI   C5A 3947   9.254  15.145   7.981 -0.1038  0.2392  0.2356
  247loPI   C6A 3948   9.307  15.022   7.571 -0.2788  0.2446  0.0499
  247loPI   C1B 3949   9.945  15.318   9.719  0.0909  0.1351  0.2172
  247loPI   C2B 3950  10.025  15.307   9.296 -0.0588 -0.0163 -0.1806
  247loPI   C3B 3951  10.020  15.418   8.887 -0.1420  0.0931 -0.1474
  247loPI   C4B 3952   9.870  15.324   8.481  0.1892 -0.1552 -0.2717
  248loPI    C1 3953  15.189  13.524  11.303  0.3524  0.0147  0.0175
  248loPI    C2 3954  15.584  13.576  11.330  0.3829 -0.2944  0.2101
  248loPI    C3 3955  15.409  13.271  11.520  0.0205 -0.0316  0.3089
  248loPI   PO4 3956  15.091  13.555  10.978 -0.1411 -0.2273  0.0643
  248loPI   GL1 3957  14.870  13.501  10.560 -0.2469  0.5936  0.1568
  248loPI   GL2 3958  15.102  13.608  10.354  0.2710 -0.0161  0.0145
  248loPI   C1A 3959  14.667  13.470  10.181 -0.2423  0.0973  0.5735
  248loPI   C2A 3960  14.685  13.438   9.743  0.0988  0.2528  0.0935
  248loPI   C3A 3961  14.723  13.438   9.382 -0.0064  0.2357 -0.0556
  248loPI   C4A 3962  14.886  13.429   8.971  0.1030 -0.4620  0.3988
  248loPI   C5A 3963  14.811  13.301   8.599  0.2342  0.5385  0.1234
  248loPI   C6A 3964  14.875  12.831   8.516 -0.1172  0.4447  0.0524
  248loPI   C1B 3965  15.255  13.617   9.917 -0.1391 -0.2843  0.1936
  248loPI   C2B 3966  15.214  13.665   9.504  0.3296  0.1055  0.1151
  248loPI   C3B 3967  15.406  13.623   9.073 -0.2434 -0.1183  0.0743
  248loPI   C4B 3968  15.288  13.580   8.629 -0.1757 -0.1028  0.0154
  249loPI    C1 3969  10.633   6.404  10.303 -0.1399  0.1357  0.0040
  249loPI    C2 3970  10.513   6.434  10.684  0.0786  0.0178  0.0835
  249loPI    C3 3971  10.412   6.717  10.420 -0.2242  0.0097  0.1867
  249loPI   PO4 3972  10.582   6.253  10.125 -0.0869  0.0469 -0.1963
  249loPI   GL1 3973  10.474   6.358   9.695 -0.1205  0.1282 -0.1960
  249loPI   GL2 3974  10.235   6.156   9.656  0.0779  0.1453 -0.0354
  249loPI   C1A 3975  10.177   6.675   9.448 -0.1900  0.1065 -0.1932
  249loPI   C2A 3976   9.919   6.515   8.979  0.0047 -0.1246 -0.0199
  249loPI   C3A 3977   9.756   6.548   8.606  0.0024  0.2108  0.1082
  249loPI   C4A 3978   9.644   6.749   8.245 -0.1809  0.0815 -0.0114
  249loPI   C5A 3979   9.407   6.896   7.898  0.3973  0.1236  0.0668
  249loPI   C6A 3980   9.128   6.991   7.522 -0.0385  0.0607 -0.1204
  249loPI   C1B 3981   9.925   6.134   9.340 -0.3635 -0.1261  0.0276
  249loPI   C2B 3982   9.728   6.083   8.916  0.2178 -0.0354 -0.0615
  249loPI   C3B 3983   9.614   6.041   8.444  0.0291 -0.3481  0.2669
  249loPI   C4B 3984   9.691   6.168   8.001 -0.3703  0.0006  0.2732
  250loPI    C1 3985  10.114   2.982  10.457 -0.0924  0.0981  0.0862
  250loPI    C2 3986  10.337   3.306  10.529 -0.2023  0.1507  0.1914
  250loPI    C3 3987  10.109   3.151  10.819 -0.1749 -0.0018  0.1322
  250loPI   PO4 3988  10.339   2.859  10.315 -0.1294 -0.2109  0.0362
  250loPI   GL1 3989  10.485   3.057  10.054 -0.0970  0.0007 -0.0730
  250loPI   GL2 3990  10.405   3.306   9.971  0.4063 -0.1070 -0.0080
  250loPI   C1A 3991  10.455   2.856   9.703  0.0392 -0.0680  0.0738
  250loPI   C2A 3992  10.289   2.877   9.345 -0.3806 -0.1049 -0.1880
  250loPI   C3A 3993  10.375   2.931   8.868 -0.1821 -0.0416  0.2479
  250loPI   C4A 3994  10.288   2.918   8.461 -0.1374  0.4016  0.3927
  250loPI   C5A 3995  10.082   3.157   8.216  0.1851 -0.3409  0.2464
  250loPI   C6A 3996   9.922   3.484   8.276  0.3821  0.1932  0.1495
  250loPI   C1B 3997  10.240   3.315   9.556 -0.0552 -0.0987 -0.0889
  250loPI   C2B 3998  10.228   3.305   9.160  0.0014  0.1942 -0.0693
  250loPI   C3B 3999   9.980   3.216   8.716 -0.0029 -0.2113 -0.0084
  250loPI   C4B 4000   9.554   3.107   8.527  0.1450  0.1509 -0.0707
  251loPI    C1 4001   0.218  10.603  11.409 -0.1332  0.1274  0.2015
  251loPI    C2 4002   0.500  10.779  11.632 -0.0398 -0.1548  0.3098
  251loPI    C3 4003   0.552  10.404  11.502 -0.0812  0.0132 -0.2135
  251loPI   PO4 4004   0.025  10.726  11.168  0.0719 -0.2215 -0.3186
  251loPI   GL1 4005  -0.110  10.707  10.843 -0.0242  0.1160 -0.0659
  251loPI   GL2 4006  -0.390  10.611  10.935 -0.1089  0.0970  0.1794
  251loPI   C1A 4007  -0.249  10.690  10.442 -0.2858  0.3186 -0.1087
  251loPI   C2A 4008  -0.302  10.639   9.986  0.1742 -0.0549 -0.3729
  251loPI   C3A 4009  -0.321  10.618   9.578  0.2789 -0.1731  0.3258
  251loPI   C4A 4010  -0.227  10.623   9.196  0.1995 -0.0620 -0.2324
  251loPI   C5A 4011  -0.074  10.440   8.862  0.2450 -0.2239  0.5015
  251loPI   C6A 4012   0.250  10.368   8.525  0.4597 -0.0179  0.2246
  251loPI   C1B 4013  -0.673  10.851  10.651 -0.1525  0.2903 -0.0717
  251loPI   C2B 4014  -0.774  11.079  10.263 -0.2364  0.0978  0.3324
  251loPI   C3B 4015  -0.673  11.016   9.897 -0.0274  0.0776  0.0857
  251loPI   C4B 4016  -0.683  10.991   9.422  0.2983 -0.3713 -0.2294
  252loPI    C1 4017   1.527   7.663  11.083 -0.1809 -0.1591 -0.0463
  252loPI    C2 4018   1.589   7.357  11.333 -0.1542 -0.2313 -0.1409
  252loPI    C3 4019   1.683   7.729  11.446  0.0367 -0.2859 -0.1151
  252loPI   PO4 4020   1.586   7.541  10.840 -0.0084 -0.2387  0.2559
  252loPI   GL1 4021   1.473   7.582  10.484 -0.0585 -0.0370 -0.0665
  252loPI   GL2 4022   1.709   7.703  10.341  0.2429  0.3347  0.3807
  252loPI   C1A 4023   1.470   7.414  10.050 -0.1135 -0.0557  0.0545
  252loPI   C2A 4024   1.348   7.283   9.649  0.0617  0.0745  0.1227
  252loPI   C3A 4025   1.315   7.312   9.270  0.0215  0.2345  0.2626
  252loPI   C4A 4026   1.403   7.401   8.837 -0.2851 -0.4938 -0.3334
  252loPI   C5A 4027   1.296   7.467   8.434  0.0058 -0.2375  0.0790
  252loPI   C6A 4028   1.067   7.667   8.037  0.0389 -0.5560 -0.0092
  252loPI   C1B 4029   1.439   7.896  10.030  0.0495 -0.2409  0.0008
  252loPI   C2B 4030   1.442   7.847   9.516 -0.3701  0.5089 -0.0226
  252loPI   C3B 4031   1.468   7.800   9.095 -0.0246 -0.1517  0.0153
  252loPI   C4B 4032   1.465   7.930   8.700 -0.0618  0.0835  0.1831
  253loPI    C1 4033   1.287  12.343  11.082  0.3084  0.1172  0.0636
  253loPI    C2 4034   1.470  12.332  11.438  0.3870  0.0160  0.0205
  253loPI    C3 4035   1.366  11.991  11.256  0.1058  0.0730  0.0692
  253loPI   PO4 4036   1.363  12.487  10.887 -0.2343 -0.4053 -0.1548
  253loPI   GL1 4037   1.281  12.653  10.565 -0.3458  0.1138 -0.0811
  253loPI   GL2 4038   0.994  12.516  10.503  0.3187 -0.2568  0.1664
  253loPI   C1A 4039   1.565  12.640  10.303 -0.0903 -0.2048  0.0171
  253loPI   C2A 4040   1.545  12.699   9.817 -0.0437 -0.0516 -0.0958
  253loPI   C3A 4041   1.479  12.731   9.375 -0.2962  0.1572  0.2065
  253loPI   C4A 4042   1.460  12.804   8.921 -0.1072  0.0378  0.1922
  253loPI   C5A 4043   1.635  12.744   8.577  0.0933 -0.2857  0.1397
  253loPI   C6A 4044   1.813  12.571   8.270  0.3413 -0.2238  0.1422
  253loPI   C1B 4045   0.978  12.431  10.065  0.1130 -0.1138 -0.2822
  253loPI   C2B 4046   1.082  12.528   9.671 -0.3727  0.0930  0.0613
  253loPI   C3B 4047   1.056  12.540   9.198 -0.1564 -0.1455  0.0166
  253loPI   C4B 4048   0.940  12.488   8.777  0.2195 -0.1334  0.1323
  254loPI    C1 4049   2.920   6.874  10.982 -0.1181  0.1091  0.0196
  254loPI    C2 4050   2.987   6.630  11.291 -0.0043  0.0182 -0.0756
  254loPI    C3 4051   2.613   6.699  11.168 -0.0374 -0.1025 -0.0436
  254loPI   PO4 4052   3.079   6.775  10.756 -0.1728 -0.0922  0.0693
  254loPI   GL1 4053   2.885   6.835  10.336 -0.0171 -0.1917  0.0974
  254loPI   GL2 4054   2.815   6.710  10.265 -0.0714  0.1761 -0.0255
  254loPI   C1A 4055   2.788   7.144   9.879 -0.3034 -0.1924  0.2159
  254loPI   C2A 4056   2.886   7.211   9.486  0.1555 -0.1187  0.0805
  254loPI   C3A 4057   2.650   7.253   9.140 -0.1946 -0.1315 -0.2216
  254loPI   C4A 4058   2.691   7.288   8.776 -0.0270 -0.1500  0.2047
  254loPI   C5A 4059   2.693   7.251   8.302 -0.3007  0.0173  0.0211
  254loPI   C6A 4060   3.100   7.331   7.996 -0.1845  0.3415 -0.1036
  254loPI   C1B 4061   2.727   6.656   9.845  0.1749  0.0532 -0.0978
  254loPI   C2B 4062   2.644   6.722   9.432 -0.0675 -0.1101 -0.0934
  254loPI   C3B 4063   2.546   6.713   9.008  0.0637  0.0411 -0.0117
  254loPI   C4B 4064   2.522   6.827   8.682  0.0599 -0.0897 -0.2204
  255loPI    C1 4065  13.414   4.100  10.306  0.0929  0.2390 -0.0585
  255loPI    C2 4066  13.503   3.767  10.509  0.0876  0.1990 -0.1213
  255loPI    C3 4067  13.206   4.004  10.633 -0.1146  0.0167 -0.2519
  255loPI   PO4 4068  13.313   3.973  10.053  0.1474 -0.1099 -0.1984
  255loPI   GL1 4069  13.233   3.658   9.715  0.1095 -0.0994 -0.1603
  255loPI   GL2 4070  13.595   3.649   9.581  0.1191  0.1707  0.0322
  255loPI   C1A 4071  13.142   3.513   9.314  0.0792  0.0666 -0.2788
  255loPI   C2A 4072  12.914   3.500   8.955 -0.0623 -0.1701  0.1036
  255loPI   C3A 4073  12.882   3.612   8.530 -0.0485 -0.3312 -0.0941
  255loPI   C4A 4074  12.702   3.754   8.162 -0.2834 -0.1796 -0.3228
  255loPI   C5A 4075  12.468   4.043   7.857  0.0056 -0.0491 -0.0406
  255loPI   C6A 4076  12.307   4.349   7.632 -0.0386  0.0269  0.2328
  255loPI   C1B 4077  13.578   3.652   9.142 -0.2550  0.4628 -0.2423
  255loPI   C2B 4078  13.593   3.567   8.666 -0.1213  0.1358 -0.0125
  255loPI   C3B 4079  13.769   3.392   8.349 -0.1433  0.1577 -0.1911
  255loPI   C4B 4080  14.092   3.306   8.083 -0.2783  0.4093  0.3939
  256loPI    C1 4081   4.632  10.731  10.438 -0.3971  0.0503  0.2344
  256loPI    C2 4082   5.011  10.834  10.363 -0.3191 -0.3347  0.0804
  256loPI    C3 4083   4.918  10.650  10.706 -0.4163  0.0073  0.2417
  256loPI   PO4 4084   4.526  10.980  10.390 -0.0923  0.1037 -0.0569
  256loPI   GL1 4085   4.399  11.269  10.194 -0.3078  0.2338  0.0580
  256loPI   GL2 4086   4.136  11.470  10.168 -0.0835 -0.0171  0.0663
  256loPI   C1A 4087   4.416  11.137   9.773  0.1178 -0.0906  0.0932
  256loPI   C2A 4088   4.401  11.268   9.344  0.0515  0.2553 -0.2685
  256loPI   C3A 4089   4.408  11.211   8.953  0.1363  0.1260 -0.0375
  256loPI   C4A 4090   4.558  11.160   8.541  0.0120 -0.0435  0.1290
  256loPI   C5A 4091   4.552  11.017   8.157  0.2612 -0.0206 -0.0499
  256loPI   C6A 4092   4.444  10.925   7.787 -0.0930  0.1548  0.0632
  256loPI   C1B 4093   4.022  11.534   9.738 -0.0073 -0.2965  0.0868
  256loPI   C2B 4094   3.987  11.585   9.274 -0.0278 -0.0010  0.3249
  256loPI   C3B 4095   4.094  11.545   8.838 -0.1743 -0.1775  0.1812
  256loPI   C4B 4096   4.017  11.764   8.474 -0.3631  0.1742  0.1251
  257loPI    C1 4097  15.826   4.967  10.918  0.0937 -0.0055  0.0877
  257loPI    C2 4098  15.814   4.577  11.003  0.0293  0.0127  0.1637
  257loPI    C3 4099  15.694   4.844  11.275 -0.0933  0.0763  0.0481
  257loPI   PO4 4100  15.708   5.025  10.622 -0.4453  0.1116  0.1820
  257loPI   GL1 4101  15.695   5.193  10.193  0.2262  0.2910 -0.0355
  257loPI   GL2 4102  15.353   5.332  10.285 -0.0625 -0.2029 -0.2081
  257loPI   C1A 4103  15.814   5.227   9.740 -0.2833  0.2128 -0.1793
  257loPI   C2A 4104  15.904   5.180   9.316 -0.3659 -0.2692  0.1310
  257loPI   C3A 4105  15.888   5.297   8.874  0.2659  0.0450  0.0798
  257loPI   C4A 4106  15.919   5.293   8.497 -0.2853 -0.0144  0.4012
  257loPI   C5A 4107  16.062   5.272   8.094 -0.2079  0.0337 -0.3121
  257loPI   C6A 4108  16.268   5.230   7.639  0.0467  0.3372  0.0910
  257loPI   C1B 4109  15.293   5.157   9.865  0.1405  0.0518  0.2056
  257loPI   C2B 4110  15.342   5.122   9.437  0.0464  0.0994  0.0234
  257loPI   C3B 4111  15.367   5.165   9.036  0.1278 -0.0051 -0.0767
  257loPI   C4B 4112  15.413   5.136   8.550 -0.1188 -0.1848  0.0683
  258loPI    C1 4113   4.524   2.203  10.408 -0.2190 -0.0597  0.0632
  258loPI    C2 4114   4.851   2.064  10.591 -0.2003 -0.0400  0.0448
  258loPI    C3 4115   4.641   2.362  10.756 -0.0946  0.0836 -0.0429
  258loPI   PO4 4116   4.340   2.013  10.267  0.0968  0.2567  0.0195
  258loPI   GL1 4117   4.003   2.047   9.974 -0.1446  0.4845  0.0360
  258loPI   GL2 4118   4.347   1.989   9.790 -0.0676 -0.2810  0.3175
  258loPI   C1A 4119   3.989   2.294   9.625  0.2272  0.1155 -0.0916
  258loPI   C2A 4120   3.921   2.257   9.304 -0.1162 -0.0133 -0.2051
  258loPI   C3A 4121   3.787   2.217   8.891 -0.2780 -0.0623  0.1398
  258loPI   C4A 4122   3.751   2.341   8.513  0.3768  0.2835  0.2532
  258loPI   C5A 4123   3.645   2.231   8.131  0.1024  0.3032 -0.1502
  258loPI   C6A 4124   3.591   2.009   7.779 -0.2927  0.0764 -0.0494
  258loPI   C1B 4125   4.417   1.965   9.390  0.1971  0.0736  0.0534
  258loPI   C2B 4126   4.255   2.002   8.893  0.3665  0.0010  0.2059
  258loPI   C3B 4127   4.103   1.902   8.533 -0.0946 -0.0343  0.0919
  258loPI   C4B 4128   4.019   1.861   8.089  0.0778  0.1877  0.1968
  259loPI    C1 4129   3.027  13.613  10.838 -0.1811  0.1111 -0.1600
  259loPI    C2 4130   3.198  13.445  11.158 -0.2127  0.1392 -0.1284
  259loPI    C3 4131   3.408  13.696  10.927 -0.1368 -0.0150 -0.2286
  259loPI   PO4 4132   2.912  13.412  10.721 -0.1842  0.0338 -0.3361
  259loPI   GL1 4133   2.985  13.199  10.297  0.2850  0.1322 -0.1091
  259loPI   GL2 4134   3.396  13.224  10.290  0.0222 -0.1374 -0.0068
  259loPI   C1A 4135   3.040  13.101   9.857 -0.0288 -0.2970 -0.1688
  259loPI   C2A 4136   3.032  13.123   9.409 -0.0009  0.0828  0.0124
  259loPI   C3A 4137   2.821  13.167   9.038 -0.0853 -0.1758 -0.0345
  259loPI   C4A 4138   2.826  13.209   8.605 -0.1068 -0.0969  0.3676
  259loPI   C5A 4139   3.031  13.335   8.310 -0.0313  0.1533  0.0384
  259loPI   C6A 4140   3.067  13.257   7.801 -0.3113 -0.1641  0.2963
  259loPI   C1B 4141   3.498  13.344   9.876  0.2427 -0.0208 -0.1194
  259loPI   C2B 4142   3.480  13.293   9.441 -0.3181  0.4560 -0.0246
  259loPI   C3B 4143   3.322  13.340   8.940  0.1728 -0.0377 -0.1839
  259loPI   C4B 4144   3.428  13.408   8.564 -0.1636  0.2021  0.1651
  260loPI    C1 4145  10.218  11.973  10.662  0.1794 -0.1299 -0.0184
  260loPI    C2 4146  10.199  11.576  10.708 -0.0651 -0.0992  0.1669
  260loPI    C3 4147   9.916  11.810  10.867  0.1711  0.1631  0.2099
  260loPI   PO4 4148  10.281  12.058  10.399  0.2333  0.0345 -0.0997
  260loPI   GL1 4149  10.376  12.421  10.201  0.0702 -0.1050  0.0176
  260loPI   GL2 4150  10.615  12.037  10.039 -0.1506  0.0932 -0.0520
  260loPI   C1A 4151  10.485  12.376   9.722  0.0145 -0.1339 -0.2665
  260loPI   C2A 4152  10.451  12.433   9.317 -0.3593 -0.5870 -0.0152
  260loPI   C3A 4153  10.347  12.521   8.891 -0.0074  0.3093  0.3521
  260loPI   C4A 4154  10.238  12.598   8.449  0.0085  0.2565 -0.1726
  260loPI   C5A 4155  10.244  12.894   8.178  0.1262 -0.0898 -0.3425
  260loPI   C6A 4156  10.279  13.368   8.333 -0.2779  0.0858  0.0034
  260loPI   C1B 4157  10.792  12.026   9.616  0.1925 -0.2225 -0.2685
  260loPI   C2B 4158  10.812  12.123   9.219  0.0125 -0.0989  0.2628
  260loPI   C3B 4159  10.711  12.166   8.864  0.0383  0.1309  0.2094
  260loPI   C4B 4160  10.605  12.324   8.495 -0.1215  0.0815  0.2723
  261loPI    C1 4161  16.611   3.372  10.515  0.1210 -0.0086  0.1010
  261loPI    C2 4162  16.651   3.318  10.909 -0.1740 -0.2399  0.1027
  261loPI    C3 4163  16.766   3.031  10.655  0.2043 -0.0100  0.0064
  261loPI   PO4 4164  16.564   3.664  10.507  0.2261 -0.2946  0.0518
  261loPI   GL1 4165  16.430   3.929  10.198 -0.0913 -0.0789 -0.0291
  261loPI   GL2 4166  16.419   3.603  10.010  0.0486  0.0087 -0.0074
  261loPI   C1A 4167  16.454   3.922   9.649 -0.1285 -0.1990 -0.4208
  261loPI   C2A 4168  16.478   4.011   9.229 -0.1921  0.1139  0.0445
  261loPI   C3A 4169  16.503   4.041   8.835 -0.1486  0.1907  0.2380
  261loPI   C4A 4170  16.550   4.138   8.371 -0.0821 -0.1149  0.2973
  261loPI   C5A 4171  16.436   4.181   7.884 -0.0383  0.0279  0.2294
  261loPI   C6A 4172  16.209   4.187   7.411  0.2768  0.2714 -0.0845
  261loPI   C1B 4173  16.300   3.387   9.620  0.1182 -0.0899  0.1111
  261loPI   C2B 4174  16.396   3.555   9.308  0.1252 -0.1232  0.0388
  261loPI   C3B 4175  16.473   3.553   8.887 -0.1038 -0.1975  0.2713
  261loPI   C4B 4176  16.367   3.687   8.547 -0.0987  0.0639 -0.0131
  262loPI    C1 4177   5.671   0.928  10.647 -0.1207 -0.1770  0.0282
  262loPI    C2 4178   5.904   0.709  10.889 -0.0536 -0.1850 -0.0431
  262loPI    C3 4179   5.548   0.840  11.017  0.0311 -0.0921  0.0998
  262loPI   PO4 4180   5.734   0.795  10.366  0.3482 -0.5319 -0.0776
  262loPI   GL1 4181   5.703   0.991  10.044  0.0972  0.0595  0.1785
  262loPI   GL2 4182   6.111   0.934   9.876  0.2476 -0.3133 -0.0577
  262loPI   C1A 4183   5.661   0.675   9.628  0.1180  0.1345 -0.0143
  262loPI   C2A 4184   5.579   0.572   9.229  0.2329  0.0236  0.6431
  262loPI   C3A 4185   5.720   0.633   8.821  0.0734 -0.0061  0.0459
  262loPI   C4A 4186   5.785   0.520   8.453 -0.1744 -0.1476 -0.1867
  262loPI   C5A 4187   5.702   0.644   8.044  0.2229  0.0515 -0.2523
  262loPI   C6A 4188   6.061   0.824   7.723  0.2901  0.0012 -0.2667
  262loPI   C1B 4189   6.071   0.960   9.387 -0.0293  0.1296 -0.0762
  262loPI   C2B 4190   6.141   0.935   8.979 -0.3060  0.1659  0.1884
  262loPI   C3B 4191   6.168   0.859   8.527 -0.0176  0.0627  0.0466
  262loPI   C4B 4192   6.283   0.674   8.183  0.0705 -0.1894 -0.0184
  263loPI    C1 4193   2.349   9.897  10.917  0.1529  0.1976 -0.1456
  263loPI    C2 4194   2.471  10.188  11.163 -0.3165  0.3807 -0.1198
  263loPI    C3 4195   2.295   9.860  11.311 -0.0863  0.2305 -0.1737
  263loPI   PO4 4196   2.528   9.835  10.765  0.1514  0.2182 -0.0776
  263loPI   GL1 4197   2.599   9.852  10.350  0.1027  0.3320 -0.0205
  263loPI   GL2 4198   2.741   9.624  10.149 -0.1917 -0.0101  0.0260
  263loPI   C1A 4199   2.498   9.992   9.962 -0.0935 -0.2166  0.1049
  263loPI   C2A 4200   2.411  10.024   9.591 -0.1131 -0.0170 -0.0542
  263loPI   C3A 4201   2.374  10.123   9.200 -0.2111 -0.0887  0.0455
  263loPI   C4A 4202   2.315  10.095   8.817  0.0393  0.0688  0.0661
  263loPI   C5A 4203   2.421  10.066   8.357 -0.1454 -0.2619  0.2425
  263loPI   C6A 4204   2.803   9.956   8.055  0.0409  0.0711 -0.0355
  263loPI   C1B 4205   2.804   9.530   9.699  0.2667 -0.1016 -0.1717
  263loPI   C2B 4206   2.719   9.774   9.363 -0.1281 -0.1135 -0.3492
  263loPI   C3B 4207   2.680   9.791   8.877 -0.1179  0.0191  0.1544
  263loPI   C4B 4208   2.758   9.708   8.503 -0.2032  0.1575 -0.1295
  264loPI    C1 4209   5.765   1.420  10.701  0.0077  0.0166 -0.0221
  264loPI    C2 4210   5.423   1.354  10.898  0.0698  0.0657  0.1034
  264loPI    C3 4211   5.677   1.635  11.026  0.1594  0.0269  0.0133
  264loPI   PO4 4212   5.793   1.343  10.373  0.2952 -0.1001 -0.1643
  264loPI   GL1 4213   5.863   1.599   9.947  0.2045 -0.0201 -0.0342
  264loPI   GL2 4214   6.142   1.421   9.858  0.1966  0.0382 -0.2298
  264loPI   C1A 4215   5.790   1.248   9.628  0.2697 -0.0078 -0.2049
  264loPI   C2A 4216   5.803   1.357   9.159 -0.0261 -0.5429 -0.1192
  264loPI   C3A 4217   5.706   1.140   8.817  0.1185  0.3113  0.1980
  264loPI   C4A 4218   5.760   1.118   8.339 -0.1436 -0.3726  0.0281
  264loPI   C5A 4219   5.673   1.483   8.080 -0.1535 -0.1923  0.0935
  264loPI   C6A 4220   5.753   1.871   7.996  0.1115 -0.1844  0.1553
  264loPI   C1B 4221   6.272   1.478   9.437 -0.0227 -0.1305  0.3155
  264loPI   C2B 4222   6.234   1.451   8.910  0.1689  0.0469  0.0697
  264loPI   C3B 4223   6.052   1.525   8.473 -0.2945  0.0708 -0.0414
  264loPI   C4B 4224   6.250   1.817   8.125 -0.2606 -0.0577  0.1028
  265loPI    C1 4225  17.217   8.207  11.350  0.1761  0.2508  0.0807
  265loPI    C2 4226  16.916   8.120  11.599  0.1046 -0.0644 -0.1106
  265loPI    C3 4227  17.036   8.499  11.554 -0.0570  0.0265  0.2005
  265loPI   PO4 4228  17.202   8.059  11.138  0.2116  0.2070 -0.0514
  265loPI   GL1 4229  17.089   7.886  10.717 -0.0728 -0.1272 -0.1861
  265loPI   GL2 4230  16.832   7.692  10.660  0.0542 -0.0240  0.4465
  265loPI   C1A 4231  17.300   8.015  10.449  0.4117 -0.1063  0.2152
  265loPI   C2A 4232  17.444   7.957  10.058  0.1897 -0.2362 -0.2415
  265loPI   C3A 4233  17.362   8.096   9.640  0.3956  0.0099  0.1188
  265loPI   C4A 4234  17.453   8.088   9.195 -0.0577  0.0082  0.0262
  265loPI   C5A 4235  17.406   8.190   8.747  0.2363  0.0424 -0.1120
  265loPI   C6A 4236  17.214   8.006   8.348 -0.1072 -0.1298  0.0669
  265loPI   C1B 4237  16.825   7.746  10.185  0.1802  0.2130 -0.3148
  265loPI   C2B 4238  16.847   7.814   9.800 -0.1210 -0.1485 -0.0404
  265loPI   C3B 4239  16.828   7.944   9.467  0.0822  0.0409 -0.0989
  265loPI   C4B 4240  17.041   7.926   9.053  0.1380 -0.0498  0.0502
  266loPI    C1 4241   5.357   6.832  10.269  0.0542  0.3390  0.1310
  266loPI    C2 4242   5.157   6.784   9.926  0.2845 -0.1077  0.0513
  266loPI    C3 4243   5.186   7.147  10.091 -0.1954  0.0415 -0.1718
  266loPI   PO4 4244   5.615   6.781  10.159  0.4298  0.1626  0.0178
  266loPI   GL1 4245   5.665   6.614   9.726  0.4839 -0.2618 -0.0578
  266loPI   GL2 4246   5.470   7.044   9.618 -0.0844  0.1130  0.3505
  266loPI   C1A 4247   5.652   6.802   9.245  0.0769  0.0918  0.5012
  266loPI   C2A 4248   5.619   6.951   8.795  0.0109 -0.1078 -0.1723
  266loPI   C3A 4249   5.678   7.039   8.359  0.1840  0.1694 -0.1774
  266loPI   C4A 4250   5.745   7.144   7.908  0.1431 -0.1404 -0.0518
  266loPI   C5A 4251   6.026   7.253   7.514 -0.3981 -0.1876 -0.0014
  266loPI   C6A 4252   5.990   7.591   7.307 -0.1293  0.1778  0.3705
  266loPI   C1B 4253   5.194   7.049   9.230 -0.3586  0.0964 -0.2326
  266loPI   C2B 4254   5.114   7.007   8.818  0.0031  0.1783  0.2607
  266loPI   C3B 4255   5.076   6.902   8.409  0.3046 -0.3070 -0.0354
  266loPI   C4B 4256   5.323   6.959   8.049 -0.1586 -0.0875  0.1108
  267loPI    C1 4257   8.337  10.397  10.312 -0.0789  0.0531 -0.0375
  267loPI    C2 4258   8.401  10.082  10.074 -0.0728  0.0881 -0.0822
  267loPI    C3 4259   8.383  10.033  10.471 -0.3100 -0.0059 -0.1033
  267loPI   PO4 4260   8.177  10.481  10.234 -0.0166  0.0012 -0.0945
  267loPI   GL1 4261   8.030  10.804   9.957  0.1023  0.0723 -0.2579
  267loPI   GL2 4262   7.759  10.709   9.756  0.0042 -0.1904  0.2261
  267loPI   C1A 4263   7.753  11.242   9.692  0.1071 -0.0354  0.1632
  267loPI   C2A 4264   7.659  11.383   9.205  0.0608  0.1784 -0.2971
  267loPI   C3A 4265   7.745  11.294   8.818 -0.3797 -0.2833  0.2510
  267loPI   C4A 4266   7.684  11.392   8.347 -0.1180 -0.2765 -0.2017
  267loPI   C5A 4267   7.747  11.225   7.999  0.1228 -0.1242 -0.0438
  267loPI   C6A 4268   7.836  10.855   7.821  0.1484  0.3280 -0.1420
  267loPI   C1B 4269   7.640  10.884   9.367  0.1283  0.2466  0.3360
  267loPI   C2B 4270   7.574  10.784   9.002  0.0262  0.2851 -0.1657
  267loPI   C3B 4271   7.616  10.750   8.617 -0.0932  0.1320 -0.1087
  267loPI   C4B 4272   7.471  10.931   8.264  0.2231 -0.2005 -0.1565
  268loPI    C1 4273   7.174  16.840  10.832 -0.0951 -0.0802 -0.0835
  268loPI    C2 4274   6.941  16.591  11.041  0.1413 -0.2504 -0.0190
  268loPI    C3 4275   7.313  16.669  11.165  0.0230  0.2520  0.0421
  268loPI   PO4 4276   7.005  16.781  10.475  0.2088  0.0732 -0.0449
  268loPI   GL1 4277   7.116  16.623   9.990  0.3244 -0.2772 -0.0890
  268loPI   GL2 4278   6.764  16.722   9.976 -0.0669 -0.3903 -0.1564
  268loPI   C1A 4279   7.466  16.630   9.684  0.1799 -0.2935  0.1512
  268loPI   C2A 4280   7.394  16.628   9.264  0.1179  0.2868  0.3271
  268loPI   C3A 4281   7.442  16.452   8.836  0.2761 -0.1641  0.1546
  268loPI   C4A 4282   7.515  16.447   8.448  0.0661  0.0061 -0.0947
  268loPI   C5A 4283   7.616  16.491   7.989  0.0017  0.0911 -0.2091
  268loPI   C6A 4284   7.248  16.161   7.763 -0.1689 -0.0392 -0.2543
  268loPI   C1B 4285   6.944  16.488   9.577  0.0119 -0.1457 -0.2303
  268loPI   C2B 4286   6.864  16.384   9.168 -0.0925 -0.0522  0.2017
  268loPI   C3B 4287   6.998  16.283   8.833  0.0487 -0.3826  0.0339
  268loPI   C4B 4288   6.996  16.220   8.355  0.0384  0.0125  0.0983
  269loPI    C1 4289  11.178  15.201  10.990 -0.1988  0.1481 -0.1002
  269loPI    C2 4290  11.207  15.560  11.164 -0.1637  0.1558 -0.1220
  269loPI    C3 4291  11.097  15.242  11.379  0.1662  0.1090 -0.0170
  269loPI   PO4 4292  11.019  15.329  10.735 -0.0672 -0.0590  0.2417
  269loPI   GL1 4293  10.685  15.568  10.635 -0.0531 -0.4266 -0.0363
  269loPI   GL2 4294  10.787  15.361  10.253 -0.0690  0.3798  0.0024
  269loPI   C1A 4295  10.472  15.812  10.246 -0.1163 -0.1145 -0.1156
  269loPI   C2A 4296  10.503  16.005   9.938 -0.0219 -0.2917 -0.0771
  269loPI   C3A 4297  10.604  15.994   9.506 -0.0781 -0.0964 -0.1370
  269loPI   C4A 4298  10.627  16.010   9.099  0.2276 -0.1937 -0.0944
  269loPI   C5A 4299  10.649  16.006   8.555 -0.0156 -0.0092 -0.3558
  269loPI   C6A 4300  10.537  15.961   8.124  0.3196  0.0745  0.0718
  269loPI   C1B 4301  10.859  15.645   9.970 -0.3594  0.0921  0.0217
  269loPI   C2B 4302  11.028  15.663   9.512  0.2874 -0.1635  0.3433
  269loPI   C3B 4303  10.953  15.635   9.032  0.2277 -0.0631  0.3163
  269loPI   C4B 4304  11.091  15.674   8.666 -0.1903  0.1581  0.0176
  270loPI    C1 4305   7.573  12.617  10.825 -0.0248  0.1852 -0.1164
  270loPI    C2 4306   7.581  12.962  11.028  0.2498  0.0080  0.1850
  270loPI    C3 4307   7.336  12.667  11.144 -0.0596  0.1325 -0.1338
  270loPI   PO4 4308   7.824  12.714  10.641 -0.0825 -0.0405  0.2809
  270loPI   GL1 4309   7.932  12.740  10.253 -0.0579 -0.0965 -0.3671
  270loPI   GL2 4310   8.207  12.734  10.075  0.0665  0.1746 -0.0260
  270loPI   C1A 4311   7.691  12.673   9.936  0.1492  0.1503 -0.1985
  270loPI   C2A 4312   7.595  12.634   9.570  0.0608  0.1478 -0.0086
  270loPI   C3A 4313   7.562  12.691   9.143  0.2277 -0.0714  0.0065
  270loPI   C4A 4314   7.468  12.736   8.672 -0.1790  0.4502  0.0112
  270loPI   C5A 4315   7.049  12.592   8.343 -0.1217  0.2746 -0.1631
  270loPI   C6A 4316   6.885  12.689   8.004  0.4519 -0.1027 -0.0997
  270loPI   C1B 4317   8.076  12.830   9.678  0.1212  0.2761 -0.3180
  270loPI   C2B 4318   8.029  12.760   9.261 -0.1649 -0.1969  0.0901
  270loPI   C3B 4319   8.006  12.804   8.696 -0.1009 -0.0773  0.5788
  270loPI   C4B 4320   8.012  12.844   8.265 -0.1163 -0.2758  0.1719
  271loPI    C1 4321   2.562   2.972  10.629 -0.0952 -0.2907 -0.0451
  271loPI    C2 4322   2.189   3.095  10.706 -0.0658 -0.2759  0.0753
  271loPI    C3 4323   2.293   2.714  10.773  0.0353 -0.1973  0.3784
  271loPI   PO4 4324   2.712   3.002  10.392  0.0999  0.0414 -0.0258
  271loPI   GL1 4325   2.495   3.018  10.092  0.0770 -0.1282  0.1874
  271loPI   GL2 4326   2.279   3.051   9.986 -0.1139  0.2332  0.2444
  271loPI   C1A 4327   2.552   2.897   9.610  0.0070 -0.1750 -0.2370
  271loPI   C2A 4328   2.452   3.042   9.295  0.2140  0.0029  0.1618
  271loPI   C3A 4329   2.324   3.013   8.777  0.1688  0.0971 -0.1837
  271loPI   C4A 4330   2.547   2.816   8.408 -0.4888 -0.0539 -0.1684
  271loPI   C5A 4331   2.605   2.564   8.051  0.1536 -0.0535  0.0359
  271loPI   C6A 4332   2.853   2.519   7.632  0.2227  0.0415  0.2738
  271loPI   C1B 4333   2.040   2.979   9.648  0.0837 -0.0491  0.0620
  271loPI   C2B 4334   1.915   2.822   9.288 -0.1012  0.1599  0.0127
  271loPI   C3B 4335   1.881   2.763   8.826 -0.1878 -0.0703 -0.0559
  271loPI   C4B 4336   1.770   2.711   8.402  0.0427  0.1692  0.1155
  272loPI    C1 4337   3.696   6.920  10.922 -0.3058  0.0794 -0.0725
  272loPI    C2 4338   3.598   6.533  10.899 -0.0048 -0.0149  0.1645
  272loPI    C3 4339   3.423   6.768  11.172 -0.2285  0.0322 -0.0164
  272loPI   PO4 4340   3.669   6.982  10.640 -0.2362 -0.3324  0.2339
  272loPI   GL1 4341   3.352   7.018  10.418  0.2947  0.0219  0.2295
  272loPI   GL2 4342   3.210   7.313  10.231  0.1720  0.4460  0.0506
  272loPI   C1A 4343   3.262   6.828   9.995  0.2092 -0.2437 -0.1725
  272loPI   C2A 4344   3.196   6.856   9.541 -0.1555 -0.0415 -0.1535
  272loPI   C3A 4345   3.033   6.862   9.132  0.0847 -0.4312 -0.4619
  272loPI   C4A 4346   3.073   6.974   8.688 -0.2279 -0.0738  0.2109
  272loPI   C5A 4347   2.983   6.835   8.400 -0.1877 -0.0477  0.0276
  272loPI   C6A 4348   3.215   6.814   7.972 -0.0631  0.0005  0.2285
  272loPI   C1B 4349   3.354   7.317   9.756  0.2163  0.0349  0.2591
  272loPI   C2B 4350   3.341   7.423   9.336 -0.1764 -0.1372 -0.2398
  272loPI   C3B 4351   3.186   7.360   9.022  0.2181  0.0060  0.0957
  272loPI   C4B 4352   3.166   7.436   8.542 -0.2303  0.1028 -0.0925
  273loPI    C1 4353  12.690   8.783  10.378  0.1565 -0.0062  0.1177
  273loPI    C2 4354  12.684   8.518  10.677  0.0939  0.0427  0.1600
  273loPI    C3 4355  12.855   8.876  10.730  0.2760 -0.0296  0.0685
  273loPI   PO4 4356  12.803   8.643  10.173 -0.2842  0.4712 -0.0892
  273loPI   GL1 4357  12.948   8.556   9.763 -0.2971  0.1235  0.1483
  273loPI   GL2 4358  13.113   8.798   9.838  0.1576 -0.3074  0.0030
  273loPI   C1A 4359  13.093   8.406   9.474  0.1558 -0.1005 -0.1766
  273loPI   C2A 4360  13.123   8.385   8.975 -0.2002 -0.0273 -0.0219
  273loPI   C3A 4361  13.330   8.356   8.661  0.0116 -0.1166  0.3264
  273loPI   C4A 4362  13.290   8.542   8.261 -0.0743  0.0427  0.4648
  273loPI   C5A 4363  13.034   8.814   8.067 -0.0066  0.0558  0.0894
  273loPI   C6A 4364  12.645   8.906   7.983 -0.1012 -0.2244 -0.2215
  273loPI   C1B 4365  13.316   8.855   9.384 -0.0238 -0.0460  0.1920
  273loPI   C2B 4366  13.348   8.902   8.955 -0.2899 -0.1430 -0.3130
  273loPI   C3B 4367  13.530   8.814   8.620  0.2546 -0.0128 -0.0101
  273loPI   C4B 4368  13.646   8.910   8.172 -0.1859 -0.3567  0.2543
  274loPI    C1 4369  14.670   5.005  10.401  0.1472 -0.0617  0.0775
  274loPI    C2 4370  14.362   4.936  10.647 -0.0288  0.2663 -0.0446
  274loPI    C3 4371  14.327   4.860  10.256  0.0784  0.2177 -0.0453
  274loPI   PO4 4372  14.732   5.167  10.425  0.0268 -0.1059  0.0581
  274loPI   GL1 4373  14.748   5.292  10.001 -0.4323 -0.2423 -0.0245
  274loPI   GL2 4374  14.480   5.174   9.954  0.4290 -0.1083 -0.0773
  274loPI   C1A 4375  14.992   5.526   9.629  0.2348 -0.2201  0.2090
  274loPI   C2A 4376  15.062   5.547   9.173  0.2223 -0.2899 -0.3188
  274loPI   C3A 4377  15.006   5.490   8.741 -0.0622 -0.1483 -0.2030
  274loPI   C4A 4378  15.114   5.594   8.326  0.0531  0.1523 -0.1729
  274loPI   C5A 4379  15.021   5.613   7.858 -0.1708  0.1394 -0.3984
  274loPI   C6A 4380  14.633   5.367   7.656  0.0227  0.1138 -0.0632
  274loPI   C1B 4381  14.452   5.374   9.500 -0.0738  0.0210 -0.0673
  274loPI   C2B 4382  14.484   5.259   9.067  0.0784 -0.0074  0.1014
  274loPI   C3B 4383  14.482   5.327   8.563  0.1171  0.1277  0.2048
  274loPI   C4B 4384  14.672   5.480   8.246 -0.2335  0.1603  0.3760
  275loPI    C1 4385  13.973   1.581  10.635 -0.0329  0.2129 -0.0958
  275loPI    C2 4386  14.176   1.322  10.862 -0.2815 -0.0512 -0.1690
  275loPI    C3 4387  14.365   1.634  10.698 -0.0313 -0.0412  0.1273
  275loPI   PO4 4388  13.896   1.474  10.470 -0.1057  0.3719 -0.1367
  275loPI   GL1 4389  13.693   1.172  10.256 -0.1729  0.0284  0.2121
  275loPI   GL2 4390  13.471   0.912  10.129  0.0330  0.0958 -0.0129
  275loPI   C1A 4391  14.016   1.248   9.809  0.2380  0.2226 -0.0203
  275loPI   C2A 4392  14.086   1.195   9.372  0.0182 -0.0498  0.0433
  275loPI   C3A 4393  14.156   1.274   8.928  0.0723 -0.2628  0.0514
  275loPI   C4A 4394  14.262   1.383   8.458  0.0065 -0.1320  0.1031
  275loPI   C5A 4395  14.215   1.505   8.030 -0.0285 -0.1091  0.1456
  275loPI   C6A 4396  14.073   1.580   7.647  0.2180 -0.1022  0.0986
  275loPI   C1B 4397  13.647   1.015   9.726 -0.3796 -0.1012  0.3198
  275loPI   C2B 4398  13.584   1.091   9.336 -0.2907  0.4428  0.1540
  275loPI   C3B 4399  13.639   1.085   8.897  0.1316 -0.0762  0.2462
  275loPI   C4B 4400  13.621   1.112   8.449  0.1976  0.1016 -0.5226
  276loPI    C1 4401  12.732   2.592  10.554 -0.0932  0.4351 -0.3521
  276loPI    C2 4402  12.397   2.602  10.773  0.0869 -0.0054 -0.0406
  276loPI    C3 4403  12.681   2.879  10.828  0.0382  0.0115  0.1342
  276loPI   PO4 4404  12.869   2.439  10.558  0.1575  0.1006 -0.1351
  276loPI   GL1 4405  13.061   2.180  10.292 -0.2692 -0.1708  0.2039
  276loPI   GL2 4406  13.254   1.919  10.224 -0.1236 -0.3097  0.0674
  276loPI   C1A 4407  12.908   2.195   9.946  0.0826  0.1072 -0.0983
  276loPI   C2A 4408  12.878   2.242   9.523 -0.2166 -0.3640 -0.3542
  276loPI   C3A 4409  12.963   2.264   9.082  0.1059 -0.1969 -0.1249
  276loPI   C4A 4410  13.060   2.291   8.673  0.0796 -0.0791  0.0868
  276loPI   C5A 4411  13.071   2.239   8.199  0.1960  0.2214 -0.0718
  276loPI   C6A 4412  12.854   1.969   7.870 -0.4669 -0.2359  0.0029
  276loPI   C1B 4413  13.281   1.898   9.788  0.1258 -0.2031  0.2179
  276loPI   C2B 4414  13.256   1.907   9.385  0.0150 -0.2055 -0.0543
  276loPI   C3B 4415  13.368   1.877   8.883  0.1551  0.0113  0.1206
  276loPI   C4B 4416  13.486   2.086   8.482 -0.3725 -0.0649 -0.2843
  277loPI    C1 4417   1.979  17.887  10.693 -0.1201 -0.0212  0.0111
  277loPI    C2 4418   1.881  17.680  11.022  0.0475 -0.0182  0.0641
  277loPI    C3 4419   2.073  17.499  10.721 -0.0057  0.0065  0.0149
  277loPI   PO4 4420   1.739  18.036  10.581  0.0719  0.1418 -0.0977
  277loPI   GL1 4421   1.641  17.855  10.287  0.0756 -0.2399 -0.1036
  277loPI   GL2 4422   1.956  17.697  10.263  0.2632  0.1428 -0.0099
  277loPI   C1A 4423   1.499  17.634   9.931  0.1909  0.3765  0.0839
  277loPI   C2A 4424   1.548  17.656   9.567 -0.1513 -0.1446  0.0393
  277loPI   C3A 4425   1.516  17.543   9.171  0.0293 -0.3735 -0.0428
  277loPI   C4A 4426   1.466  17.556   8.722  0.0172 -0.2768  0.1171
  277loPI   C5A 4427   1.407  17.544   8.270 -0.0910 -0.0801 -0.2308
  277loPI   C6A 4428   1.243  17.219   8.017 -0.0713 -0.1826  0.0346
  277loPI   C1B 4429   1.937  17.459   9.915 -0.2335 -0.3616  0.0432
  277loPI   C2B 4430   1.834  17.258   9.633 -0.1150 -0.2305 -0.0625
  277loPI   C3B 4431   1.879  17.116   9.266 -0.1397  0.1981 -0.1384
  277loPI   C4B 4432   1.912  17.339   8.943  0.0056  0.4139  0.1224
  278loPI    C1 4433   6.457  12.107  10.661 -0.2361  0.0581 -0.1048
  278loPI    C2 4434   6.604  12.174  11.027  0.0257  0.2057 -0.2340
  278loPI    C3 4435   6.219  12.075  10.980  0.0617 -0.1132  0.1052
  278loPI   PO4 4436   6.595  12.343  10.576  0.2429  0.4852  0.1128
  278loPI   GL1 4437   6.719  12.428  10.175 -0.1946  0.1999 -0.0720
  278loPI   GL2 4438   6.790  12.663  10.046 -0.1523  0.1270 -0.1640
  278loPI   C1A 4439   6.604  12.239   9.787 -0.1433  0.0796  0.2645
  278loPI   C2A 4440   6.571  12.343   9.364  0.0634  0.0256 -0.2100
  278loPI   C3A 4441   6.528  12.418   8.864 -0.1129 -0.1273  0.0615
  278loPI   C4A 4442   6.610  12.552   8.458  0.0486  0.1206 -0.2357
  278loPI   C5A 4443   6.719  12.242   8.146 -0.3125 -0.3194 -0.0166
  278loPI   C6A 4444   6.609  12.164   7.681  0.3720  0.0652  0.0813
  278loPI   C1B 4445   6.705  12.782   9.590 -0.0768  0.0282  0.1743
  278loPI   C2B 4446   6.713  12.913   9.250  0.1668 -0.3876  0.1575
  278loPI   C3B 4447   6.662  13.003   8.800 -0.3563  0.0052  0.0540
  278loPI   C4B 4448   6.711  13.081   8.416  0.1313  0.1970 -0.1242
  279loPI    C1 4449  15.835   6.068  10.683  0.0159  0.1991 -0.0118
  279loPI    C2 4450  15.540   6.240  10.892 -0.1636 -0.2131  0.0844
  279loPI    C3 4451  15.839   6.055  11.083  0.0923  0.0875 -0.0157
  279loPI   PO4 4452  15.802   6.179  10.436  0.0735  0.0722 -0.2414
  279loPI   GL1 4453  15.968   6.227  10.005 -0.2192  0.1089  0.0058
  279loPI   GL2 4454  15.884   5.918   9.992 -0.0889 -0.0259 -0.0762
  279loPI   C1A 4455  16.045   6.200   9.527 -0.0174  0.0281  0.1964
  279loPI   C2A 4456  16.135   6.270   9.139  0.1568  0.1436 -0.0834
  279loPI   C3A 4457  16.161   6.267   8.736  0.1875  0.1218 -0.0054
  279loPI   C4A 4458  16.234   6.294   8.309 -0.1823 -0.1649 -0.3289
  279loPI   C5A 4459  16.270   6.032   7.917 -0.0849 -0.0783  0.3213
  279loPI   C6A 4460  16.472   5.594   7.903  0.0259 -0.0855  0.0281
  279loPI   C1B 4461  15.960   5.672   9.649 -0.0878  0.2732  0.1889
  279loPI   C2B 4462  16.020   5.697   9.218 -0.0478 -0.0424  0.2443
  279loPI   C3B 4463  16.020   5.798   8.854 -0.2571  0.2739  0.1317
  279loPI   C4B 4464  16.114   5.763   8.391  0.0265  0.1345 -0.0605
  280loPI    C1 4465  11.347  17.519  10.881  0.2173 -0.0169  0.0074
  280loPI    C2 4466  11.285  17.868  11.067  0.0206  0.0214 -0.1267
  280loPI    C3 4467  11.380  17.542  11.279 -0.1285  0.0809  0.0342
  280loPI   PO4 4468  11.454  17.566  10.608 -0.2729 -0.0776 -0.0318
  280loPI   GL1 4469  11.546  17.736  10.216  0.1237 -0.0956 -0.1495
  280loPI   GL2 4470  11.603  18.027  10.082 -0.1016  0.0154 -0.1337
  280loPI   C1A 4471  11.688  17.411   9.847  0.3928 -0.2851  0.1192
  280loPI   C2A 4472  11.842  17.263   9.460  0.1872  0.1273 -0.1893
  280loPI   C3A 4473  11.927  17.209   8.920  0.0284  0.2246  0.0685
  280loPI   C4A 4474  11.825  17.308   8.465  0.0638 -0.0465  0.0425
  280loPI   C5A 4475  12.052  17.450   7.981 -0.2980 -0.1041  0.2708
  280loPI   C6A 4476  12.035  17.708   7.589  0.3219 -0.0794 -0.1662
  280loPI   C1B 4477  11.579  18.045   9.584 -0.0186 -0.0536  0.0197
  280loPI   C2B 4478  11.569  18.110   9.226  0.3485  0.1203 -0.1469
  280loPI   C3B 4479  11.582  18.252   8.810  0.1021  0.2255 -0.3804
  280loPI   C4B 4480  11.571  18.148   8.419 -0.2310 -0.2075  0.0842
  281loPI    C1 4481  11.286  16.985  10.936  0.0699 -0.0466 -0.1151
  281loPI    C2 4482  11.497  16.694  11.112 -0.1199 -0.1557 -0.0649
  281loPI    C3 4483  11.500  17.064  11.264  0.1435 -0.1235 -0.1443
  281loPI   PO4 4484  11.308  16.817  10.636  0.3949  0.0197 -0.5892
  281loPI   GL1 4485  11.585  16.853  10.314  0.2692  0.2105 -0.3805
  281loPI   GL2 4486  11.888  16.966  10.338 -0.3366 -0.3360 -0.1345
  281loPI   C1A 4487  11.536  16.706   9.960 -0.1343 -0.1325 -0.1569
  281loPI   C2A 4488  11.706  16.819   9.539 -0.0157  0.1938 -0.0784
  281loPI   C3A 4489  11.760  16.714   9.193 -0.3248  0.3605  0.0945
  281loPI   C4A 4490  11.693  16.746   8.746 -0.2497 -0.2823  0.1494
  281loPI   C5A 4491  11.903  16.821   8.420  0.0700  0.0915 -0.0933
  281loPI   C6A 4492  12.302  16.924   8.182 -0.0953 -0.2024 -0.1807
  281loPI   C1B 4493  12.067  16.932   9.875 -0.3860 -0.1565 -0.0541
  281loPI   C2B 4494  12.229  16.951   9.463 -0.0549 -0.1489  0.2126
  281loPI   C3B 4495  12.252  16.904   9.094  0.1819 -0.0538 -0.0256
  281loPI   C4B 4496  12.296  16.932   8.749  0.1633 -0.5099  0.4180
  282loPI    C1 4497   9.475  13.701  10.813  0.1355  0.0677 -0.1021
  282loPI    C2 4498   9.435  13.304  10.841  0.1457  0.0575 -0.2258
  282loPI    C3 4499   9.778  13.461  10.708  0.1483  0.1085 -0.1594
  282loPI   PO4 4500   9.276  13.750  10.610 -0.0453  0.4063 -0.1464
  282loPI   GL1 4501   8.923  13.590  10.201  0.0347 -0.1726 -0.1443
  282loPI   GL2 4502   8.632  13.608  10.208  0.1524 -0.0963 -0.0100
  282loPI   C1A 4503   9.200  13.665   9.829 -0.0364 -0.0167  0.0746
  282loPI   C2A 4504   9.208  13.585   9.407  0.0607  0.2110  0.3719
  282loPI   C3A 4505   9.158  13.661   8.954  0.3435  0.2510  0.1182
  282loPI   C4A 4506   9.236  13.703   8.583  0.2935 -0.0047 -0.0667
  282loPI   C5A 4507   9.211  13.616   8.200  0.1712  0.3155 -0.1179
  282loPI   C6A 4508   9.073  13.816   7.861 -0.2165  0.2956  0.0065
  282loPI   C1B 4509   8.711  13.483   9.764 -0.2683 -0.1079  0.0256
  282loPI   C2B 4510   8.721  13.376   9.442  0.0052  0.2016 -0.2914
  282loPI   C3B 4511   8.689  13.425   9.061  0.1034  0.1662  0.1510
  282loPI   C4B 4512   8.710  13.565   8.641 -0.1129 -0.2273  0.0932
  283loPI    C1 4513   0.789   8.127  11.328 -0.0074  0.0500 -0.1645
  283loPI    C2 4514   0.694   8.505  11.238  0.2314  0.1230 -0.1188
  283loPI    C3 4515   0.919   8.427  11.559  0.0833 -0.0690 -0.0593
  283loPI   PO4 4516   0.787   8.046  11.060  0.0159  0.5196 -0.1252
  283loPI   GL1 4517   0.686   7.998  10.494 -0.0206  0.1068  0.0169
  283loPI   GL2 4518   0.504   7.822  10.376  0.2219  0.1458  0.0861
  283loPI   C1A 4519   1.001   8.137  10.117 -0.5379 -0.1071 -0.0834
  283loPI   C2A 4520   1.078   8.114   9.705 -0.1170 -0.0787  0.0313
  283loPI   C3A 4521   1.103   8.114   9.223  0.3146 -0.0839 -0.0292
  283loPI   C4A 4522   1.012   8.265   8.788  0.0593  0.0296 -0.1816
  283loPI   C5A 4523   0.719   8.317   8.405 -0.3952  0.0232 -0.0627
  283loPI   C6A 4524   0.364   8.304   8.131  0.0064  0.1375 -0.1406
  283loPI   C1B 4525   0.580   7.954   9.963 -0.0600 -0.0772  0.0062
  283loPI   C2B 4526   0.518   8.036   9.489 -0.0844  0.0185 -0.1636
  283loPI   C3B 4527   0.587   8.076   9.076 -0.0174  0.1600  0.0536
  283loPI   C4B 4528   0.406   7.929   8.727  0.1150  0.1369 -0.0187
  284loPI    C1 4529   8.582   1.360  10.447  0.0521 -0.0459 -0.0313
  284loPI    C2 4530   8.595   1.259  10.833 -0.0438  0.0965  0.0097
  284loPI    C3 4531   8.549   1.642  10.728  0.0276  0.0637 -0.1433
  284loPI   PO4 4532   8.766   1.220  10.331 -0.1430 -0.3965  0.0098
  284loPI   GL1 4533   8.834   1.175   9.908  0.2096 -0.2144  0.0221
  284loPI   GL2 4534   8.581   1.004   9.668  0.0531  0.0393  0.2969
  284loPI   C1A 4535   8.943   1.185   9.452 -0.1525 -0.0373 -0.0471
  284loPI   C2A 4536   8.945   1.182   8.982  0.1059  0.0150 -0.0811
  284loPI   C3A 4537   9.080   1.128   8.536  0.0036 -0.0240 -0.3302
  284loPI   C4A 4538   9.022   0.794   8.156  0.4253 -0.0785 -0.0286
  284loPI   C5A 4539   8.724   0.654   7.699  0.2682  0.3365 -0.0823
  284loPI   C6A 4540   8.701   0.407   7.215  0.0766 -0.0156 -0.0552
  284loPI   C1B 4541   8.552   0.938   9.235 -0.2510  0.2654  0.1831
  284loPI   C2B 4542   8.548   0.925   8.807  0.0843  0.2186 -0.1825
  284loPI   C3B 4543   8.527   0.926   8.367 -0.0214  0.1852 -0.0607
  284loPI   C4B 4544   8.564   0.965   7.977 -0.1976 -0.0634  0.0736
  285loPI    C1 4545   1.407   4.660  10.613  0.2453 -0.0187 -0.0759
  285loPI    C2 4546   1.606   4.957  10.793  0.3002 -0.0702 -0.0511
  285loPI    C3 4547   1.327   4.752  10.994  0.2229  0.0011 -0.0854
  285loPI   PO4 4548   1.509   4.575  10.442  0.1399 -0.0661  0.3238
  285loPI   GL1 4549   1.691   4.559  10.022  0.1612 -0.2741  0.1122
  285loPI   GL2 4550   1.911   4.399   9.882  0.2387  0.2728  0.1235
  285loPI   C1A 4551   1.607   4.618   9.588  0.0808  0.1511 -0.1860
  285loPI   C2A 4552   1.634   4.594   9.169 -0.1960 -0.3645  0.0765
  285loPI   C3A 4553   1.636   4.627   8.721 -0.0863 -0.3069 -0.1555
  285loPI   C4A 4554   1.519   4.710   8.263  0.2426 -0.2212 -0.1154
  285loPI   C5A 4555   1.830   4.570   7.977 -0.2863 -0.0497 -0.0664
  285loPI   C6A 4556   2.207   4.747   7.845  0.0571 -0.2549 -0.3658
  285loPI   C1B 4557   1.964   4.310   9.422  0.3739  0.0810  0.3322
  285loPI   C2B 4558   1.947   4.265   8.935 -0.1297 -0.1760  0.0510
  285loPI   C3B 4559   1.926   4.356   8.470 -0.4808 -0.0585  0.2486
  285loPI   C4B 4560   2.279   4.412   8.249  0.1092  0.4199 -0.0730
  286loPI    C1 4561   1.320  17.136  10.995  0.0609 -0.0103 -0.0199
  286loPI    C2 4562   1.168  16.938  11.307 -0.0768  0.0029 -0.0778
  286loPI    C3 4563   1.276  17.321  11.347  0.2710 -0.1053  0.0576
  286loPI   PO4 4564   1.145  17.042  10.738 -0.0186 -0.3652  0.0267
  286loPI   GL1 4565   1.065  17.269  10.407  0.0919 -0.1665 -0.3949
  286loPI   GL2 4566   1.171  17.495  10.316 -0.0270  0.0339  0.3075
  286loPI   C1A 4567   0.999  16.966  10.021  0.0455 -0.0037  0.0902
  286loPI   C2A 4568   0.995  16.903   9.640  0.0324 -0.1550 -0.1374
  286loPI   C3A 4569   0.979  16.879   9.206 -0.0255  0.0631 -0.1822
  286loPI   C4A 4570   0.994  16.866   8.794  0.0234 -0.3036  0.1809
  286loPI   C5A 4571   1.100  16.877   8.419 -0.4243 -0.1486  0.3817
  286loPI   C6A 4572   1.114  16.448   8.172 -0.2345  0.1241  0.0955
  286loPI   C1B 4573   1.010  17.476   9.896 -0.0027 -0.2084  0.0478
  286loPI   C2B 4574   1.082  17.406   9.474  0.1600  0.2609  0.0492
  286loPI   C3B 4575   0.969  17.341   9.027  0.1097 -0.1636 -0.4262
  286loPI   C4B 4576   0.986  17.394   8.577  0.0710  0.0518 -0.0417
  287loPI    C1 4577  11.458  16.173  11.228  0.1685  0.0942  0.0848
  287loPI    C2 4578  11.342  15.926  11.520  0.1809  0.2437  0.2175
  287loPI    C3 4579  11.552  16.254  11.608  0.0954  0.3442  0.0509
  287loPI   PO4 4580  11.474  16.060  11.034  0.0078 -0.0306  0.2200
  287loPI   GL1 4581  11.374  16.110  10.502  0.0881  0.2777 -0.3099
  287loPI   GL2 4582  11.321  16.408  10.393 -0.1471 -0.2535 -0.3273
  287loPI   C1A 4583  11.802  16.136  10.350  0.1512 -0.5897  0.2937
  287loPI   C2A 4584  12.018  15.949   9.990 -0.1081 -0.0011  0.1024
  287loPI   C3A 4585  12.073  15.925   9.487 -0.0414  0.1032  0.2779
  287loPI   C4A 4586  11.937  15.941   9.048  0.1337 -0.3515 -0.4286
  287loPI   C5A 4587  11.991  15.834   8.566 -0.0279 -0.0271 -0.1285
  287loPI   C6A 4588  11.627  15.754   8.279  0.2787  0.2402 -0.0010
  287loPI   C1B 4589  11.412  16.261   9.990 -0.2031 -0.0976 -0.0920
  287loPI   C2B 4590  11.646  16.329   9.546  0.2150  0.2008  0.0499
  287loPI   C3B 4591  11.549  16.258   9.126 -0.1018 -0.2201 -0.0838
  287loPI   C4B 4592  11.511  16.148   8.695 -0.1169 -0.0062 -0.3763
  288loPI    C1 4593   7.927   9.356  10.419 -0.0103  0.0881  0.0629
  288loPI    C2 4594   8.126   9.612  10.652  0.1186  0.1432 -0.1058
  288loPI    C3 4595   8.249   9.232  10.621  0.0393  0.1086 -0.0033
  288loPI   PO4 4596   7.866   9.448  10.207 -0.2237  0.2155 -0.2615
  288loPI   GL1 4597   7.968   9.273   9.774  0.0512 -0.0140  0.0847
  288loPI   GL2 4598   8.315   9.407   9.645 -0.0673  0.2565 -0.0263
  288loPI   C1A 4599   7.760   9.303   9.341  0.2743 -0.1316  0.0435
  288loPI   C2A 4600   7.760   9.298   8.937  0.2456  0.2636  0.0375
  288loPI   C3A 4601   7.754   9.307   8.483 -0.3098 -0.1501  0.1574
  288loPI   C4A 4602   7.733   9.379   8.037  0.0982  0.3110 -0.1545
  288loPI   C5A 4603   7.798   9.190   7.680 -0.0837 -0.1827  0.2154
  288loPI   C6A 4604   7.688   9.283   7.214 -0.0235  0.3915  0.2475
  288loPI   C1B 4605   8.252   9.256   9.206 -0.3118  0.1513 -0.5114
  288loPI   C2B 4606   8.211   9.277   8.864  0.2031 -0.1469  0.1507
  288loPI   C3B 4607   8.264   9.408   8.475  0.0666  0.0760  0.1363
  288loPI   C4B 4608   8.177   9.467   8.028  0.1051 -0.4106 -0.0631
  289loPI    C1 4609   1.611  11.076  11.255 -0.1644 -0.1602  0.1993
  289loPI    C2 4610   1.998  10.986  11.297 -0.1027 -0.0798 -0.1673
  289loPI    C3 4611   1.799  11.158  11.599  0.2572  0.2743 -0.1223
  289loPI   PO4 4612   1.595  11.161  11.024 -0.0868 -0.1401  0.0693
  289loPI   GL1 4613   1.622  11.139  10.522 -0.0473 -0.0993 -0.2804
  289loPI   GL2 4614   1.420  10.912  10.626  0.0495  0.0503 -0.0075
  289loPI   C1A 4615   1.735  11.190  10.032 -0.1763 -0.1587 -0.1450
  289loPI   C2A 4616   1.718  11.263   9.551 -0.1258 -0.1126  0.0138
  289loPI   C3A 4617   1.709  11.283   9.018 -0.2921  0.1245 -0.0793
  289loPI   C4A 4618   1.464  11.235   8.688 -0.1452 -0.1096 -0.0498
  289loPI   C5A 4619   0.985  11.237   8.540  0.0008 -0.0306  0.2223
  289loPI   C6A 4620   0.847  11.636   8.384  0.0327  0.1006  0.3498
  289loPI   C1B 4621   1.202  11.201  10.260  0.1374  0.1798 -0.2322
  289loPI   C2B 4622   1.157  11.072   9.817 -0.0856  0.4048 -0.0089
  289loPI   C3B 4623   1.174  11.105   9.367  0.1847 -0.0711 -0.5788
  289loPI   C4B 4624   1.055  11.048   8.950 -0.0528 -0.0145  0.0931
  290loPI    C1 4625  17.137   3.102  11.152 -0.2107 -0.0451  0.1074
  290loPI    C2 4626  16.852   2.828  11.215 -0.2441 -0.0621 -0.1090
  290loPI    C3 4627  17.204   2.798  11.404 -0.2095 -0.3133 -0.2096
  290loPI   PO4 4628  17.140   3.193  10.948  0.1348 -0.0472 -0.2299
  290loPI   GL1 4629  17.137   3.310  10.453 -0.0600  0.1126  0.0887
  290loPI   GL2 4630  17.046   2.932  10.282 -0.0799 -0.3326 -0.0715
  290loPI   C1A 4631  17.020   3.399   9.995 -0.1539 -0.3479  0.1627
  290loPI   C2A 4632  16.829   3.589   9.596  0.1033 -0.1175  0.1400
  290loPI   C3A 4633  16.870   3.651   9.120 -0.3787 -0.1924  0.0797
  290loPI   C4A 4634  16.907   3.686   8.622  0.0200  0.1875 -0.1974
  290loPI   C5A 4635  16.833   3.759   8.155 -0.1306 -0.2076 -0.1885
  290loPI   C6A 4636  16.525   3.714   7.798  0.3048  0.1210 -0.3431
  290loPI   C1B 4637  17.086   2.808   9.864 -0.2801  0.0767 -0.1306
  290loPI   C2B 4638  17.150   2.809   9.431  0.3837  0.2196 -0.2620
  290loPI   C3B 4639  17.237   2.778   8.927 -0.0190  0.1241  0.1860
  290loPI   C4B 4640  17.256   2.735   8.454  0.0029  0.0718  0.1758
  291loPI    C1 4641   0.132   5.098  10.890  0.0815  0.1315 -0.0978
  291loPI    C2 4642   0.365   4.832  11.076 -0.2329 -0.0171  0.0925
  291loPI    C3 4643   0.097   5.043  11.284 -0.0696  0.3669 -0.0762
  291loPI   PO4 4644   0.108   4.999  10.651  0.4140 -0.4577  0.2308
  291loPI   GL1 4645   0.115   4.911  10.280 -0.0639 -0.3414  0.0985
  291loPI   GL2 4646   0.383   4.947  10.205 -0.1560  0.2460  0.2202
  291loPI   C1A 4647  -0.197   4.919   9.896  0.0621 -0.3288 -0.2403
  291loPI   C2A 4648  -0.164   5.010   9.496 -0.1443 -0.0081 -0.1150
  291loPI   C3A 4649  -0.119   5.016   9.083  0.0848  0.2050  0.1839
  291loPI   C4A 4650  -0.110   5.003   8.724  0.1486 -0.1072 -0.2316
  291loPI   C5A 4651  -0.104   5.088   8.276  0.0202  0.0154  0.0960
  291loPI   C6A 4652   0.095   5.005   7.822 -0.1281 -0.0893 -0.0488
  291loPI   C1B 4653   0.325   5.091   9.835  0.0731 -0.1436  0.0416
  291loPI   C2B 4654   0.371   5.204   9.505  0.1024 -0.0067 -0.1103
  291loPI   C3B 4655   0.377   5.257   9.072  0.0871  0.2884  0.2877
  291loPI   C4B 4656   0.323   5.364   8.659 -0.0890  0.1906  0.2754
  292loPI    C1 4657   2.292   1.317  10.229 -0.2039  0.0423 -0.1502
  292loPI    C2 4658   2.083   1.583  10.442  0.0699 -0.0199  0.2044
  292loPI    C3 4659   2.482   1.611  10.423  0.0685 -0.1706 -0.0887
  292loPI   PO4 4660   2.227   1.050  10.362 -0.2815  0.0194  0.1151
  292loPI   GL1 4661   2.029   0.877  10.106  0.2725 -0.1330 -0.2003
  292loPI   GL2 4662   2.184   0.637  10.006 -0.4021  0.2044  0.3342
  292loPI   C1A 4663   1.859   0.916   9.638  0.1920 -0.2653  0.0075
  292loPI   C2A 4664   1.870   0.968   9.227 -0.1214  0.0714  0.1176
  292loPI   C3A 4665   1.844   0.941   8.798 -0.2539 -0.3300 -0.3370
  292loPI   C4A 4666   1.852   0.794   8.412  0.0437  0.0405  0.0780
  292loPI   C5A 4667   2.096   0.746   8.029 -0.0500  0.0492 -0.0203
  292loPI   C6A 4668   2.132   0.586   7.616  0.1153  0.0886 -0.3728
  292loPI   C1B 4669   2.207   0.576   9.555 -0.0020 -0.0873  0.4441
  292loPI   C2B 4670   2.172   0.609   9.116 -0.1488  0.0418 -0.2056
  292loPI   C3B 4671   2.264   0.558   8.722 -0.2727  0.0503 -0.0196
  292loPI   C4B 4672   2.278   0.425   8.350 -0.2011  0.0863 -0.1116
  293loPI    C1 4673  12.973   5.263  10.257 -0.0358 -0.1333 -0.0264
  293loPI    C2 4674  12.863   4.947  10.038  0.3334 -0.2316 -0.0760
  293loPI    C3 4675  13.176   4.920  10.286  0.2199  0.0255  0.1003
  293loPI   PO4 4676  13.019   5.466  10.073 -0.0214  0.0750  0.1534
  293loPI   GL1 4677  13.173   5.506   9.658  0.3506 -0.3949  0.0321
  293loPI   GL2 4678  13.151   5.790   9.555 -0.1663 -0.0308  0.1464
  293loPI   C1A 4679  13.158   5.374   9.313 -0.1080 -0.1808 -0.0495
  293loPI   C2A 4680  13.101   5.498   8.927  0.0112  0.1884 -0.2026
  293loPI   C3A 4681  13.039   5.395   8.527 -0.3861  0.1803  0.2403
  293loPI   C4A 4682  13.234   5.323   8.158  0.1341  0.1443  0.1861
  293loPI   C5A 4683  13.156   5.451   7.761 -0.0985  0.0029  0.0607
  293loPI   C6A 4684  13.462   5.780   7.478  0.1421  0.0936  0.1398
  293loPI   C1B 4685  13.052   5.860   9.238 -0.0909  0.0490 -0.0256
  293loPI   C2B 4686  13.216   5.977   8.760 -0.1953 -0.0058  0.0798
  293loPI   C3B 4687  13.239   5.813   8.361  0.1084  0.2619 -0.0371
  293loPI   C4B 4688  13.376   5.865   7.962  0.1691 -0.0068 -0.0647
  294loPI    C1 4689  10.638  10.587  10.259  0.0314 -0.1975 -0.0935
  294loPI    C2 4690  10.627  10.402  10.613  0.0225  0.0287  0.0264
  294loPI    C3 4691  10.359  10.686  10.528  0.2223  0.2007 -0.0356
  294loPI   PO4 4692  10.720  10.346  10.127  0.0718 -0.1057 -0.5252
  294loPI   GL1 4693  10.860  10.467   9.870 -0.0088 -0.0513 -0.0124
  294loPI   GL2 4694  10.955  10.168   9.676  0.0521 -0.0250 -0.2332
  294loPI   C1A 4695  10.833  10.534   9.378  0.0990  0.0841 -0.2424
  294loPI   C2A 4696  10.884  10.709   9.060 -0.1833 -0.0257 -0.1793
  294loPI   C3A 4697  10.955  10.841   8.645  0.1267  0.0294  0.2182
  294loPI   C4A 4698  11.019  11.089   8.330 -0.0380 -0.1242 -0.1098
  294loPI   C5A 4699  10.752  11.279   8.049 -0.0569  0.0477  0.0126
  294loPI   C6A 4700  10.443  11.462   7.955  0.2538 -0.0882  0.1492
  294loPI   C1B 4701  11.295  10.246   9.372 -0.2331  0.0707 -0.0464
  294loPI   C2B 4702  11.692  10.217   9.124 -0.1433 -0.2287 -0.1716
  294loPI   C3B 4703  11.998  10.422   8.839 -0.1065 -0.1611 -0.1375
  294loPI   C4B 4704  11.861  10.561   8.407  0.0761 -0.1282  0.1637
  295loPI    C1 4705   7.626  13.624  10.820 -0.1734 -0.2666 -0.3760
  295loPI    C2 4706   7.227  13.608  10.799 -0.2053  0.0374 -0.0871
  295loPI    C3 4707   7.418  13.446  11.111 -0.0993 -0.1237 -0.2337
  295loPI   PO4 4708   7.650  13.682  10.577 -0.0579  0.2324 -0.0283
  295loPI   GL1 4709   7.762  13.486  10.176  0.1825 -0.3303 -0.0388
  295loPI   GL2 4710   7.696  13.196  10.083  0.0915 -0.0936 -0.1737
  295loPI   C1A 4711   7.724  13.699   9.754 -0.0519  0.1221  0.1863
  295loPI   C2A 4712   7.809  13.696   9.413  0.1870  0.3301  0.3915
  295loPI   C3A 4713   7.757  13.759   8.988 -0.0108  0.0068 -0.1801
  295loPI   C4A 4714   7.709  13.697   8.566 -0.1415 -0.1855 -0.2247
  295loPI   C5A 4715   7.505  13.937   8.168  0.0019  0.0025  0.0287
  295loPI   C6A 4716   7.351  14.006   7.813  0.0334  0.3720  0.0883
  295loPI   C1B 4717   7.651  13.123   9.667  0.3561  0.0033 -0.4577
  295loPI   C2B 4718   7.641  13.203   9.223  0.1184 -0.0407  0.0212
  295loPI   C3B 4719   7.702  13.232   8.857 -0.1807 -0.0189  0.3348
  295loPI   C4B 4720   7.638  13.064   8.431  0.3764 -0.4464  0.1559
  296loPI    C1 4721   4.307   7.285  10.376 -0.1262 -0.1955  0.0264
  296loPI    C2 4722   4.089   7.286  10.712 -0.0230  0.1361  0.0956
  296loPI    C3 4723   4.136   6.947  10.506 -0.1236 -0.0613  0.3917
  296loPI   PO4 4724   4.214   7.484  10.246  0.2628 -0.2290  0.2301
  296loPI   GL1 4725   4.076   7.488   9.889  0.0174 -0.2063 -0.3460
  296loPI   GL2 4726   3.809   7.597   9.832 -0.0874 -0.0591  0.0568
  296loPI   C1A 4727   4.196   7.240   9.445  0.1394 -0.2578 -0.0854
  296loPI   C2A 4728   3.971   7.216   9.087  0.1844 -0.2113 -0.1644
  296loPI   C3A 4729   4.022   7.257   8.646  0.0038  0.0760 -0.0282
  296loPI   C4A 4730   3.966   7.116   8.263 -0.0850 -0.0340  0.0552
  296loPI   C5A 4731   3.597   7.107   7.861 -0.1259 -0.2852  0.2676
  296loPI   C6A 4732   3.714   6.897   7.446  0.0954 -0.0307  0.1457
  296loPI   C1B 4733   3.788   7.528   9.393  0.2670 -0.2999 -0.0594
  296loPI   C2B 4734   3.719   7.568   8.933 -0.2265  0.1193  0.1326
  296loPI   C3B 4735   3.704   7.639   8.584  0.2760 -0.0415 -0.1484
  296loPI   C4B 4736   3.565   7.566   8.278  0.0285 -0.2386 -0.0013
  297loPI    C1 4737  14.453  15.013  10.944 -0.4032 -0.0308 -0.0991
  297loPI    C2 4738  14.444  15.364  11.135  0.2917 -0.1576  0.1965
  297loPI    C3 4739  14.182  15.078  11.231 -0.2839  0.2654 -0.0495
  297loPI   PO4 4740  14.430  15.046  10.716 -0.1273 -0.0109 -0.1258
  297loPI   GL1 4741  14.569  14.941  10.337 -0.3756 -0.0501 -0.0405
  297loPI   GL2 4742  14.633  15.247  10.272  0.1214  0.0593 -0.0848
  297loPI   C1A 4743  14.521  14.762   9.964  0.0415 -0.0704 -0.0535
  297loPI   C2A 4744  14.463  14.756   9.617 -0.3433  0.2101 -0.0401
  297loPI   C3A 4745  14.535  14.832   9.145  0.1421  0.1835 -0.1568
  297loPI   C4A 4746  14.659  14.832   8.731  0.0760 -0.2497  0.4752
  297loPI   C5A 4747  14.559  14.782   8.320 -0.1025  0.4227 -0.1758
  297loPI   C6A 4748  14.306  14.592   8.021  0.1036  0.0548 -0.2873
  297loPI   C1B 4749  14.577  15.282   9.811  0.0879  0.1904  0.2844
  297loPI   C2B 4750  14.592  15.323   9.353  0.0064  0.1907 -0.0780
  297loPI   C3B 4751  14.687  15.361   8.900 -0.0303  0.2155 -0.0998
  297loPI   C4B 4752  14.757  15.316   8.420 -0.4955 -0.1206  0.0052
  298loPI    C1 4753   9.640   2.826  10.394  0.0543  0.0901  0.0060
  298loPI    C2 4754   9.711   2.590  10.709  0.1196 -0.0471 -0.1101
  298loPI    C3 4755   9.634   2.979  10.763 -0.0701 -0.1104  0.0886
  298loPI   PO4 4756   9.767   2.668  10.192  0.0451 -0.0987 -0.1486
  298loPI   GL1 4757  10.107   2.570   9.967 -0.0892  0.1639 -0.2174
  298loPI   GL2 4758  10.063   2.206  10.048  0.0966  0.0755 -0.0111
  298loPI   C1A 4759  10.246   2.445   9.570 -0.0047  0.2228  0.2003
  298loPI   C2A 4760  10.290   2.429   9.133  0.0606  0.0999  0.0092
  298loPI   C3A 4761  10.328   2.328   8.688  0.5562 -0.0948  0.1163
  298loPI   C4A 4762  10.276   2.361   8.288  0.1526  0.0549  0.3043
  298loPI   C5A 4763  10.209   2.670   7.936  0.2034 -0.0145 -0.0116
  298loPI   C6A 4764  10.103   2.998   7.770 -0.1839  0.0228 -0.0883
  298loPI   C1B 4765   9.967   2.073   9.722 -0.0470  0.0128  0.0724
  298loPI   C2B 4766  10.130   1.965   9.246  0.0938 -0.3976  0.0831
  298loPI   C3B 4767  10.168   1.850   8.814  0.0064 -0.3307  0.0481
  298loPI   C4B 4768  10.164   1.864   8.366 -0.0223 -0.0051  0.3023
  299loPI    C1 4769   8.967  13.443  10.957  0.0853 -0.3068  0.1574
  299loPI    C2 4770   9.044  13.798  11.122  0.1824 -0.1451 -0.2245
  299loPI    C3 4771   9.225  13.470  11.261  0.2176 -0.0233  0.0236
  299loPI   PO4 4772   8.921  13.361  10.675 -0.0690 -0.2979 -0.0174
  299loPI   GL1 4773   9.216  13.072  10.349  0.0324 -0.1430 -0.2330
  299loPI   GL2 4774   9.298  13.285  10.331 -0.0428 -0.2656  0.2254
  299loPI   C1A 4775   8.978  13.126   9.982  0.2582 -0.2598 -0.0267
  299loPI   C2A 4776   9.016  13.003   9.571  0.0203 -0.1655 -0.0291
  299loPI   C3A 4777   9.074  13.074   9.100 -0.1931  0.1988 -0.1494
  299loPI   C4A 4778   9.056  13.217   8.685 -0.1069 -0.3621 -0.2327
  299loPI   C5A 4779   8.933  13.194   8.263  0.0751  0.0065 -0.2448
  299loPI   C6A 4780   8.919  12.843   7.955 -0.0712 -0.1710 -0.1691
  299loPI   C1B 4781   9.479  13.242   9.913  0.0273  0.1244 -0.1483
  299loPI   C2B 4782   9.620  13.178   9.475 -0.0515 -0.1252 -0.0231
  299loPI   C3B 4783   9.669  13.320   8.988 -0.1668  0.1498  0.1434
  299loPI   C4B 4784   9.587  13.379   8.610 -0.3215 -0.5196 -0.0103
  300loPI    C1 4785   0.159   8.916  11.060  0.2339 -0.0053 -0.0811
  300loPI    C2 4786   0.268   8.965  11.442  0.0272  0.1507 -0.0408
  300loPI    C3 4787  -0.075   9.123  11.309 -0.0856 -0.2172 -0.1991
  300loPI   PO4 4788   0.288   8.600  11.009  0.1888 -0.1415 -0.2284
  300loPI   GL1 4789   0.399   8.398  10.691  0.1132 -0.0502  0.0770
  300loPI   GL2 4790   0.748   8.556  10.755 -0.2549 -0.2112 -0.0755
  300loPI   C1A 4791   0.661   8.475  10.277 -0.2953  0.3125 -0.0420
  300loPI   C2A 4792   0.681   8.494   9.782 -0.2396  0.0601 -0.2230
  300loPI   C3A 4793   0.670   8.655   9.452 -0.2206 -0.1293  0.0423
  300loPI   C4A 4794   0.517   8.587   8.980 -0.2413 -0.0490 -0.0851
  300loPI   C5A 4795   0.834   8.790   8.671  0.0567 -0.0182 -0.0307
  300loPI   C6A 4796   1.168   8.646   8.395  0.0265 -0.0532 -0.0379
  300loPI   C1B 4797   0.715   8.960  10.479  0.0668  0.1218  0.1016
  300loPI   C2B 4798   0.698   8.988  10.071  0.2489 -0.1834 -0.1830
  300loPI   C3B 4799   0.707   9.108   9.579  0.0213 -0.0356 -0.1518
  300loPI   C4B 4800   0.808   9.051   9.133 -0.0195 -0.0833 -0.1174
  301loPI    C1 4801  10.717  16.441  11.218 -0.0007 -0.1842 -0.0164
  301loPI    C2 4802  10.908  16.090  11.200  0.0526 -0.1546 -0.0314
  301loPI    C3 4803  10.667  16.171  11.509  0.1399 -0.1538  0.0370
  301loPI   PO4 4804  10.584  16.446  10.957 -0.4473  0.1720  0.0051
  301loPI   GL1 4805  10.796  16.511  10.526 -0.2975  0.3589 -0.3891
  301loPI   GL2 4806  10.795  16.181  10.552  0.1630 -0.0333 -0.0462
  301loPI   C1A 4807  10.584  16.488  10.126 -0.2980  0.0712  0.2151
  301loPI   C2A 4808  10.686  16.493   9.691 -0.1272  0.0838  0.0179
  301loPI   C3A 4809  10.687  16.465   9.220  0.5550  0.1175 -0.2764
  301loPI   C4A 4810  10.744  16.476   8.739 -0.0323  0.0944  0.1214
  301loPI   C5A 4811  10.884  16.383   8.242  0.0681 -0.2858  0.1888
  301loPI   C6A 4812  11.083  16.318   7.817  0.2419 -0.0055  0.0191
  301loPI   C1B 4813  10.988  16.110  10.198  0.1569  0.5096  0.0302
  301loPI   C2B 4814  11.003  16.133   9.745  0.2430  0.1228  0.1175
  301loPI   C3B 4815  11.123  16.155   9.340  0.1434  0.1260 -0.0338
  301loPI   C4B 4816  11.052  16.133   8.912  0.0066 -0.1139 -0.2927
  302loPI    C1 4817   1.665   0.638  10.548  0.3478  0.0343 -0.0563
  302loPI    C2 4818   1.519   0.822  10.872  0.0300 -0.0167 -0.1667
  302loPI    C3 4819   1.825   0.983  10.672  0.2232  0.0196  0.1510
  302loPI   PO4 4820   1.404   0.615  10.360  0.0692 -0.1429  0.0715
  302loPI   GL1 4821   1.170   0.517   9.961 -0.0656 -0.1965 -0.3126
  302loPI   GL2 4822   1.264   0.273  10.016  0.2036 -0.2570  0.0885
  302loPI   C1A 4823   1.333   0.837   9.694 -0.0021  0.2302 -0.2763
  302loPI   C2A 4824   1.346   0.862   9.260 -0.1124 -0.1517 -0.1066
  302loPI   C3A 4825   1.381   0.733   8.854  0.1436 -0.0177  0.1442
  302loPI   C4A 4826   1.359   0.712   8.361 -0.1817  0.2216  0.0511
  302loPI   C5A 4827   1.335   0.682   7.959 -0.1267 -0.1675 -0.1582
  302loPI   C6A 4828   1.251   0.434   7.539  0.1004  0.0342 -0.2617
  302loPI   C1B 4829   1.163   0.144   9.558  0.0584 -0.1290 -0.1368
  302loPI   C2B 4830   1.172   0.048   9.067 -0.4014 -0.0023  0.1850
  302loPI   C3B 4831   1.235   0.223   8.636  0.0223 -0.1833  0.1468
  302loPI   C4B 4832   1.370   0.131   8.296  0.1000 -0.0985 -0.0221
  303loPI    C1 4833   3.331  11.190  10.988 -0.1904 -0.1986 -0.0884
  303loPI    C2 4834   3.530  10.944  11.232  0.3522  0.1343 -0.1778
  303loPI    C3 4835   3.280  11.216  11.383  0.4345  0.1208 -0.0150
  303loPI   PO4 4836   3.472  11.271  10.777 -0.2527 -0.0118 -0.1877
  303loPI   GL1 4837   3.550  11.224  10.357 -0.0248  0.0564 -0.2005
  303loPI   GL2 4838   3.436  10.913  10.320 -0.1284 -0.0472  0.1790
  303loPI   C1A 4839   3.631  11.407  10.034  0.2846  0.1113 -0.1594
  303loPI   C2A 4840   3.556  11.363   9.484  0.0644 -0.1257 -0.0565
  303loPI   C3A 4841   3.605  11.348   9.037  0.3478 -0.0061 -0.0927
  303loPI   C4A 4842   3.518  11.350   8.622  0.1646  0.0284 -0.1275
  303loPI   C5A 4843   3.340  11.591   8.280 -0.0368 -0.3977 -0.1336
  303loPI   C6A 4844   3.004  11.618   8.222  0.0471 -0.1968  0.2643
  303loPI   C1B 4845   3.449  10.810   9.926 -0.1756 -0.0063 -0.0564
  303loPI   C2B 4846   3.534  10.835   9.440  0.1536  0.0502  0.1200
  303loPI   C3B 4847   3.522  10.834   8.991  0.2596  0.0716  0.2984
  303loPI   C4B 4848   3.613  10.836   8.526 -0.3587  0.3106  0.0650
  304loPI    C1 4849  14.428  13.941  11.034 -0.1094  0.0106 -0.0895
  304loPI    C2 4850  14.604  13.659  11.256  0.0062 -0.0004 -0.1943
  304loPI    C3 4851  14.213  13.634  11.174 -0.0140 -0.0534 -0.0827
  304loPI   PO4 4852  14.598  13.932  10.826 -0.0676  0.1494  0.1293
  304loPI   GL1 4853  14.643  13.959  10.321 -0.3801 -0.2363 -0.1151
  304loPI   GL2 4854  14.355  13.852  10.411 -0.0495 -0.2627  0.2940
  304loPI   C1A 4855  14.726  13.975   9.883  0.0095  0.0209 -0.1053
  304loPI   C2A 4856  14.866  14.026   9.489 -0.0938  0.0691 -0.1640
  304loPI   C3A 4857  14.970  13.900   9.077  0.0252 -0.2457 -0.0496
  304loPI   C4A 4858  14.971  14.061   8.641 -0.0849 -0.1674 -0.0823
  304loPI   C5A 4859  14.995  13.935   8.270 -0.0012  0.2167  0.2773
  304loPI   C6A 4860  14.790  13.680   8.139  0.1334  0.2122  0.3826
  304loPI   C1B 4861  14.269  13.782   9.948  0.1362  0.1389  0.2216
  304loPI   C2B 4862  14.387  13.800   9.518 -0.1968  0.0410  0.1400
  304loPI   C3B 4863  14.466  13.777   9.057  0.2799 -0.0630  0.1861
  304loPI   C4B 4864  14.564  13.755   8.597 -0.1499 -0.0604  0.0689
  305loPI    C1 4865   4.691  16.315  10.800  0.0455  0.3244  0.0900
  305loPI    C2 4866   5.036  16.485  10.911  0.1679  0.0766  0.0991
  305loPI    C3 4867   5.026  16.097  10.816 -0.1302  0.0563  0.2002
  305loPI   PO4 4868   4.625  16.455  10.641 -0.1376 -0.0973  0.0615
  305loPI   GL1 4869   4.663  16.373  10.146  0.1577  0.0276  0.0150
  305loPI   GL2 4870   4.498  16.697  10.190 -0.2032 -0.0217 -0.0328
  305loPI   C1A 4871   4.498  16.173   9.793 -0.2796  0.4333 -0.1059
  305loPI   C2A 4872   4.423  16.176   9.447  0.0614 -0.3367  0.2169
  305loPI   C3A 4873   4.408  15.915   9.104  0.0743  0.1620 -0.1996
  305loPI   C4A 4874   4.508  15.642   8.769 -0.0517 -0.0310 -0.1018
  305loPI   C5A 4875   4.386  15.571   8.372 -0.0535  0.4049 -0.0602
  305loPI   C6A 4876   4.099  15.320   8.120 -0.0584 -0.2720  0.2217
  305loPI   C1B 4877   4.549  16.709   9.810  0.0792 -0.4349  0.0390
  305loPI   C2B 4878   4.554  16.730   9.353 -0.2188 -0.2680  0.0962
  305loPI   C3B 4879   4.677  16.805   8.883  0.2862  0.1237 -0.0881
  305loPI   C4B 4880   4.758  17.055   8.563  0.2267 -0.0804 -0.2742
  306loPI    C1 4881   0.674   5.203  10.896  0.1271  0.1969 -0.3814
  306loPI    C2 4882   0.978   5.080  11.125 -0.0188 -0.1547 -0.3696
  306loPI    C3 4883   0.960   5.461  11.004  0.1359  0.0032  0.0822
  306loPI   PO4 4884   0.608   5.093  10.671 -0.2682  0.0865  0.0953
  306loPI   GL1 4885   0.658   5.361  10.238 -0.0731  0.1043  0.2100
  306loPI   GL2 4886   0.888   5.195  10.228  0.0310  0.2389  0.2975
  306loPI   C1A 4887   0.909   5.757  10.024 -0.0162 -0.1291 -0.2337
  306loPI   C2A 4888   1.013   5.771   9.548  0.0419  0.1462 -0.1632
  306loPI   C3A 4889   0.976   5.789   9.076  0.0867  0.1517 -0.3292
  306loPI   C4A 4890   0.946   5.947   8.668  0.2495  0.0817 -0.0583
  306loPI   C5A 4891   0.889   5.904   8.233  0.2679 -0.2186  0.0244
  306loPI   C6A 4892   0.831   5.789   7.829 -0.2733 -0.0749 -0.2171
  306loPI   C1B 4893   0.859   5.294   9.740  0.1697 -0.0156 -0.0536
  306loPI   C2B 4894   0.852   5.377   9.309 -0.0144 -0.0214  0.0407
  306loPI   C3B 4895   0.825   5.395   8.818  0.1074  0.1254 -0.2186
  306loPI   C4B 4896   0.855   5.430   8.371 -0.0473  0.1275 -0.2639
  307loPI    C1 4897   9.499  10.948  10.460 -0.0194  0.1001 -0.1028
  307loPI    C2 4898   9.226  11.230  10.539 -0.2858 -0.1889  0.0293
  307loPI    C3 4899   9.381  11.013  10.837 -0.0781 -0.1815 -0.0711
  307loPI   PO4 4900   9.606  10.994  10.236 -0.0478  0.2522 -0.2387
  307loPI   GL1 4901   9.766  10.932   9.838  0.0277  0.2048  0.1200
  307loPI   GL2 4902   9.692  11.183   9.765 -0.2066  0.2575  0.0979
  307loPI   C1A 4903   9.940  10.875   9.416 -0.0239 -0.2246  0.0276
  307loPI   C2A 4904   9.966  10.840   9.008  0.4771  0.0047 -0.2413
  307loPI   C3A 4905   9.842  10.757   8.569  0.1653  0.0248 -0.0406
  307loPI   C4A 4906   9.732  10.485   8.188  0.1351 -0.0876  0.1482
  307loPI   C5A 4907   9.418  10.428   7.893  0.1754 -0.1524  0.0322
  307loPI   C6A 4908   9.002  10.448   8.084 -0.2617  0.0570  0.2130
  307loPI   C1B 4909   9.536  11.377   9.421 -0.0325  0.3199 -0.1463
  307loPI   C2B 4910   9.556  11.388   8.962 -0.1003 -0.2151 -0.0458
  307loPI   C3B 4911   9.476  11.169   8.555  0.0386  0.1240 -0.1904
  307loPI   C4B 4912   9.502  11.362   8.158  0.0157  0.3954 -0.2744
  308loPI    C1 4913  10.868  16.876  11.152 -0.1134 -0.1005 -0.0459
  308loPI    C2 4914  10.620  17.129  11.338  0.1403 -0.0147  0.1827
  308loPI    C3 4915  10.987  17.066  11.484  0.2413 -0.1691 -0.1300
  308loPI   PO4 4916  10.794  16.884  10.806  0.1034 -0.0533  0.1079
  308loPI   GL1 4917  10.950  16.888  10.278  0.3347 -0.1653 -0.0771
  308loPI   GL2 4918  10.639  17.097  10.304 -0.0367  0.2991 -0.4862
  308loPI   C1A 4919  11.040  16.666  10.079 -0.4422  0.0613 -0.2371
  308loPI   C2A 4920  11.140  16.590   9.652 -0.3276 -0.0017 -0.0102
  308loPI   C3A 4921  11.205  16.570   9.102  0.1106  0.0480 -0.2567
  308loPI   C4A 4922  11.231  16.559   8.664 -0.3805 -0.0777  0.1030
  308loPI   C5A 4923  11.250  16.823   8.268 -0.0066  0.3049  0.2637
  308loPI   C6A 4924  11.511  17.098   8.052 -0.2519  0.1872 -0.2588
  308loPI   C1B 4925  10.733  16.970   9.816  0.1356  0.1444 -0.3448
  308loPI   C2B 4926  10.762  16.911   9.446  0.1174 -0.1802  0.5715
  308loPI   C3B 4927  10.864  16.923   9.017  0.1052  0.2724  0.0584
  308loPI   C4B 4928  10.894  16.917   8.609  0.0553  0.1980 -0.0143
  309loPI    C1 4929   0.785  16.294  11.213 -0.0620  0.0585 -0.1252
  309loPI    C2 4930   0.878  15.984  11.448  0.0177  0.0815 -0.1260
  309loPI    C3 4931   0.586  16.236  11.555 -0.0849 -0.0252 -0.1526
  309loPI   PO4 4932   0.801  16.232  10.944 -0.0509  0.2414 -0.1230
  309loPI   GL1 4933   0.918  16.091  10.529  0.3277 -0.0639  0.0568
  309loPI   GL2 4934   1.224  16.294  10.560 -0.0039 -0.0181  0.2469
  309loPI   C1A 4935   0.878  15.930  10.162  0.2375 -0.1109  0.1822
  309loPI   C2A 4936   0.781  15.805   9.749 -0.0512  0.0639 -0.0463
  309loPI   C3A 4937   0.775  15.874   9.323 -0.1413 -0.0430 -0.2370
  309loPI   C4A 4938   0.696  15.828   8.841  0.2858 -0.2527  0.0520
  309loPI   C5A 4939   0.933  15.941   8.515  0.0139  0.0945 -0.1342
  309loPI   C6A 4940   0.996  15.991   8.049 -0.0170  0.1362  0.1522
  309loPI   C1B 4941   1.360  16.033  10.209 -0.0902 -0.2375 -0.3188
  309loPI   C2B 4942   1.231  15.949   9.880  0.0346  0.0909  0.2583
  309loPI   C3B 4943   1.208  16.040   9.481  0.1164 -0.1788 -0.2360
  309loPI   C4B 4944   1.118  15.966   9.009  0.1155  0.0617 -0.1448
  310loPI    C1 4945   6.274   4.914  10.262 -0.1474 -0.0408 -0.1380
  310loPI    C2 4946   6.254   5.203  10.538  0.0488 -0.0922 -0.0685
  310loPI    C3 4947   6.094   4.844  10.612  0.2366 -0.1547  0.0416
  310loPI   PO4 4948   6.282   5.126  10.039 -0.0849  0.1991  0.1358
  310loPI   GL1 4949   6.611   4.923   9.683 -0.3264  0.1600  0.1897
  310loPI   GL2 4950   6.639   5.296   9.667 -0.0897 -0.0064 -0.0485
  310loPI   C1A 4951   6.543   5.042   9.214  0.0491  0.1421 -0.2996
  310loPI   C2A 4952   6.507   4.841   8.755 -0.1633 -0.0727  0.1624
  310loPI   C3A 4953   6.454   5.013   8.312  0.0042  0.0334 -0.1386
  310loPI   C4A 4954   6.435   5.381   8.067 -0.2587  0.5497  0.2788
  310loPI   C5A 4955   6.271   5.344   7.636 -0.0906  0.2155 -0.0009
  310loPI   C6A 4956   6.093   5.276   7.280 -0.0105 -0.3170 -0.2653
  310loPI   C1B 4957   6.978   5.540   9.398  0.2278 -0.0932 -0.2020
  310loPI   C2B 4958   6.946   5.675   9.119  0.0005  0.2520  0.3596
  310loPI   C3B 4959   6.894   5.687   8.725  0.2750 -0.0605  0.4932
  310loPI   C4B 4960   6.634   5.347   8.598 -0.0975  0.0318  0.1892
  311loPI    C1 4961  11.330  12.639  10.660 -0.0895 -0.2256 -0.0629
  311loPI    C2 4962  11.220  12.260  10.725 -0.3126 -0.1651 -0.0774
  311loPI    C3 4963  10.982  12.559  10.842 -0.1161 -0.0277 -0.0249
  311loPI   PO4 4964  11.397  12.664  10.362 -0.1089  0.0465  0.1407
  311loPI   GL1 4965  11.416  12.884  10.055  0.0947 -0.0569 -0.1432
  311loPI   GL2 4966  11.600  13.194   9.969  0.4477 -0.1795 -0.1044
  311loPI   C1A 4967  11.394  12.837   9.662  0.1113  0.3629  0.0491
  311loPI   C2A 4968  11.489  12.864   9.221  0.4924  0.1836 -0.3464
  311loPI   C3A 4969  11.361  12.970   8.806  0.0652  0.0004 -0.2337
  311loPI   C4A 4970  11.406  12.965   8.423 -0.1658 -0.0776  0.1452
  311loPI   C5A 4971  11.621  12.846   8.067  0.1884  0.2514  0.1727
  311loPI   C6A 4972  11.818  12.364   8.144 -0.1311 -0.0266 -0.1863
  311loPI   C1B 4973  11.477  13.341   9.609  0.4942 -0.1490 -0.3733
  311loPI   C2B 4974  11.605  13.315   9.188 -0.0197  0.1706  0.4473
  311loPI   C3B 4975  11.576  13.394   8.737  0.2456  0.0992  0.0883
  311loPI   C4B 4976  11.274  13.457   8.306 -0.2029  0.0441 -0.2387
  312loPI    C1 4977   6.279  13.878  10.999 -0.1533 -0.1758 -0.0667
  312loPI    C2 4978   6.558  13.927  11.281 -0.0744  0.1192 -0.1921
  312loPI    C3 4979   6.174  13.889  11.385  0.0213 -0.4408 -0.0093
  312loPI   PO4 4980   6.428  14.007  10.796 -0.0020 -0.0146 -0.1793
  312loPI   GL1 4981   6.138  14.038  10.430  0.0939  0.2077  0.0193
  312loPI   GL2 4982   5.977  13.967  10.152  0.1486 -0.2128 -0.1075
  312loPI   C1A 4983   6.437  14.193  10.136  0.1193 -0.1404 -0.2530
  312loPI   C2A 4984   6.670  14.282   9.823 -0.1290 -0.0111 -0.0358
  312loPI   C3A 4985   6.692  14.326   9.392 -0.1678 -0.3407  0.1604
  312loPI   C4A 4986   6.500  14.370   9.006  0.3689 -0.1806 -0.0528
  312loPI   C5A 4987   6.493  14.384   8.581 -0.0050 -0.0928  0.0344
  312loPI   C6A 4988   6.472  14.123   8.180  0.0896  0.0367  0.1014
  312loPI   C1B 4989   5.927  14.068   9.637  0.2426  0.1110 -0.2257
  312loPI   C2B 4990   5.982  14.189   9.239  0.2446  0.1179  0.0338
  312loPI   C3B 4991   6.041  14.140   8.751  0.1972 -0.0082 -0.2827
  312loPI   C4B 4992   6.028  14.160   8.372  0.0595  0.0754  0.0268
  313loPI    C1 4993   5.227  17.762  10.640  0.0775 -0.1188  0.1097
  313loPI    C2 4994   4.845  17.780  10.756  0.0555 -0.2371  0.0571
  313loPI    C3 4995   5.129  17.957  10.975 -0.0568  0.0567 -0.0301
  313loPI   PO4 4996   5.162  17.832  10.394  0.1580 -0.0381  0.1240
  313loPI   GL1 4997   5.023  17.602   9.957  0.1020 -0.5692 -0.0270
  313loPI   GL2 4998   5.435  17.505   9.962  0.0453  0.1107  0.0699
  313loPI   C1A 4999   4.863  17.742   9.508  0.1969 -0.0671  0.0188
  313loPI   C2A 5000   4.811  17.729   9.060  0.2237 -0.0388 -0.0826
  313loPI   C3A 5001   4.857  17.581   8.649 -0.0736 -0.0286  0.0488
  313loPI   C4A 5002   4.903  17.427   8.304 -0.0828 -0.3665  0.0959
  313loPI   C5A 5003   4.710  17.219   7.974  0.0553 -0.0338  0.1631
  313loPI   C6A 5004   4.806  17.051   7.614  0.0279  0.0192  0.0397
  313loPI   C1B 5005   5.294  17.287   9.576  0.1105 -0.0043  0.1656
  313loPI   C2B 5006   5.462  17.127   9.160 -0.0099  0.0234  0.1414
  313loPI   C3B 5007   5.742  16.930   8.921  0.2331  0.0878  0.0494
  313loPI   C4B 5008   5.688  16.841   8.474 -0.1448 -0.5688  0.1852
  314loPI    C1 5009  15.499   9.168  11.356 -0.1596  0.2279 -0.2710
  314loPI    C2 5010  15.861   9.218  11.517 -0.2855  0.0564  0.0759
  314loPI    C3 5011  15.562   9.465  11.617 -0.3724 -0.0712  0.1327
  314loPI   PO4 5012  15.640   9.211  11.075 -0.0156 -0.1299  0.0309
  314loPI   GL1 5013  15.559   9.484  10.786 -0.0991  0.1582  0.0208
  314loPI   GL2 5014  15.674   9.862  10.811  0.3224  0.0850  0.2476
  314loPI   C1A 5015  15.798   9.553  10.454 -0.0148  0.0364 -0.2589
  314loPI   C2A 5016  15.812   9.472  10.067 -0.3872  0.0101 -0.1066
  314loPI   C3A 5017  15.808   9.565   9.676  0.0748 -0.2967 -0.0994
  314loPI   C4A 5018  15.914   9.566   9.272  0.0932 -0.4163 -0.0998
  314loPI   C5A 5019  16.065   9.683   8.827 -0.0008  0.0847  0.3239
  314loPI   C6A 5020  16.238   9.869   8.395 -0.0397  0.1652  0.4538
  314loPI   C1B 5021  15.917  10.059  10.537 -0.0124 -0.1028  0.4528
  314loPI   C2B 5022  15.919   9.980  10.120 -0.1120  0.2590 -0.3941
  314loPI   C3B 5023  16.005  10.087   9.688 -0.3259 -0.5051 -0.1127
  314loPI   C4B 5024  16.018  10.028   9.144  0.1148 -0.0488  0.0556
  315loPI    C1 5025   8.889   1.877  10.395 -0.2524  0.1484  0.0644
  315loPI    C2 5026   8.815   2.174  10.137  0.1641  0.1863 -0.0191
  315loPI    C3 5027   8.575   2.117  10.452 -0.2724  0.2241 -0.3364
  315loPI   PO4 5028   9.238   1.900  10.270 -0.0070 -0.2695 -0.0596
  315loPI   GL1 5029   9.204   1.862   9.970 -0.0022  0.3474 -0.1424
  315loPI   GL2 5030   9.117   1.582   9.790 -0.2881  0.2554  0.0937
  315loPI   C1A 5031   9.472   1.854   9.656  0.0033  0.3155  0.2412
  315loPI   C2A 5032   9.613   1.867   9.193 -0.0076 -0.3209 -0.0582
  315loPI   C3A 5033   9.657   1.782   8.791  0.0659  0.1156  0.3500
  315loPI   C4A 5034   9.628   1.663   8.331  0.2990  0.1861  0.0644
  315loPI   C5A 5035   9.560   1.373   7.910  0.0571 -0.0055 -0.0498
  315loPI   C6A 5036   9.533   0.935   7.910  0.0297 -0.0011  0.1382
  315loPI   C1B 5037   9.080   1.777   9.360 -0.0408 -0.1141  0.1000
  315loPI   C2B 5038   9.156   1.827   8.996  0.0778 -0.2206 -0.0087
  315loPI   C3B 5039   9.213   1.627   8.570  0.1779  0.1919 -0.1815
  315loPI   C4B 5040   9.078   1.839   8.195 -0.0997  0.1220 -0.0416
  316loPI    C1 5041   5.358  12.367  10.900 -0.0525 -0.1398  0.0846
  316loPI    C2 5042   5.728  12.247  10.804 -0.0202  0.0895 -0.0858
  316loPI    C3 5043   5.562  12.127  11.147  0.1925 -0.0555 -0.0316
  316loPI   PO4 5044   5.370  12.505  10.654  0.1747 -0.2303  0.2186
  316loPI   GL1 5045   5.255  12.572  10.250  0.1244  0.3271  0.1041
  316loPI   GL2 5046   5.224  12.935  10.196  0.2143  0.1487 -0.1283
  316loPI   C1A 5047   5.131  12.351   9.959  0.0445  0.0861  0.0583
  316loPI   C2A 5048   5.177  12.428   9.537  0.0141 -0.1760 -0.0368
  316loPI   C3A 5049   5.120  12.394   9.056  0.0294 -0.2111  0.2305
  316loPI   C4A 5050   5.167  12.492   8.606  0.1024 -0.4321 -0.2086
  316loPI   C5A 5051   5.285  12.487   8.140  0.0291 -0.0820 -0.4719
  316loPI   C6A 5052   5.679  12.639   7.898 -0.0758 -0.1123  0.0363
  316loPI   C1B 5053   5.256  12.923   9.652 -0.2629  0.0876 -0.0098
  316loPI   C2B 5054   5.181  12.992   9.279 -0.0098  0.0511 -0.2888
  316loPI   C3B 5055   5.241  13.003   8.843 -0.0855  0.0918  0.2546
  316loPI   C4B 5056   5.281  13.028   8.340  0.4479 -0.0876 -0.1184
  317loPI    C1 5057   8.418   0.353  10.658 -0.0265 -0.2485  0.0142
  317loPI    C2 5058   8.051   0.307  10.810  0.0071  0.0380  0.1897
  317loPI    C3 5059   8.362   0.364  11.054  0.0743  0.4260  0.0211
  317loPI   PO4 5060   8.439   0.315  10.380 -0.0364 -0.0921  0.0998
  317loPI   GL1 5061   8.456   0.416   9.950  0.1271  0.2986  0.0867
  317loPI   GL2 5062   8.373   0.025   9.985 -0.1425 -0.2621  0.1824
  317loPI   C1A 5063   8.382   0.494   9.536 -0.0683 -0.1190 -0.0747
  317loPI   C2A 5064   8.459   0.453   9.060  0.0615 -0.0598  0.1776
  317loPI   C3A 5065   8.408   0.459   8.570 -0.0696  0.0202  0.0348
  317loPI   C4A 5066   8.583   0.460   8.147 -0.1760 -0.0013  0.0979
  317loPI   C5A 5067   8.582   0.158   7.888 -0.0742  0.0635  0.0010
  317loPI   C6A 5068   8.441  -0.316   8.017  0.1110 -0.3773  0.1659
  317loPI   C1B 5069   8.254   0.039   9.422  0.0512 -0.1536 -0.2807
  317loPI   C2B 5070   8.376  -0.146   8.995 -0.0525  0.2594 -0.2613
  317loPI   C3B 5071   8.294  -0.090   8.564 -0.0871  0.2186 -0.0404
  317loPI   C4B 5072   8.192   0.168   8.198 -0.1341  0.1538  0.3486
  318loPI    C1 5073  13.188  11.431  11.171  0.2469  0.0650  0.0483
  318loPI    C2 5074  13.066  11.053  11.123  0.0596  0.1276  0.0232
  318loPI    C3 5075  12.989  11.247  11.465  0.1942  0.1293  0.0530
  318loPI   PO4 5076  13.128  11.552  10.888  0.1370 -0.0681  0.2185
  318loPI   GL1 5077  13.271  11.658  10.521 -0.1832  0.2534  0.2247
  318loPI   GL2 5078  13.559  11.669  10.361  0.0954  0.1195 -0.3726
  318loPI   C1A 5079  13.044  11.669  10.146  0.1883  0.2249 -0.3672
  318loPI   C2A 5080  13.089  11.905   9.673  0.0825  0.1450  0.0357
  318loPI   C3A 5081  13.099  11.931   9.272  0.0711 -0.0698  0.1352
  318loPI   C4A 5082  13.123  11.862   8.765 -0.1309 -0.1699 -0.2558
  318loPI   C5A 5083  13.139  12.191   8.496 -0.0519  0.2100 -0.3602
  318loPI   C6A 5084  13.285  12.413   8.098 -0.0133  0.2513  0.1830
  318loPI   C1B 5085  13.470  11.583   9.922  0.1106  0.3577 -0.1227
  318loPI   C2B 5086  13.543  11.553   9.536 -0.0703 -0.3105  0.2852
  318loPI   C3B 5087  13.493  11.685   9.012  0.2335  0.0455  0.0597
  318loPI   C4B 5088  13.507  11.515   8.576  0.1663 -0.0677  0.0414
  319loPI    C1 5089   6.304  17.543  10.383  0.0573  0.2328  0.3602
  319loPI    C2 5090   6.078  17.249  10.534  0.3131 -0.2663 -0.1866
  319loPI    C3 5091   6.419  17.354  10.717  0.1979 -0.2740  0.0362
  319loPI   PO4 5092   6.059  17.681  10.220  0.3832 -0.0692 -0.1802
  319loPI   GL1 5093   5.920  17.666   9.761  0.3219 -0.0274  0.5435
  319loPI   GL2 5094   6.239  17.787   9.724  0.2012 -0.2069 -0.0759
  319loPI   C1A 5095   5.717  17.367   9.508 -0.1043  0.0448  0.0828
  319loPI   C2A 5096   5.868  17.454   9.060  0.0103 -0.2079 -0.3287
  319loPI   C3A 5097   5.833  17.416   8.566 -0.0211 -0.0218  0.1196
  319loPI   C4A 5098   6.164  17.380   8.165 -0.1112  0.2372  0.0468
  319loPI   C5A 5099   6.450  17.183   8.133  0.0284 -0.0332 -0.1433
  319loPI   C6A 5100   6.462  16.788   8.024 -0.1752  0.2193  0.1774
  319loPI   C1B 5101   6.231  17.601   9.368 -0.0741 -0.0660 -0.1462
  319loPI   C2B 5102   6.334  17.533   8.964 -0.1245  0.1754 -0.0091
  319loPI   C3B 5103   6.402  17.701   8.582  0.0563  0.2088 -0.0002
  319loPI   C4B 5104   6.533  17.887   8.187  0.0275 -0.0673  0.2007
  320loPI    C1 5105   7.722  10.501  10.545  0.0580  0.2576  0.2413
  320loPI    C2 5106   7.775  10.138  10.705  0.1979  0.0709 -0.2131
  320loPI    C3 5107   8.064  10.412  10.732  0.1097  0.1373  0.0919
  320loPI   PO4 5108   7.691  10.433  10.225  0.1148 -0.0075  0.2396
  320loPI   GL1 5109   7.710  10.166   9.847  0.7857 -0.1889 -0.2615
  320loPI   GL2 5110   8.011  10.262   9.827  0.3118 -0.0833 -0.0321
  320loPI   C1A 5111   7.632  10.283   9.450  0.0093 -0.1752  0.0220
  320loPI   C2A 5112   7.523  10.247   9.060  0.2628 -0.0162  0.4017
  320loPI   C3A 5113   7.499  10.233   8.620 -0.4038 -0.2569 -0.3338
  320loPI   C4A 5114   7.434  10.377   8.258 -0.3406 -0.0127  0.2184
  320loPI   C5A 5115   7.389  10.545   7.812 -0.2339  0.2012  0.0799
  320loPI   C6A 5116   7.455  10.499   7.382  0.0713 -0.1865 -0.0205
  320loPI   C1B 5117   8.082  10.475   9.416 -0.0942  0.0463 -0.0321
  320loPI   C2B 5118   8.037  10.460   9.077 -0.0538  0.3396  0.1861
  320loPI   C3B 5119   7.970  10.289   8.698 -0.1537 -0.1127  0.0069
  320loPI   C4B 5120   7.931  10.530   8.231 -0.3118  0.4343 -0.1303
  321loPI    C1 5121  14.858  16.937  10.785 -0.0467 -0.2355  0.4272
  321loPI    C2 5122  15.051  17.287  10.783 -0.2261 -0.1319 -0.0712
  321loPI    C3 5123  14.694  17.256  10.962 -0.1986 -0.0678 -0.0045
  321loPI   PO4 5124  14.882  16.898  10.487  0.3896  0.2799 -0.0592
  321loPI   GL1 5125  14.873  17.108  10.073  0.0095  0.1303 -0.0674
  321loPI   GL2 5126  14.958  16.841   9.983  0.0964 -0.2915  0.0059
  321loPI   C1A 5127  14.629  17.215   9.728 -0.1009  0.0150  0.0231
  321loPI   C2A 5128  14.555  17.159   9.279  0.0137  0.0317  0.1200
  321loPI   C3A 5129  14.593  17.321   8.923  0.0947 -0.0646  0.0103
  321loPI   C4A 5130  14.660  17.291   8.518 -0.0217  0.2807 -0.2332
  321loPI   C5A 5131  14.791  17.495   8.178  0.0103 -0.1039 -0.1787
  321loPI   C6A 5132  14.478  17.764   7.870 -0.0473  0.1679  0.1797
  321loPI   C1B 5133  14.979  16.852   9.616  0.0457 -0.0084 -0.2584
  321loPI   C2B 5134  15.032  16.795   9.229 -0.2430 -0.0539  0.2093
  321loPI   C3B 5135  15.025  16.903   8.858 -0.4425 -0.1138 -0.0651
  321loPI   C4B 5136  15.112  16.751   8.344 -0.5601 -0.1337 -0.2712
  322loPI    C1 5137  15.823  11.727  11.306  0.1048  0.0828 -0.1029
  322loPI    C2 5138  15.878  11.838  11.686  0.0602  0.0282 -0.0803
  322loPI    C3 5139  15.539  11.933  11.497  0.0366 -0.0391 -0.0718
  322loPI   PO4 5140  16.011  11.758  11.207  0.1285  0.3014 -0.0587
  322loPI   GL1 5141  16.189  11.461  10.850  0.0200  0.0855 -0.1748
  322loPI   GL2 5142  15.811  11.515  10.840 -0.0785 -0.1319 -0.0672
  322loPI   C1A 5143  16.255  11.448  10.482  0.1911  0.2353 -0.3438
  322loPI   C2A 5144  16.330  11.618  10.078  0.0531 -0.1723  0.0133
  322loPI   C3A 5145  16.343  11.585   9.691 -0.1228  0.4839  0.1567
  322loPI   C4A 5146  16.353  11.615   9.319 -0.0216  0.1876  0.1205
  322loPI   C5A 5147  16.207  11.603   8.854 -0.1939  0.3643 -0.0613
  322loPI   C6A 5148  15.738  11.496   8.698 -0.1281 -0.0792  0.0771
  322loPI   C1B 5149  15.883  11.732  10.407  0.0353  0.0188 -0.1575
  322loPI   C2B 5150  15.864  11.868  10.045  0.0342  0.1701  0.1886
  322loPI   C3B 5151  15.993  11.959   9.614 -0.0637 -0.0188 -0.0484
  322loPI   C4B 5152  15.978  11.956   9.128  0.0606  0.2253  0.0221
  323loPI    C1 5153  12.193  17.450  10.903  0.0295 -0.2731  0.1532
  323loPI    C2 5154  11.870  17.366  11.124  0.0226  0.0694  0.2802
  323loPI    C3 5155  12.142  17.625  11.259  0.1727  0.0528  0.0170
  323loPI   PO4 5156  12.182  17.203  10.694 -0.1028  0.1504  0.1373
  323loPI   GL1 5157  12.502  17.066  10.326 -0.0076  0.3216  0.2101
  323loPI   GL2 5158  12.308  17.267  10.224 -0.1865 -0.0197  0.0264
  323loPI   C1A 5159  12.621  17.030   9.795 -0.1501 -0.1468 -0.0415
  323loPI   C2A 5160  12.747  17.107   9.371  0.1619 -0.2676  0.1192
  323loPI   C3A 5161  12.764  17.132   8.868 -0.1392 -0.1409 -0.0023
  323loPI   C4A 5162  12.766  17.030   8.373  0.2490  0.1532 -0.1316
  323loPI   C5A 5163  12.676  17.393   8.010 -0.0782  0.1388 -0.1031
  323loPI   C6A 5164  12.420  17.758   7.900  0.0926  0.3047  0.0803
  323loPI   C1B 5165  12.319  17.403   9.730 -0.2819 -0.1814  0.1750
  323loPI   C2B 5166  12.365  17.423   9.310  0.0548 -0.1068 -0.2060
  323loPI   C3B 5167  12.347  17.496   8.815  0.0820  0.2684  0.0956
  323loPI   C4B 5168  12.488  17.393   8.455  0.1279  0.1517  0.5698
  324loPI    C1 5169  14.764   5.891  10.749  0.3079 -0.0575  0.0772
  324loPI    C2 5170  14.692   5.929  11.141  0.1728 -0.0510  0.0521
  324loPI    C3 5171  15.064   5.976  11.001  0.1865  0.1535  0.1532
  324loPI   PO4 5172  14.609   6.053  10.633 -0.2688  0.2564  0.1380
  324loPI   GL1 5173  14.705   6.321  10.413  0.1399 -0.1686 -0.2439
  324loPI   GL2 5174  14.898   6.227  10.205  0.0069 -0.0839  0.2477
  324loPI   C1A 5175  14.750   6.728  10.119 -0.0531 -0.0704 -0.1254
  324loPI   C2A 5176  14.761   6.861   9.669 -0.0712  0.1034 -0.1110
  324loPI   C3A 5177  14.790   6.863   9.150 -0.1231  0.0234 -0.1727
  324loPI   C4A 5178  14.920   6.894   8.726  0.4105  0.2556  0.2057
  324loPI   C5A 5179  14.891   6.898   8.327 -0.1656 -0.0245  0.1404
  324loPI   C6A 5180  15.087   6.910   7.933 -0.0454  0.0583  0.1083
  324loPI   C1B 5181  15.051   6.344   9.791 -0.1699 -0.0440  0.1803
  324loPI   C2B 5182  15.094   6.500   9.428  0.4751  0.1827 -0.0827
  324loPI   C3B 5183  15.250   6.523   9.032 -0.0749  0.3389  0.1607
  324loPI   C4B 5184  15.311   6.611   8.517  0.0173  0.0288 -0.1086
  325loPI    C1 5185   0.808  11.074  11.481 -0.1788 -0.2686  0.1065
  325loPI    C2 5186   1.181  11.084  11.623 -0.0350 -0.3056 -0.2584
  325loPI    C3 5187   0.872  11.064  11.876  0.2118 -0.3772  0.0443
  325loPI   PO4 5188   0.717  11.277  11.284  0.2955 -0.1086 -0.1954
  325loPI   GL1 5189   0.725  11.329  10.824  0.0200  0.1814  0.0743
  325loPI   GL2 5190   0.994  11.079  10.859  0.1295  0.0867 -0.1083
  325loPI   C1A 5191   0.816  11.514  10.398  0.0073  0.0335  0.1042
  325loPI   C2A 5192   0.821  11.390  10.011  0.2515  0.0573  0.2918
  325loPI   C3A 5193   0.764  11.382   9.545 -0.2373  0.2359 -0.0627
  325loPI   C4A 5194   0.872  11.498   9.207 -0.0883 -0.2252  0.0925
  325loPI   C5A 5195   0.727  11.493   8.847 -0.0838 -0.3224 -0.2383
  325loPI   C6A 5196   0.373  11.530   8.701  0.1605 -0.0290  0.1031
  325loPI   C1B 5197   0.868  10.873  10.472  0.0476  0.0629  0.1008
  325loPI   C2B 5198   0.652  10.910  10.095  0.1461 -0.0617 -0.0127
  325loPI   C3B 5199   0.667  10.953   9.710 -0.0301  0.1225  0.1920
  325loPI   C4B 5200   0.638  10.986   9.300 -0.0782  0.1928  0.0839
  326loPI    C1 5201   6.889  11.031  10.953  0.2401 -0.0018 -0.0943
  326loPI    C2 5202   6.530  11.182  11.044  0.1139 -0.3368 -0.0189
  326loPI    C3 5203   6.727  10.961  11.312  0.2968 -0.3045 -0.1252
  326loPI   PO4 5204   6.854  10.919  10.616  0.0493  0.2579 -0.0992
  326loPI   GL1 5205   6.683  11.038  10.259  0.2639  0.1013  0.2421
  326loPI   GL2 5206   6.870  10.809  10.057  0.2566  0.0895 -0.1373
  326loPI   C1A 5207   6.297  10.769  10.069 -0.0577  0.1048 -0.1972
  326loPI   C2A 5208   6.247  10.843   9.706 -0.0285 -0.3184  0.3420
  326loPI   C3A 5209   6.220  10.877   9.239 -0.2494  0.0629  0.0380
  326loPI   C4A 5210   6.253  10.924   8.757  0.0019  0.2003  0.2002
  326loPI   C5A 5211   6.094  11.078   8.349 -0.1261  0.1877 -0.0417
  326loPI   C6A 5212   6.160  10.995   8.016 -0.4038 -0.2768  0.1985
  326loPI   C1B 5213   6.769  10.989   9.715  0.1929  0.4060  0.0341
  326loPI   C2B 5214   6.696  11.076   9.278 -0.1727  0.2426  0.0638
  326loPI   C3B 5215   6.777  11.072   8.821  0.2665  0.2626  0.2097
  326loPI   C4B 5216   6.648  11.042   8.400 -0.3955  0.2006 -0.3306
  327loPI    C1 5217   9.064  16.473  11.028 -0.0596 -0.1383 -0.0082
  327loPI    C2 5218   8.692  16.604  11.093 -0.1201 -0.0857 -0.4333
  327loPI    C3 5219   9.003  16.849  11.149 -0.1437 -0.1377 -0.0523
  327loPI   PO4 5220   8.947  16.240  10.864 -0.1483  0.1435 -0.0342
  327loPI   GL1 5221   9.097  16.029  10.506 -0.2142 -0.4046  0.2151
  327loPI   GL2 5222   9.258  15.682  10.445 -0.0913  0.2075 -0.4560
  327loPI   C1A 5223   9.118  16.072  10.015 -0.2536 -0.0160  0.1383
  327loPI   C2A 5224   9.233  16.058   9.610 -0.2578 -0.2119  0.0635
  327loPI   C3A 5225   9.260  16.141   9.203  0.0142  0.1708  0.1136
  327loPI   C4A 5226   9.256  16.051   8.834  0.1064  0.0036 -0.0556
  327loPI   C5A 5227   9.219  16.018   8.390 -0.0834  0.2455  0.1114
  327loPI   C6A 5228   9.308  16.251   8.057 -0.0859  0.1725 -0.0202
  327loPI   C1B 5229   9.495  15.662  10.094  0.1166  0.0571 -0.1636
  327loPI   C2B 5230   9.591  15.657   9.573 -0.0773  0.1075  0.0751
  327loPI   C3B 5231   9.608  15.631   9.089 -0.1341 -0.1545 -0.2540
  327loPI   C4B 5232   9.625  15.691   8.725 -0.1131 -0.2780  0.1484
  328loPI    C1 5233   7.578   0.507  10.362  0.0557 -0.1397  0.4371
  328loPI    C2 5234   7.664   0.898  10.343  0.0593 -0.1582 -0.0451
  328loPI    C3 5235   7.773   0.684  10.663  0.1105  0.2207  0.1962
  328loPI   PO4 5236   7.618   0.423  10.042  0.0391 -0.2032 -0.0836
  328loPI   GL1 5237   7.966   0.387   9.809  0.0446 -0.2402  0.0895
  328loPI   GL2 5238   7.812   0.112   9.773 -0.0163 -0.0437  0.0710
  328loPI   C1A 5239   7.926   0.407   9.354  0.1064  0.0318  0.1354
  328loPI   C2A 5240   8.008   0.234   8.910  0.1209 -0.3032  0.2218
  328loPI   C3A 5241   7.792   0.314   8.521 -0.0320 -0.0098 -0.2305
  328loPI   C4A 5242   7.666   0.213   8.095 -0.1499 -0.0189  0.0423
  328loPI   C5A 5243   7.908   0.057   7.800  0.2481  0.0297  0.4279
  328loPI   C6A 5244   8.266   0.132   7.517  0.1167 -0.0583  0.0932
  328loPI   C1B 5245   7.776  -0.147   9.484 -0.3820  0.2064  0.0272
  328loPI   C2B 5246   7.834  -0.202   9.048 -0.3886  0.1209 -0.2355
  328loPI   C3B 5247   7.767  -0.313   8.563 -0.2137 -0.0077 -0.0073
  328loPI   C4B 5248   7.957  -0.266   8.204  0.1279 -0.0108  0.3123
  329loPI    C1 5249  16.408  17.172  10.904 -0.0204 -0.1732 -0.1662
  329loPI    C2 5250  16.716  16.965  11.052  0.0965  0.1995  0.1290
  329loPI    C3 5251  16.524  17.229  11.282 -0.4376 -0.0121 -0.0568
  329loPI   PO4 5252  16.358  17.215  10.571  0.0041  0.1992 -0.1215
  329loPI   GL1 5253  16.324  17.159  10.073  0.0932 -0.0501  0.1363
  329loPI   GL2 5254  16.493  17.383   9.948  0.1357  0.0075  0.2125
  329loPI   C1A 5255  16.443  16.895   9.685 -0.0731  0.1971  0.1676
  329loPI   C2A 5256  16.328  16.922   9.351 -0.0232  0.0144  0.2098
  329loPI   C3A 5257  16.369  16.783   8.997  0.0567  0.3294  0.1556
  329loPI   C4A 5258  16.401  16.785   8.633 -0.0476  0.1435 -0.2775
  329loPI   C5A 5259  16.341  16.408   8.294  0.0075  0.1029  0.1028
  329loPI   C6A 5260  16.495  16.137   7.893 -0.1980  0.0434 -0.3938
  329loPI   C1B 5261  16.526  17.342   9.502 -0.3639 -0.1222 -0.1193
  329loPI   C2B 5262  16.493  17.282   9.057  0.0177  0.3907 -0.2249
  329loPI   C3B 5263  16.509  17.338   8.615  0.0924 -0.2653  0.1144
  329loPI   C4B 5264  16.248  17.237   8.317  0.2534 -0.2066 -0.0058
  330loPI    C1 5265  15.932   6.563  10.935  0.2438  0.2160  0.0488
  330loPI    C2 5266  15.599   6.682  11.121  0.0254 -0.0839 -0.1416
  330loPI    C3 5267  15.920   6.576  11.334  0.0729  0.3977  0.0394
  330loPI   PO4 5268  15.931   6.816  10.695  0.0744  0.0258 -0.4526
  330loPI   GL1 5269  16.054   7.175  10.240  0.2513  0.0851  0.1377
  330loPI   GL2 5270  16.008   7.389  10.163 -0.0374 -0.2262  0.0159
  330loPI   C1A 5271  16.229   7.257   9.768 -0.2329  0.1456 -0.0194
  330loPI   C2A 5272  16.307   7.294   9.364  0.2254  0.0508  0.0583
  330loPI   C3A 5273  16.373   7.213   8.954  0.1645 -0.0546 -0.0401
  330loPI   C4A 5274  16.409   7.127   8.484 -0.1157  0.2154 -0.4043
  330loPI   C5A 5275  16.182   6.917   8.269 -0.0130 -0.2737  0.0552
  330loPI   C6A 5276  16.104   6.649   7.950  0.3172  0.0064 -0.1302
  330loPI   C1B 5277  15.821   7.557   9.736  0.0576 -0.0345  0.1424
  330loPI   C2B 5278  15.901   7.633   9.391 -0.0678 -0.1596 -0.2692
  330loPI   C3B 5279  16.020   7.607   8.963  0.2135  0.0925 -0.2838
  330loPI   C4B 5280  16.135   7.652   8.561  0.2747 -0.1107 -0.2235
  331loPI    C1 5281   4.148   9.547  11.042 -0.0016 -0.0089 -0.0378
  331loPI    C2 5282   4.027   9.792  11.333 -0.3254 -0.0787 -0.1094
  331loPI    C3 5283   4.369   9.588  11.372 -0.2232  0.1270  0.0957
  331loPI   PO4 5284   3.976   9.397  10.832 -0.0504 -0.0768  0.2501
  331loPI   GL1 5285   3.998   9.558  10.464  0.0437 -0.1672 -0.1881
  331loPI   GL2 5286   3.781   9.435  10.331  0.2050 -0.0112 -0.0541
  331loPI   C1A 5287   4.172   9.722   9.987 -0.0595 -0.1014  0.3599
  331loPI   C2A 5288   4.283   9.637   9.563  0.1259  0.0386  0.0417
  331loPI   C3A 5289   4.160   9.562   9.189 -0.2143 -0.4237  0.2431
  331loPI   C4A 5290   4.186   9.665   8.648 -0.0888  0.2466 -0.1020
  331loPI   C5A 5291   4.160   9.670   8.148  0.2085  0.4788  0.0176
  331loPI   C6A 5292   4.402   9.689   7.740  0.0194  0.1475  0.0901
  331loPI   C1B 5293   3.730   9.439   9.917  0.0031  0.0827  0.0061
  331loPI   C2B 5294   3.705   9.443   9.523 -0.2581 -0.0965 -0.1693
  331loPI   C3B 5295   3.666   9.479   8.995  0.0118 -0.1556  0.0818
  331loPI   C4B 5296   3.683   9.664   8.527 -0.1171  0.2510  0.1547
  332loPI    C1 5297   0.397   9.466  11.200  0.0046  0.3623  0.1346
  332loPI    C2 5298   0.225   9.460  11.561 -0.0534  0.1217  0.1048
  332loPI    C3 5299   0.590   9.305  11.511 -0.1083  0.0146  0.0299
  332loPI   PO4 5300   0.287   9.379  11.002  0.0875 -0.0508 -0.1374
  332loPI   GL1 5301   0.271   9.316  10.513 -0.1301 -0.0996 -0.1116
  332loPI   GL2 5302   0.264   8.999  10.604 -0.2082 -0.0357  0.1055
  332loPI   C1A 5303   0.247   9.294  10.084 -0.0925  0.0372 -0.3088
  332loPI   C2A 5304   0.342   9.425   9.602 -0.1644 -0.0624 -0.0505
  332loPI   C3A 5305   0.430   9.449   9.290 -0.0963  0.1003 -0.1177
  332loPI   C4A 5306   0.351   9.572   8.889 -0.2227 -0.0553  0.0607
  332loPI   C5A 5307   0.469   9.443   8.463 -0.2858  0.0776  0.1440
  332loPI   C6A 5308   0.660   9.196   8.254  0.0614  0.0582  0.0937
  332loPI   C1B 5309   0.239   8.787  10.223 -0.0402  0.3539  0.0545
  332loPI   C2B 5310   0.281   8.875   9.723  0.2321 -0.1963  0.2259
  332loPI   C3B 5311   0.327   8.988   9.215  0.0191 -0.0103  0.0299
  332loPI   C4B 5312   0.394   9.083   8.788 -0.0730 -0.3536 -0.3042
  333loPI    C1 5313  16.261   2.972  10.933  0.0208  0.2730 -0.0001
  333loPI    C2 5314  15.967   3.039  11.195  0.0650  0.3452  0.0313
  333loPI    C3 5315  16.348   3.072  11.310  0.0872  0.1286  0.0235
  333loPI   PO4 5316  16.222   3.047  10.668 -0.0834 -0.0254 -0.0393
  333loPI   GL1 5317  16.217   2.948  10.231  0.0108  0.3142 -0.1052
  333loPI   GL2 5318  16.449   3.123  10.144 -0.0187 -0.2262 -0.0333
  333loPI   C1A 5319  16.222   2.913   9.751 -0.1294  0.1092  0.0537
  333loPI   C2A 5320  16.270   2.985   9.334 -0.0289 -0.2266 -0.1249
  333loPI   C3A 5321  16.301   3.011   8.914 -0.0114 -0.1577 -0.0899
  333loPI   C4A 5322  16.293   3.119   8.457  0.1628  0.3173  0.2028
  333loPI   C5A 5323  16.480   3.355   8.160 -0.1690 -0.2583  0.1894
  333loPI   C6A 5324  16.690   3.219   7.758  0.4657  0.3018 -0.0777
  333loPI   C1B 5325  16.721   3.084   9.821 -0.0303  0.0927 -0.1759
  333loPI   C2B 5326  16.706   3.119   9.400  0.2069  0.1521  0.0331
  333loPI   C3B 5327  16.810   3.083   8.906  0.1945 -0.2505 -0.3709
  333loPI   C4B 5328  16.767   3.184   8.573  0.1694  0.0160 -0.0322
  334loPI    C1 5329  14.307   2.843  10.650 -0.2164  0.1141 -0.1514
  334loPI    C2 5330  14.446   3.018  10.981 -0.0614 -0.2862  0.0018
  334loPI    C3 5331  14.076   2.868  10.975 -0.3039  0.2910 -0.2258
  334loPI   PO4 5332  14.421   2.986  10.444  0.1859 -0.0261 -0.6119
  334loPI   GL1 5333  14.498   2.800  10.075  0.0024 -0.2011  0.1018
  334loPI   GL2 5334  14.658   2.436  10.119  0.2826  0.1035 -0.1857
  334loPI   C1A 5335  14.355   2.822   9.603  0.2809 -0.0343 -0.0307
  334loPI   C2A 5336  14.235   2.925   9.312  0.1254 -0.1680 -0.2287
  334loPI   C3A 5337  14.390   2.787   8.914 -0.1318 -0.0616  0.1963
  334loPI   C4A 5338  14.496   2.781   8.561 -0.0094  0.2251  0.1510
  334loPI   C5A 5339  14.436   2.814   8.155 -0.0035  0.1818 -0.3516
  334loPI   C6A 5340  14.700   2.663   7.814  0.1399 -0.2971 -0.1183
  334loPI   C1B 5341  14.849   2.367   9.748 -0.0660  0.0000 -0.2477
  334loPI   C2B 5342  14.783   2.325   9.279  0.0040  0.2277 -0.0077
  334loPI   C3B 5343  14.819   2.490   8.765 -0.1006 -0.0836  0.0194
  334loPI   C4B 5344  14.892   2.578   8.272 -0.3439 -0.0225  0.0497
  335loPI    C1 5345  12.603  16.905  10.975  0.1020  0.0044 -0.2188
  335loPI    C2 5346  12.376  16.718  11.246  0.0660  0.1825 -0.1244
  335loPI    C3 5347  12.383  17.117  11.233  0.4332  0.1818 -0.0761
  335loPI   PO4 5348  12.527  16.781  10.736  0.0832 -0.1414 -0.4316
  335loPI   GL1 5349  12.467  16.483  10.490 -0.2283 -0.4523 -0.0034
  335loPI   GL2 5350  12.116  16.585  10.504  0.0352 -0.0958  0.0574
  335loPI   C1A 5351  12.520  16.621  10.059  0.0997 -0.1977 -0.2644
  335loPI   C2A 5352  12.706  16.539   9.631  0.0249 -0.0491  0.0989
  335loPI   C3A 5353  12.583  16.578   9.230  0.2166  0.0488 -0.0372
  335loPI   C4A 5354  12.566  16.540   8.829  0.0105 -0.0884  0.0164
  335loPI   C5A 5355  12.339  16.449   8.504  0.3768  0.1295  0.3057
  335loPI   C6A 5356  11.905  16.281   8.305  0.0682  0.0634  0.1193
  335loPI   C1B 5357  11.969  16.500  10.080 -0.1666  0.0588  0.0487
  335loPI   C2B 5358  12.178  16.462   9.708 -0.0238  0.1544  0.0882
  335loPI   C3B 5359  12.130  16.334   9.264  0.4691  0.0703  0.1591
  335loPI   C4B 5360  12.009  16.348   8.828 -0.2195 -0.2057 -0.0831
  336loPI    C1 5361  14.904  11.165  11.149 -0.0643 -0.0367  0.0402
  336loPI    C2 5362  14.818  11.540  11.258 -0.0910  0.0131 -0.1485
  336loPI    C3 5363  14.623  11.233  11.425 -0.0717  0.0824  0.0037
  336loPI   PO4 5364  14.857  11.170  10.901 -0.2783  0.1444 -0.0516
  336loPI   GL1 5365  14.753  11.348  10.536 -0.0981  0.0932 -0.0467
  336loPI   GL2 5366  14.646  11.111  10.380 -0.0115 -0.0023 -0.2045
  336loPI   C1A 5367  14.824  11.512  10.094  0.0496 -0.1662  0.1713
  336loPI   C2A 5368  14.950  11.606   9.759  0.1579  0.3525 -0.0476
  336loPI   C3A 5369  14.945  11.652   9.413 -0.0198 -0.1208  0.2100
  336loPI   C4A 5370  14.827  11.660   8.972 -0.0101  0.1391  0.3159
  336loPI   C5A 5371  14.871  11.576   8.595  0.1321 -0.1464  0.2749
  336loPI   C6A 5372  14.787  11.700   8.135  0.1541  0.0638  0.2550
  336loPI   C1B 5373  14.687  11.033   9.987 -0.2520  0.0230  0.1120
  336loPI   C2B 5374  14.866  11.087   9.603 -0.2443 -0.0023 -0.0617
  336loPI   C3B 5375  14.825  11.126   9.188 -0.1482 -0.1059 -0.1642
  336loPI   C4B 5376  14.867  11.090   8.725 -0.3148 -0.1372 -0.2653
  337loPI    C1 5377   8.340   6.515  10.199  0.0943  0.1651  0.0841
  337loPI    C2 5378   8.439   6.647  10.563  0.0531  0.1083  0.1162
  337loPI    C3 5379   8.570   6.291  10.437  0.1068  0.1489  0.0567
  337loPI   PO4 5380   8.451   6.640   9.985  0.2707  0.3140  0.0343
  337loPI   GL1 5381   8.407   6.521   9.528 -0.4235  0.2572 -0.0279
  337loPI   GL2 5382   8.246   6.230   9.614 -0.0022  0.0728  0.1617
  337loPI   C1A 5383   8.285   6.517   9.070  0.0775  0.1315  0.1416
  337loPI   C2A 5384   8.412   6.300   8.715 -0.5101 -0.1223 -0.1153
  337loPI   C3A 5385   8.615   5.986   8.457 -0.0244  0.0157 -0.1218
  337loPI   C4A 5386   8.607   5.686   8.261 -0.0447  0.0906 -0.0615
  337loPI   C5A 5387   8.780   5.508   7.927  0.1037 -0.1428  0.0917
  337loPI   C6A 5388   8.678   5.278   7.599 -0.0290 -0.0054 -0.1704
  337loPI   C1B 5389   8.442   6.015   9.194  0.0011  0.1096 -0.1715
  337loPI   C2B 5390   8.446   5.733   8.889  0.0387 -0.1891 -0.2899
  337loPI   C3B 5391   8.333   5.445   8.599 -0.2194 -0.0642  0.1368
  337loPI   C4B 5392   8.259   5.295   8.088 -0.2217  0.1896  0.1574
  338loPI    C1 5393   0.904  10.567  11.127  0.2557 -0.0867 -0.0652
  338loPI    C2 5394   1.025  10.640  11.501 -0.0304 -0.0616  0.0249
  338loPI    C3 5395   1.234  10.784  11.191  0.1332  0.0317  0.1764
  338loPI   PO4 5396   0.839  10.372  11.095 -0.1807  0.1945 -0.1997
  338loPI   GL1 5397   0.551  10.179  10.868 -0.5727  0.1126 -0.0304
  338loPI   GL2 5398   0.370  10.425  10.944 -0.1092 -0.2461  0.3389
  338loPI   C1A 5399   0.560  10.459  10.448  0.1697  0.1977  0.0092
  338loPI   C2A 5400   0.534  10.375   9.992 -0.1229  0.2270  0.1087
  338loPI   C3A 5401   0.553  10.462   9.612  0.2939  0.1002 -0.0709
  338loPI   C4A 5402   0.636  10.514   9.158  0.2873 -0.1797 -0.0013
  338loPI   C5A 5403   0.630  10.766   8.813 -0.0894  0.1043 -0.1635
  338loPI   C6A 5404   0.496  11.109   8.528 -0.3077  0.1473 -0.0607
  338loPI   C1B 5405   0.151  10.299  10.570  0.0850 -0.0430 -0.1548
  338loPI   C2B 5406  -0.022  10.246  10.211 -0.2767  0.1199  0.0320
  338loPI   C3B 5407   0.043  10.273   9.781  0.1524  0.1071 -0.0770
  338loPI   C4B 5408   0.179  10.369   9.293 -0.1439  0.0299 -0.1620
  339loPI    C1 5409   4.695   8.891  10.914 -0.0896 -0.1271 -0.0377
  339loPI    C2 5410   4.433   9.120  11.111 -0.0353 -0.2471  0.1776
  339loPI    C3 5411   4.656   8.855  11.310 -0.0936 -0.4846 -0.0676
  339loPI   PO4 5412   4.635   8.911  10.697  0.1505  0.0091 -0.2207
  339loPI   GL1 5413   4.429   8.893  10.339  0.1872  0.0831  0.6698
  339loPI   GL2 5414   4.522   8.723  10.148 -0.0537 -0.0732 -0.3422
  339loPI   C1A 5415   4.156   9.205  10.146 -0.2319 -0.1429  0.1460
  339loPI   C2A 5416   3.995   9.072   9.743 -0.1988  0.0717 -0.1051
  339loPI   C3A 5417   4.037   9.095   9.311  0.4027 -0.1599  0.1316
  339loPI   C4A 5418   4.056   9.163   8.885 -0.1767  0.0371 -0.0413
  339loPI   C5A 5419   3.966   9.258   8.402 -0.1518  0.1399 -0.0766
  339loPI   C6A 5420   3.593   9.274   8.251 -0.1190  0.4742  0.0916
  339loPI   C1B 5421   4.629   8.638   9.701  0.0364  0.0575 -0.3672
  339loPI   C2B 5422   4.448   8.697   9.302  0.2855 -0.0413  0.1097
  339loPI   C3B 5423   4.543   8.669   9.017  0.0596 -0.0301 -0.2073
  339loPI   C4B 5424   4.767   8.722   8.673 -0.0847 -0.1160  0.0720
  340loPI    C1 5425   4.776  10.103  10.704 -0.0196 -0.0179 -0.1976
  340loPI    C2 5426   5.154  10.230  10.683 -0.0913  0.2599  0.1006
  340loPI    C3 5427   4.989  10.153  11.039 -0.2611 -0.0373 -0.0386
  340loPI   PO4 5428   4.603  10.258  10.543  0.1907  0.1079  0.1249
  340loPI   GL1 5429   4.380  10.254  10.262  0.3283  0.0823  0.3187
  340loPI   GL2 5430   4.129  10.110  10.352 -0.0416 -0.2938  0.1222
  340loPI   C1A 5431   4.450  10.149   9.865  0.2429  0.4103  0.2043
  340loPI   C2A 5432   4.326  10.217   9.452  0.0195 -0.0010 -0.1152
  340loPI   C3A 5433   4.327  10.054   9.067  0.0937  0.0161 -0.4623
  340loPI   C4A 5434   4.288  10.199   8.617  0.3030  0.0186 -0.0343
  340loPI   C5A 5435   4.040  10.149   8.254  0.2669  0.0430  0.2505
  340loPI   C6A 5436   4.036  10.020   7.796 -0.1652  0.0280  0.0425
  340loPI   C1B 5437   3.967  10.200  10.005  0.2481 -0.0470 -0.0087
  340loPI   C2B 5438   3.914  10.432   9.620  0.3448 -0.1447  0.1092
  340loPI   C3B 5439   3.970  10.441   9.145  0.1828  0.1173 -0.1213
  340loPI   C4B 5440   3.934  10.550   8.763  0.0740 -0.0912  0.0989
  341loPI    C1 5441   3.198   3.005  10.507 -0.1615  0.2273  0.2783
  341loPI    C2 5442   3.399   2.799  10.785  0.0139  0.0728  0.0411
  341loPI    C3 5443   3.403   3.199  10.791  0.0877  0.0706  0.2087
  341loPI   PO4 5444   3.209   2.763  10.324 -0.0068  0.0821  0.2683
  341loPI   GL1 5445   2.951   2.571  10.072  0.0690  0.4603 -0.1084
  341loPI   GL2 5446   2.650   2.337   9.877  0.0800 -0.3281  0.2249
  341loPI   C1A 5447   2.988   2.614   9.652  0.0441 -0.1532  0.3358
  341loPI   C2A 5448   2.804   2.576   9.270  0.3368 -0.1892 -0.1358
  341loPI   C3A 5449   2.871   2.514   8.868  0.1098 -0.0452  0.1896
  341loPI   C4A 5450   3.022   2.552   8.459  0.0795  0.1711 -0.1416
  341loPI   C5A 5451   3.159   2.490   8.025 -0.3086  0.2332  0.4201
  341loPI   C6A 5452   2.996   2.112   7.850 -0.0181  0.0370  0.2069
  341loPI   C1B 5453   2.451   2.203   9.563  0.0677 -0.0639  0.2996
  341loPI   C2B 5454   2.461   2.075   9.053 -0.1533  0.0613 -0.0229
  341loPI   C3B 5455   2.647   2.116   8.693 -0.0630  0.3880 -0.2715
  341loPI   C4B 5456   2.656   2.008   8.219 -0.2546  0.0421 -0.2207
  342loPI    C1 5457  13.605   7.427  10.731  0.2782 -0.0391  0.2407
  342loPI    C2 5458  13.290   7.674  10.726  0.2179 -0.1175 -0.2030
  342loPI    C3 5459  13.276   7.337  10.940  0.0623 -0.0429 -0.0937
  342loPI   PO4 5460  13.706   7.485  10.430  0.0299 -0.0462 -0.1260
  342loPI   GL1 5461  14.103   7.395  10.136  0.2760  0.0059  0.2155
  342loPI   GL2 5462  14.141   7.662  10.033  0.2305 -0.1503  0.1674
  342loPI   C1A 5463  14.283   7.207   9.868  0.0975  0.3675  0.0021
  342loPI   C2A 5464  14.405   7.160   9.468 -0.0503 -0.0647  0.5087
  342loPI   C3A 5465  14.503   7.210   9.025  0.2273 -0.1343 -0.6169
  342loPI   C4A 5466  14.448   7.291   8.591  0.0765 -0.2339  0.1611
  342loPI   C5A 5467  14.690   7.352   8.208  0.0799 -0.0639 -0.0726
  342loPI   C6A 5468  14.738   7.696   7.851 -0.0644  0.1516  0.1871
  342loPI   C1B 5469  14.478   7.619   9.728 -0.2174 -0.0697 -0.1441
  342loPI   C2B 5470  14.573   7.616   9.234 -0.3227  0.0519  0.0201
  342loPI   C3B 5471  14.554   7.721   8.818  0.0997  0.0037  0.2838
  342loPI   C4B 5472  14.682   7.822   8.405 -0.0182 -0.1789  0.0159
  343loPI    C1 5473   3.783   8.589  10.838 -0.1650 -0.1137 -0.0450
  343loPI    C2 5474   3.534   8.403  11.091  0.0941 -0.1138  0.2153
  343loPI    C3 5475   3.927   8.330  11.107  0.1607  0.2015  0.0912
  343loPI   PO4 5476   3.595   8.577  10.607 -0.2641 -0.2664 -0.2039
  343loPI   GL1 5477   3.509   8.443  10.202  0.0756  0.0955  0.2902
  343loPI   GL2 5478   3.242   8.621  10.259 -0.1318  0.0831  0.1262
  343loPI   C1A 5479   3.473   8.361   9.684 -0.0923 -0.1554 -0.0903
  343loPI   C2A 5480   3.415   8.454   9.251 -0.1838 -0.1486  0.0665
  343loPI   C3A 5481   3.429   8.569   8.789  0.1970  0.0335 -0.2511
  343loPI   C4A 5482   3.290   8.461   8.406  0.1045  0.2513  0.0948
  343loPI   C5A 5483   2.984   8.403   8.144  0.2705  0.2312 -0.1583
  343loPI   C6A 5484   2.816   8.079   7.902  0.4029 -0.1260 -0.1261
  343loPI   C1B 5485   3.083   8.757   9.859  0.2255 -0.0212 -0.1309
  343loPI   C2B 5486   3.058   8.843   9.409  0.0840 -0.3139 -0.0970
  343loPI   C3B 5487   2.989   8.879   9.018  0.0269 -0.4114 -0.2127
  343loPI   C4B 5488   3.043   8.906   8.590 -0.4245 -0.0034 -0.0525
  344loPI    C1 5489   1.883   9.831  11.027 -0.1885  0.1105  0.0629
  344loPI    C2 5490   1.903   9.496  11.246  0.0933  0.2599  0.2728
  344loPI    C3 5491   1.701   9.814  11.383 -0.3775  0.1027 -0.0332
  344loPI   PO4 5492   1.797   9.785  10.795  0.0871  0.1751 -0.3431
  344loPI   GL1 5493   2.015   9.846  10.441  0.0038 -0.0493  0.2100
  344loPI   GL2 5494   2.148  10.156  10.303 -0.2215 -0.0856 -0.1316
  344loPI   C1A 5495   2.047   9.832   9.904 -0.0683  0.3070  0.1424
  344loPI   C2A 5496   1.876   9.854   9.440  0.1615 -0.0034 -0.1318
  344loPI   C3A 5497   1.845   9.883   9.005 -0.2244  0.1875  0.0110
  344loPI   C4A 5498   1.720   9.882   8.631 -0.0139 -0.0775  0.2799
  344loPI   C5A 5499   1.651   9.968   8.220 -0.0369  0.0687  0.2110
  344loPI   C6A 5500   1.605  10.135   7.828  0.2536 -0.2265  0.3326
  344loPI   C1B 5501   2.002  10.334   9.883  0.2007  0.1454 -0.1653
  344loPI   C2B 5502   1.999  10.303   9.479 -0.1553 -0.2885 -0.0146
  344loPI   C3B 5503   2.038  10.405   9.001 -0.2730 -0.0221  0.2156
  344loPI   C4B 5504   2.012  10.468   8.556  0.2082  0.0960  0.1972
  345loPI    C1 5505   3.726   2.221  10.626 -0.0952 -0.0420  0.1212
  345loPI    C2 5506   4.080   2.057  10.715  0.0681  0.1121 -0.2260
  345loPI    C3 5507   3.753   1.951  10.921  0.2526 -0.2899 -0.1298
  345loPI   PO4 5508   3.728   2.232  10.382 -0.0864  0.0607  0.4004
  345loPI   GL1 5509   3.568   2.515  10.032 -0.3040  0.3276 -0.2527
  345loPI   GL2 5510   3.459   2.810   9.894  0.0132  0.0072 -0.1434
  345loPI   C1A 5511   3.475   2.395   9.619 -0.1023  0.0540  0.0238
  345loPI   C2A 5512   3.421   2.351   9.187  0.1504 -0.0505 -0.2430
  345loPI   C3A 5513   3.307   2.196   8.728  0.1754  0.0983 -0.2295
  345loPI   C4A 5514   3.179   2.033   8.290  0.1346  0.0192 -0.2263
  345loPI   C5A 5515   3.027   1.651   8.067  0.0505 -0.2452  0.0597
  345loPI   C6A 5516   2.899   1.278   7.761  0.1722 -0.0741 -0.0284
  345loPI   C1B 5517   3.333   2.854   9.415 -0.1043  0.2209  0.0991
  345loPI   C2B 5518   3.316   2.752   8.926  0.0534  0.3854  0.0461
  345loPI   C3B 5519   3.429   2.769   8.427 -0.0203  0.1925  0.2633
  345loPI   C4B 5520   3.474   2.828   8.012 -0.1720 -0.0601 -0.2029
  346loPI    C1 5521  16.272  10.921  11.708 -0.2075 -0.1479  0.1570
  346loPI    C2 5522  16.056  11.257  11.690 -0.2039 -0.1624 -0.2614
  346loPI    C3 5523  15.873  10.901  11.690 -0.1962 -0.1671 -0.1109
  346loPI   PO4 5524  16.414  10.891  11.460  0.0393 -0.5844 -0.0888
  346loPI   GL1 5525  16.384  10.964  11.010 -0.0021 -0.3414  0.2729
  346loPI   GL2 5526  16.654  10.742  10.802 -0.0693 -0.0234  0.4068
  346loPI   C1A 5527  16.214  10.932  10.565  0.0352 -0.1382  0.1692
  346loPI   C2A 5528  16.241  11.101  10.142  0.0271 -0.2728 -0.1240
  346loPI   C3A 5529  16.258  11.038   9.750 -0.2444 -0.2512 -0.3134
  346loPI   C4A 5530  16.216  11.129   9.290 -0.0652  0.0130  0.1398
  346loPI   C5A 5531  16.172  11.064   8.812 -0.0533 -0.1965 -0.2169
  346loPI   C6A 5532  16.014  11.149   8.486  0.1657 -0.1218  0.2003
  346loPI   C1B 5533  16.610  10.754  10.298  0.0981 -0.0777 -0.1568
  346loPI   C2B 5534  16.565  10.685   9.876  0.0008  0.2877 -0.1209
  346loPI   C3B 5535  16.598  10.692   9.442 -0.1139  0.1553 -0.0004
  346loPI   C4B 5536  16.526  10.801   9.082 -0.0521 -0.0997 -0.1117
  347loPI    C1 5537   4.819  12.280  11.004  0.0257  0.0434 -0.1054
  347loPI    C2 5538   4.930  12.645  11.124  0.0341  0.0089 -0.0076
  347loPI    C3 5539   5.043  12.323  11.333 -0.1303 -0.0365  0.0123
  347loPI   PO4 5540   4.883  12.274  10.624  0.1151  0.0328  0.3596
  347loPI   GL1 5541   4.634  12.225  10.227 -0.3810 -0.3455 -0.0278
  347loPI   GL2 5542   4.753  12.541  10.173  0.0783  0.2283  0.3443
  347loPI   C1A 5543   4.661  12.130   9.818 -0.2235 -0.2639 -0.5641
  347loPI   C2A 5544   4.713  12.236   9.432  0.1715 -0.0677  0.1528
  347loPI   C3A 5545   4.606  12.320   9.029  0.0379  0.0144 -0.1655
  347loPI   C4A 5546   4.647  12.370   8.650  0.0392 -0.2922  0.0272
  347loPI   C5A 5547   4.521  12.285   8.323 -0.1494 -0.3336  0.2735
  347loPI   C6A 5548   4.243  11.922   8.065 -0.0126  0.0147 -0.1994
  347loPI   C1B 5549   4.713  12.664   9.809 -0.0020 -0.3325  0.1824
  347loPI   C2B 5550   4.775  12.789   9.445 -0.0872  0.1471  0.0579
  347loPI   C3B 5551   4.809  12.846   9.022  0.1828 -0.1218  0.0111
  347loPI   C4B 5552   4.839  12.849   8.553 -0.1965 -0.0385 -0.0952
  348loPI    C1 5553  18.063  14.714  10.941 -0.0825 -0.0558 -0.0325
  348loPI    C2 5554  18.324  14.412  10.923 -0.0850 -0.0533 -0.1124
  348loPI    C3 5555  18.277  14.616  11.264  0.1629  0.0757 -0.1528
  348loPI   PO4 5556  18.037  14.757  10.713 -0.1773 -0.0917 -0.1763
  348loPI   GL1 5557  18.218  14.769  10.367 -0.1781  0.0948  0.3211
  348loPI   GL2 5558  18.480  14.568  10.451 -0.1685 -0.0379  0.0049
  348loPI   C1A 5559  18.229  14.669   9.897  0.0651  0.2822  0.1808
  348loPI   C2A 5560  18.302  14.690   9.489 -0.0253  0.2300 -0.1704
  348loPI   C3A 5561  18.318  14.654   9.032  0.3734  0.1275 -0.0099
  348loPI   C4A 5562  18.445  14.730   8.639 -0.2084  0.0693 -0.2023
  348loPI   C5A 5563  18.472  14.934   8.302 -0.0581 -0.3642 -0.0208
  348loPI   C6A 5564  18.390  14.726   7.897  0.3183  0.1274  0.0766
  348loPI   C1B 5565  18.705  14.253  10.128  0.1272  0.0041  0.0855
  348loPI   C2B 5566  18.694  14.328   9.652  0.0228 -0.5117  0.1706
  348loPI   C3B 5567  18.714  14.393   9.287  0.0550 -0.0769  0.2963
  348loPI   C4B 5568  18.655  14.321   8.868 -0.1089 -0.1350  0.2604
  349loPI    C1 5569   5.357   4.808  10.056 -0.2874  0.1522  0.1112
  349loPI    C2 5570   5.596   4.675  10.348 -0.2129  0.0177 -0.0097
  349loPI    C3 5571   5.363   4.994  10.409  0.0652  0.2066  0.0801
  349loPI   PO4 5572   5.418   4.776   9.828  0.0590 -0.2149 -0.2296
  349loPI   GL1 5573   5.686   4.693   9.461  0.0981  0.0446 -0.1700
  349loPI   GL2 5574   5.838   4.438   9.425  0.0756 -0.0777  0.0848
  349loPI   C1A 5575   5.587   4.721   9.024 -0.3329 -0.2610 -0.0250
  349loPI   C2A 5576   5.610   4.923   8.507  0.2115  0.0672  0.0292
  349loPI   C3A 5577   5.580   5.273   8.303 -0.1274 -0.2201  0.0483
  349loPI   C4A 5578   5.449   5.641   8.082 -0.2134 -0.1113 -0.2096
  349loPI   C5A 5579   5.578   6.089   7.966 -0.2186 -0.0938  0.3232
  349loPI   C6A 5580   5.768   6.318   7.613  0.0207 -0.1990  0.0902
  349loPI   C1B 5581   6.047   4.574   8.928  0.2691  0.1269 -0.0105
  349loPI   C2B 5582   6.118   4.653   8.443  0.0991  0.3033 -0.1206
  349loPI   C3B 5583   6.004   4.831   8.069 -0.0169 -0.1352  0.0030
  349loPI   C4B 5584   5.609   4.819   7.766  0.2022 -0.3569 -0.0762
  350loPI    C1 5585  16.427   0.758  10.954 -0.0212 -0.0281 -0.0178
  350loPI    C2 5586  16.586   0.556  11.260  0.0068 -0.1350 -0.1023
  350loPI    C3 5587  16.556   0.955  11.278  0.0326 -0.1383  0.0281
  350loPI   PO4 5588  16.573   0.711  10.746  0.1115 -0.0837 -0.0347
  350loPI   GL1 5589  16.494   0.744  10.285  0.0263  0.1993  0.2746
  350loPI   GL2 5590  16.297   0.519  10.035  0.2860  0.0105 -0.0925
  350loPI   C1A 5591  16.771   0.831   9.915  0.1152  0.0469  0.3528
  350loPI   C2A 5592  16.866   0.702   9.408  0.1833  0.1915 -0.1999
  350loPI   C3A 5593  16.770   0.695   8.927  0.3968 -0.2369 -0.0344
  350loPI   C4A 5594  16.833   0.782   8.456  0.0222 -0.4476 -0.3705
  350loPI   C5A 5595  16.837   0.466   8.184  0.1985 -0.1370 -0.0128
  350loPI   C6A 5596  16.593   0.067   8.195 -0.1948 -0.2611  0.1336
  350loPI   C1B 5597  16.371   0.570   9.650 -0.2483  0.2245  0.1176
  350loPI   C2B 5598  16.401   0.482   9.241  0.2878  0.0207 -0.1755
  350loPI   C3B 5599  16.305   0.537   8.814  0.2250  0.1864  0.0583
  350loPI   C4B 5600  16.348   0.537   8.371 -0.3153 -0.2062 -0.2142
  351loPI    C1 5601   6.721   5.104  10.393 -0.1481 -0.0439 -0.0471
  351loPI    C2 5602   7.018   4.973  10.626 -0.0496  0.2214 -0.0198
  351loPI    C3 5603   6.642   4.970  10.761 -0.0171  0.1961  0.0710
  351loPI   PO4 5604   6.788   4.934  10.142 -0.2558 -0.2251 -0.2859
  351loPI   GL1 5605   7.207   4.855  10.000  0.1363  0.0603 -0.1912
  351loPI   GL2 5606   7.116   5.086   9.796  0.1493 -0.1532 -0.0266
  351loPI   C1A 5607   7.498   4.788   9.586 -0.1875  0.2496 -0.2618
  351loPI   C2A 5608   7.523   4.952   9.157 -0.1339 -0.3149 -0.2611
  351loPI   C3A 5609   7.358   4.929   8.748  0.3918 -0.0543 -0.1679
  351loPI   C4A 5610   7.439   4.974   8.322 -0.2129  0.2434  0.1794
  351loPI   C5A 5611   7.362   5.067   7.871  0.1425  0.2791  0.2974
  351loPI   C6A 5612   7.519   4.843   7.402 -0.1324  0.1454 -0.0551
  351loPI   C1B 5613   7.062   5.061   9.378 -0.1162  0.0820 -0.2627
  351loPI   C2B 5614   6.984   5.229   8.941  0.0192  0.1320  0.1517
  351loPI   C3B 5615   6.924   4.967   8.528 -0.1622  0.2482 -0.2000
  351loPI   C4B 5616   6.896   5.094   8.099 -0.1139  0.0583  0.0598
  352loPI    C1 5617   7.294   5.504  10.553  0.0554 -0.1669 -0.1088
  352loPI    C2 5618   7.479   5.226  10.773 -0.0988 -0.0853  0.1274
  352loPI    C3 5619   7.141   5.394  10.905  0.0908  0.3496  0.0765
  352loPI   PO4 5620   7.332   5.408  10.307  0.0221 -0.0522  0.2562
  352loPI   GL1 5621   7.521   5.313   9.946 -0.4115 -0.4323  0.5720
  352loPI   GL2 5622   7.770   5.139   9.888 -0.0298  0.4039  0.0711
  352loPI   C1A 5623   7.473   5.328   9.501 -0.2556 -0.1768  0.1663
  352loPI   C2A 5624   7.468   5.495   9.093 -0.2494 -0.0030 -0.0561
  352loPI   C3A 5625   7.421   5.439   8.696  0.0621 -0.0156  0.0495
  352loPI   C4A 5626   7.139   5.512   8.294 -0.2033 -0.1701 -0.0215
  352loPI   C5A 5627   6.814   5.698   8.110  0.1346 -0.0799 -0.3392
  352loPI   C6A 5628   6.656   6.189   8.032 -0.2539  0.1903  0.4565
  352loPI   C1B 5629   7.904   5.059   9.456  0.0554  0.0909  0.1245
  352loPI   C2B 5630   7.948   4.688   9.327 -0.1581  0.2539  0.1241
  352loPI   C3B 5631   7.854   4.643   8.881 -0.1586  0.1319 -0.0441
  352loPI   C4B 5632   7.823   4.664   8.414 -0.1683  0.1122 -0.0254
  353loPI    C1 5633   0.205  11.723  11.372 -0.0874  0.1014 -0.1444
  353loPI    C2 5634  -0.147  11.567  11.266 -0.0828 -0.0037 -0.0080
  353loPI    C3 5635  -0.024  11.541  11.645  0.0855  0.0065 -0.0615
  353loPI   PO4 5636   0.274  11.888  11.138  0.0328  0.0132  0.2219
  353loPI   GL1 5637   0.348  11.940  10.681  0.1237 -0.1856  0.0655
  353loPI   GL2 5638   0.114  12.121  10.609  0.2144  0.2407 -0.1537
  353loPI   C1A 5639   0.390  11.817  10.238 -0.1665  0.0893 -0.2360
  353loPI   C2A 5640   0.449  11.703   9.768 -0.4532  0.0075 -0.0575
  353loPI   C3A 5641   0.520  11.784   9.353  0.0499  0.0515 -0.0436
  353loPI   C4A 5642   0.382  11.916   9.025 -0.0741 -0.5542  0.0556
  353loPI   C5A 5643   0.385  11.970   8.513 -0.0245  0.0035 -0.1252
  353loPI   C6A 5644   0.368  12.126   8.113  0.0517 -0.1913  0.2291
  353loPI   C1B 5645   0.025  12.223  10.103  0.2126  0.0189  0.0694
  353loPI   C2B 5646   0.115  12.042   9.722  0.0772 -0.1361  0.1225
  353loPI   C3B 5647   0.062  12.141   9.334  0.0855 -0.0469  0.0362
  353loPI   C4B 5648   0.029  12.280   8.875  0.1817 -0.1918 -0.1729
  354loPI    C1 5649   3.773  15.001  10.776  0.1806 -0.0384  0.0465
  354loPI    C2 5650   3.611  15.015  11.141  0.1012 -0.1193  0.0149
  354loPI    C3 5651   3.867  15.300  11.024 -0.0961  0.0665  0.0288
  354loPI   PO4 5652   3.656  14.943  10.571  0.3162 -0.1408  0.3189
  354loPI   GL1 5653   3.639  15.180  10.225 -0.1548 -0.2350  0.2200
  354loPI   GL2 5654   3.837  14.944  10.032  0.0558  0.1473  0.0891
  354loPI   C1A 5655   3.421  15.235   9.852  0.1591 -0.6617  0.0449
  354loPI   C2A 5656   3.371  15.239   9.374 -0.2379  0.4642 -0.3008
  354loPI   C3A 5657   3.441  15.274   8.968 -0.3250 -0.3646 -0.0312
  354loPI   C4A 5658   3.388  15.166   8.672 -0.2313  0.0207  0.0826
  354loPI   C5A 5659   3.134  15.172   8.323 -0.3294  0.2527 -0.1960
  354loPI   C6A 5660   2.834  14.927   8.193  0.0778  0.2085  0.4972
  354loPI   C1B 5661   3.733  14.918   9.596 -0.0055 -0.0322  0.0342
  354loPI   C2B 5662   3.695  14.793   9.154  0.1264 -0.2032  0.2255
  354loPI   C3B 5663   3.891  14.930   8.736 -0.1816 -0.0614  0.3363
  354loPI   C4B 5664   3.734  14.932   8.371 -0.2681  0.0657  0.2617
  355loPI    C1 5665   0.681   2.119  10.891 -0.1040  0.3245  0.0810
  355loPI    C2 5666   1.047   2.260  10.811 -0.0885  0.2966  0.1021
  355loPI    C3 5667   0.906   2.270  11.185 -0.1052  0.2978  0.0958
  355loPI   PO4 5668   0.719   1.874  10.750 -0.2551 -0.0399  0.1609
  355loPI   GL1 5669   0.570   1.840  10.278 -0.1661 -0.0176  0.2104
  355loPI   GL2 5670   0.648   1.961   9.958 -0.0709 -0.0115  0.2442
  355loPI   C1A 5671   0.179   1.719   9.843  0.0702 -0.1629 -0.1935
  355loPI   C2A 5672   0.117   1.673   9.456  0.5400  0.2540 -0.0260
  355loPI   C3A 5673   0.188   1.796   9.021 -0.1961  0.1208  0.3105
  355loPI   C4A 5674   0.094   1.820   8.661 -0.1151 -0.0108  0.2026
  355loPI   C5A 5675   0.044   1.775   8.232 -0.0744 -0.1792 -0.2023
  355loPI   C6A 5676  -0.136   1.563   7.928  0.2345  0.1314  0.2303
  355loPI   C1B 5677   0.686   1.956   9.497 -0.1764  0.1196 -0.0417
  355loPI   C2B 5678   0.653   2.052   9.129 -0.1340  0.0757  0.1637
  355loPI   C3B 5679   0.603   1.954   8.795  0.0126  0.2081  0.1630
  355loPI   C4B 5680   0.504   1.889   8.385 -0.2484 -0.1545  0.0872
  356loPI    C1 5681   5.001  17.237  10.614  0.1598  0.2037  0.0312
  356loPI    C2 5682   4.641  17.093  10.515  0.1906  0.1748 -0.0391
  356loPI    C3 5683   4.872  16.893  10.772  0.2264  0.1064 -0.1238
  356loPI   PO4 5684   5.099  17.213  10.261 -0.1344 -0.1398  0.0041
  356loPI   GL1 5685   4.848  17.116   9.943 -0.0602 -0.0403  0.1360
  356loPI   GL2 5686   5.020  16.809   9.747  0.0673 -0.1875  0.0110
  356loPI   C1A 5687   4.712  17.168   9.555  0.0613 -0.1852  0.0848
  356loPI   C2A 5688   4.957  17.272   9.120 -0.2116 -0.0174 -0.2883
  356loPI   C3A 5689   5.226  17.255   8.788  0.0391  0.0395  0.2259
  356loPI   C4A 5690   5.365  17.254   8.410 -0.0878  0.0571 -0.0757
  356loPI   C5A 5691   5.647  17.238   8.093  0.0992 -0.1638 -0.2373
  356loPI   C6A 5692   5.803  17.576   7.843  0.1223 -0.0047 -0.0503
  356loPI   C1B 5693   5.038  16.828   9.294  0.0972 -0.2096  0.0203
  356loPI   C2B 5694   5.199  16.779   8.875  0.0683  0.0198  0.0009
  356loPI   C3B 5695   5.209  16.666   8.401 -0.0462 -0.0179 -0.0244
  356loPI   C4B 5696   5.134  16.829   8.000  0.2235 -0.1983  0.4701
  357loPI    C1 5697   6.221  11.542  10.806 -0.2260  0.0560  0.0924
  357loPI    C2 5698   6.069  11.293  11.080  0.0143  0.0865  0.2558
  357loPI    C3 5699   6.257  11.627  11.195  0.2972 -0.0029  0.0629
  357loPI   PO4 5700   6.219  11.409  10.561  0.0963 -0.1298 -0.2924
  357loPI   GL1 5701   5.968  11.359  10.266 -0.0496 -0.0211 -0.0464
  357loPI   GL2 5702   5.972  11.721  10.107 -0.1109 -0.2585  0.1450
  357loPI   C1A 5703   6.310  11.320   9.942  0.2743 -0.3137 -0.1160
  357loPI   C2A 5704   6.352  11.329   9.508  0.0070  0.2795 -0.0033
  357loPI   C3A 5705   6.291  11.413   9.112 -0.0608 -0.0432  0.0832
  357loPI   C4A 5706   6.385  11.473   8.720  0.1499  0.0586 -0.1896
  357loPI   C5A 5707   6.408  11.464   8.305 -0.0041  0.0613  0.0091
  357loPI   C6A 5708   6.263  11.485   7.928  0.1016  0.1102 -0.2399
  357loPI   C1B 5709   5.977  11.716   9.682 -0.1291 -0.1216 -0.1240
  357loPI   C2B 5710   5.929  11.708   9.172  0.2698  0.1411 -0.1386
  357loPI   C3B 5711   5.889  11.795   8.818  0.0266  0.1077  0.1492
  357loPI   C4B 5712   5.923  11.729   8.342 -0.1060 -0.1271  0.0324
  358loPI    C1 5713  17.718  15.723  10.793 -0.0484 -0.0334 -0.0631
  358loPI    C2 5714  17.649  15.879  11.155  0.0015 -0.1643  0.0032
  358loPI    C3 5715  17.907  15.575  11.113 -0.2497 -0.3674 -0.0936
  358loPI   PO4 5716  17.527  15.763  10.709 -0.1093  0.0021 -0.0459
  358loPI   GL1 5717  17.459  15.580  10.270  0.0874 -0.1310  0.2711
  358loPI   GL2 5718  17.494  15.298  10.071 -0.3515  0.4795 -0.1365
  358loPI   C1A 5719  17.506  15.795   9.872  0.2004  0.2925  0.0983
  358loPI   C2A 5720  17.521  15.788   9.365 -0.0701  0.2164 -0.0147
  358loPI   C3A 5721  17.580  15.871   8.973  0.1699  0.0608 -0.1898
  358loPI   C4A 5722  17.539  15.846   8.603  0.0887 -0.2005  0.5302
  358loPI   C5A 5723  17.626  16.068   8.246  0.1017  0.1761 -0.0742
  358loPI   C6A 5724  17.425  16.320   7.994 -0.2508  0.2023 -0.1623
  358loPI   C1B 5725  17.457  15.286   9.654  0.1639  0.0540 -0.0072
  358loPI   C2B 5726  17.505  15.290   9.282  0.1572 -0.2472 -0.1301
  358loPI   C3B 5727  17.498  15.379   8.920  0.1372  0.0921  0.0388
  358loPI   C4B 5728  17.473  15.322   8.493  0.2109  0.0639  0.2237
  359loPI    C1 5729  16.471   5.879  10.719  0.0918  0.1463  0.0897
  359loPI    C2 5730  16.315   5.767  11.071  0.2409  0.2105  0.1771
  359loPI    C3 5731  16.296   6.150  10.956  0.1778  0.1868  0.1073
  359loPI   PO4 5732  16.344   5.735  10.543  0.0155 -0.2972  0.0624
  359loPI   GL1 5733  16.539   5.528  10.242 -0.2749  0.0022  0.2326
  359loPI   GL2 5734  16.245   5.519  10.041  0.0199  0.0251  0.0570
  359loPI   C1A 5735  16.697   5.437   9.851  0.1826  0.0427 -0.0882
  359loPI   C2A 5736  16.872   5.487   9.482 -0.4158 -0.0798  0.0032
  359loPI   C3A 5737  16.877   5.447   9.168 -0.0738 -0.2971  0.1351
  359loPI   C4A 5738  16.896   5.571   8.743 -0.0162  0.0022 -0.2612
  359loPI   C5A 5739  16.955   5.605   8.278 -0.0272  0.0400 -0.0018
  359loPI   C6A 5740  16.944   5.524   7.902  0.0668  0.0141 -0.0458
  359loPI   C1B 5741  16.273   5.306   9.700 -0.4367 -0.0561  0.1424
  359loPI   C2B 5742  16.389   5.309   9.273  0.0916  0.2029  0.1192
  359loPI   C3B 5743  16.466   5.432   8.870  0.1048 -0.2204  0.0286
  359loPI   C4B 5744  16.428   5.409   8.431 -0.0845 -0.1500  0.1856
  360loPI    C1 5745   4.621   4.372  10.191  0.0542 -0.1487 -0.1359
  360loPI    C2 5746   4.807   4.111  10.430  0.0685  0.0738  0.1001
  360loPI    C3 5747   4.764   4.492  10.544  0.1504  0.2051 -0.2905
  360loPI   PO4 5748   4.584   4.198   9.885  0.1582 -0.0493 -0.0270
  360loPI   GL1 5749   4.746   4.063   9.482 -0.0043 -0.0560 -0.1621
  360loPI   GL2 5750   4.305   4.068   9.429  0.1040 -0.0073  0.0157
  360loPI   C1A 5751   4.663   4.009   8.955  0.1608 -0.0508 -0.1919
  360loPI   C2A 5752   4.773   4.035   8.509  0.2579  0.1768  0.3499
  360loPI   C3A 5753   4.910   3.962   8.076  0.3234  0.0735 -0.0487
  360loPI   C4A 5754   5.293   4.051   7.891  0.1148  0.1184 -0.2209
  360loPI   C5A 5755   5.517   4.287   7.826 -0.1435 -0.0436 -0.1394
  360loPI   C6A 5756   5.801   4.411   7.554  0.1802  0.0369 -0.1106
  360loPI   C1B 5757   4.223   4.262   9.074  0.2090 -0.4199 -0.0147
  360loPI   C2B 5758   3.919   4.396   8.873 -0.0800  0.0951 -0.0574
  360loPI   C3B 5759   3.605   4.411   8.605 -0.1189 -0.0659 -0.1266
  360loPI   C4B 5760   3.418   4.141   8.261  0.0600 -0.0817 -0.0142
  361loPI    C1 5761  14.724   0.377  10.669  0.2915  0.0879  0.0594
  361loPI    C2 5762  15.023   0.198  10.473  0.0762 -0.1046 -0.0996
  361loPI    C3 5763  14.850   0.015  10.783  0.2067  0.0631  0.0749
  361loPI   PO4 5764  14.517   0.571  10.384 -0.0341  0.0830  0.0881
  361loPI   GL1 5765  14.798   0.729  10.051  0.2379 -0.2994  0.0495
  361loPI   GL2 5766  14.907   0.447  10.060  0.0240  0.0372  0.3914
  361loPI   C1A 5767  14.953   1.072   9.749 -0.0299  0.0435  0.0606
  361loPI   C2A 5768  15.038   1.076   9.254  0.1215 -0.2796  0.0146
  361loPI   C3A 5769  15.105   1.132   8.874 -0.2854  0.1342 -0.0986
  361loPI   C4A 5770  15.054   1.146   8.500 -0.2866  0.2136 -0.1022
  361loPI   C5A 5771  15.036   0.904   8.189  0.1234  0.0884  0.0434
  361loPI   C6A 5772  14.739   0.784   7.816  0.0247  0.1134  0.3397
  361loPI   C1B 5773  14.922   0.527   9.612  0.2255 -0.0238  0.1326
  361loPI   C2B 5774  14.954   0.541   9.129 -0.3578 -0.2486  0.0344
  361loPI   C3B 5775  14.782   0.533   8.715 -0.4239  0.3382 -0.1668
  361loPI   C4B 5776  14.859   0.414   8.373 -0.0941  0.2394  0.1750
  362loPI    C1 5777  12.391  10.778  10.860 -0.3347  0.2056 -0.3254
  362loPI    C2 5778  12.177  11.062  11.042 -0.2816  0.0522 -0.0171
  362loPI    C3 5779  12.221  10.704  11.214  0.2238  0.0805 -0.0721
  362loPI   PO4 5780  12.547  10.989  10.662 -0.3467  0.1366 -0.0109
  362loPI   GL1 5781  12.612  11.010  10.227  0.0094  0.0510 -0.3722
  362loPI   GL2 5782  12.264  11.225  10.224  0.3069 -0.1677  0.5335
  362loPI   C1A 5783  12.800  11.277  10.034  0.1085 -0.0074  0.0885
  362loPI   C2A 5784  13.079  11.403   9.730  0.0002  0.1322  0.0004
  362loPI   C3A 5785  13.103  11.393   9.276 -0.0583 -0.0732 -0.2831
  362loPI   C4A 5786  12.983  11.369   8.900  0.0509  0.1236 -0.2499
  362loPI   C5A 5787  12.964  11.481   8.458  0.1899  0.1073 -0.0636
  362loPI   C6A 5788  12.768  11.882   8.295 -0.1261 -0.0568 -0.2672
  362loPI   C1B 5789  12.362  11.163   9.727 -0.1216 -0.1542  0.1791
  362loPI   C2B 5790  12.689  10.998   9.571 -0.1097 -0.0580  0.1448
  362loPI   C3B 5791  12.828  10.970   9.151 -0.0588 -0.1574  0.1541
  362loPI   C4B 5792  12.894  10.697   8.755  0.2570  0.2088  0.3857
  363loPI    C1 5793   7.419   6.342  10.059 -0.1491  0.0325  0.1825
  363loPI    C2 5794   7.714   6.288  10.323  0.0156 -0.0622 -0.0180
  363loPI    C3 5795   7.374   6.079  10.358  0.1334 -0.2574 -0.0237
  363loPI   PO4 5796   7.478   6.650  10.089 -0.1754  0.1186 -0.2690
  363loPI   GL1 5797   7.543   6.897   9.645 -0.0086  0.0274 -0.0631
  363loPI   GL2 5798   7.402   6.585   9.613  0.2117 -0.1204  0.0334
  363loPI   C1A 5799   7.616   6.818   9.198  0.1671 -0.0998 -0.2849
  363loPI   C2A 5800   7.536   6.719   8.827 -0.1717 -0.2488 -0.2711
  363loPI   C3A 5801   7.438   6.493   8.450 -0.2417 -0.0243 -0.3504
  363loPI   C4A 5802   7.191   6.472   8.135  0.1840  0.0774  0.1142
  363loPI   C5A 5803   7.002   6.431   7.658  0.1943  0.1211 -0.1442
  363loPI   C6A 5804   7.057   6.627   7.325 -0.1225 -0.0765  0.0532
  363loPI   C1B 5805   7.305   6.400   9.186 -0.1761 -0.0907  0.1390
  363loPI   C2B 5806   7.129   6.433   8.845  0.1557 -0.0358 -0.0090
  363loPI   C3B 5807   7.034   6.125   8.465  0.0256 -0.0918 -0.0027
  363loPI   C4B 5808   7.156   6.011   8.066  0.0312 -0.1031  0.0790
  364loPI    C1 5809   1.729  16.711  11.082 -0.0393  0.0359  0.0031
  364loPI    C2 5810   2.111  16.771  11.184 -0.0338 -0.0026  0.0054
  364loPI    C3 5811   1.832  16.729  11.468 -0.0534  0.1111  0.0032
  364loPI   PO4 5812   1.698  16.415  10.867 -0.1723 -0.4390  0.3892
  364loPI   GL1 5813   1.796  16.186  10.518  0.0481  0.0116  0.1812
  364loPI   GL2 5814   2.137  15.945  10.581 -0.1528  0.0000  0.0268
  364loPI   C1A 5815   1.888  16.184  10.134 -0.2507  0.1583  0.2312
  364loPI   C2A 5816   1.743  16.209   9.831  0.2007  0.0427  0.1547
  364loPI   C3A 5817   1.787  16.126   9.408 -0.0402  0.4699  0.2947
  364loPI   C4A 5818   1.710  16.251   9.022 -0.1463 -0.2369  0.2368
  364loPI   C5A 5819   1.888  16.350   8.595 -0.1180  0.1905 -0.1807
  364loPI   C6A 5820   2.056  16.273   8.141 -0.1970 -0.2543 -0.3545
  364loPI   C1B 5821   2.213  15.823  10.164 -0.2185  0.0129 -0.0979
  364loPI   C2B 5822   2.176  15.777   9.841  0.2407 -0.2328  0.0906
  364loPI   C3B 5823   2.146  15.774   9.380 -0.3203 -0.1643  0.1714
  364loPI   C4B 5824   2.077  15.851   9.032 -0.0556 -0.0790 -0.1655
  365loPI    C1 5825   5.388  16.677  10.683  0.0114 -0.0552  0.1604
  365loPI    C2 5826   5.524  16.507  11.019  0.0647 -0.2410  0.0465
  365loPI    C3 5827   5.316  16.849  11.037 -0.0237 -0.3052  0.2766
  365loPI   PO4 5828   5.294  16.459  10.507  0.1817  0.4396 -0.0415
  365loPI   GL1 5829   5.468  16.014  10.267 -0.1987  0.1200 -0.1747
  365loPI   GL2 5830   5.087  16.041  10.317 -0.1664  0.1723  0.1229
  365loPI   C1A 5831   5.688  16.090   9.864  0.3074 -0.0719  0.1051
  365loPI   C2A 5832   5.874  15.959   9.536 -0.1889 -0.1573  0.0003
  365loPI   C3A 5833   5.868  16.150   9.092  0.3996 -0.0648 -0.0918
  365loPI   C4A 5834   5.921  16.079   8.696 -0.0281 -0.1907  0.1606
  365loPI   C5A 5835   5.961  16.025   8.202  0.1064  0.0974  0.1711
  365loPI   C6A 5836   5.892  16.259   7.849 -0.2684 -0.1909 -0.0227
  365loPI   C1B 5837   4.907  15.855   9.961  0.4188 -0.0222 -0.0425
  365loPI   C2B 5838   4.827  15.831   9.475  0.0255  0.2280  0.1937
  365loPI   C3B 5839   4.924  15.783   8.985  0.2135 -0.0129  0.0690
  365loPI   C4B 5840   4.937  15.861   8.567  0.2187  0.1608  0.0317
  366loPI    C1 5841  15.116  15.828  10.856  0.0093  0.0498 -0.1990
  366loPI    C2 5842  14.790  15.901  11.077  0.0740 -0.1587 -0.0312
  366loPI    C3 5843  15.151  15.889  11.250  0.1617 -0.0213 -0.2005
  366loPI   PO4 5844  15.034  16.035  10.627 -0.0385  0.2837 -0.1660
  366loPI   GL1 5845  15.153  16.175  10.332  0.4017 -0.0185 -0.0083
  366loPI   GL2 5846  15.060  16.467  10.322 -0.2413  0.1127  0.0634
  366loPI   C1A 5847  15.261  15.964  10.014 -0.1647  0.2898 -0.0548
  366loPI   C2A 5848  15.332  15.916   9.445  0.0429 -0.3954 -0.2571
  366loPI   C3A 5849  15.328  15.953   8.999 -0.3672 -0.2879 -0.2928
  366loPI   C4A 5850  15.209  16.017   8.438  0.6582  0.0006  0.0071
  366loPI   C5A 5851  15.044  15.770   8.102 -0.1150 -0.3277  0.0417
  366loPI   C6A 5852  14.919  15.756   7.608  0.2010 -0.2673 -0.2586
  366loPI   C1B 5853  14.798  16.396   9.968 -0.1541  0.2293 -0.1453
  366loPI   C2B 5854  14.794  16.339   9.568 -0.1376 -0.1329 -0.0739
  366loPI   C3B 5855  14.915  16.291   9.112 -0.0792 -0.1057 -0.1436
  366loPI   C4B 5856  14.902  16.431   8.714  0.1565 -0.1536 -0.0096
  367loPI    C1 5857  17.168  17.915  10.671 -0.0346 -0.0126 -0.2261
  367loPI    C2 5858  17.066  18.044  11.035 -0.4143 -0.1292 -0.2867
  367loPI    C3 5859  17.302  17.723  10.995 -0.1721  0.0276 -0.1447
  367loPI   PO4 5860  16.955  17.962  10.468  0.2824  0.0172 -0.3631
  367loPI   GL1 5861  16.964  17.976  10.091 -0.2600  0.0839 -0.2761
  367loPI   GL2 5862  16.648  17.880   9.941  0.1253 -0.2244 -0.0403
  367loPI   C1A 5863  17.040  18.123   9.732  0.3105 -0.1849 -0.0291
  367loPI   C2A 5864  17.176  18.170   9.367  0.3335  0.0662 -0.0675
  367loPI   C3A 5865  17.101  18.080   8.907  0.4133 -0.1078  0.0173
  367loPI   C4A 5866  17.192  18.072   8.496 -0.1616 -0.1885  0.1905
  367loPI   C5A 5867  17.217  18.366   8.045 -0.2305  0.1134 -0.0451
  367loPI   C6A 5868  17.039  18.394   7.597 -0.0600  0.1856 -0.3036
  367loPI   C1B 5869  16.636  17.973   9.462  0.2994 -0.0719  0.0633
  367loPI   C2B 5870  16.624  17.964   9.011  0.0732 -0.0434  0.1999
  367loPI   C3B 5871  16.753  17.917   8.577 -0.0286  0.1361  0.1155
  367loPI   C4B 5872  16.499  17.727   8.243  0.2304  0.0558  0.1509
  368loPI    C1 5873   6.093  12.549  10.794  0.0165 -0.0591  0.0757
  368loPI    C2 5874   5.759  12.735  10.912  0.0218  0.0430 -0.0667
  368loPI    C3 5875   5.946  12.482  11.160 -0.0900  0.0831  0.0599
  368loPI   PO4 5876   6.014  12.547  10.502  0.3447  0.2227  0.1419
  368loPI   GL1 5877   5.762  12.500  10.176  0.1592  0.0928 -0.1923
  368loPI   GL2 5878   5.664  12.119  10.239 -0.1952 -0.1133  0.1623
  368loPI   C1A 5879   5.565  12.611   9.801  0.0459  0.3224 -0.0318
  368loPI   C2A 5880   5.542  12.597   9.291 -0.3746 -0.2585  0.1453
  368loPI   C3A 5881   5.592  12.670   8.791  0.1118 -0.1690 -0.1169
  368loPI   C4A 5882   5.825  12.615   8.459 -0.0964  0.1170  0.2329
  368loPI   C5A 5883   6.131  12.347   8.292 -0.3665 -0.0671  0.1777
  368loPI   C6A 5884   6.342  11.959   8.028  0.2083  0.0892  0.2057
  368loPI   C1B 5885   5.580  12.015   9.783  0.0897 -0.1365 -0.6292
  368loPI   C2B 5886   5.489  12.053   9.414 -0.1388  0.3090 -0.0394
  368loPI   C3B 5887   5.543  12.145   8.987  0.0662 -0.1034 -0.0739
  368loPI   C4B 5888   5.506  12.129   8.595  0.0306  0.0775  0.2886
  369loPI    C1 5889   6.678   2.312  10.388 -0.2807 -0.1963 -0.1615
  369loPI    C2 5890   6.853   2.009  10.581  0.1057  0.1275  0.0130
  369loPI    C3 5891   6.890   2.382  10.720 -0.2507  0.2753 -0.2724
  369loPI   PO4 5892   6.739   2.268  10.120  0.0664  0.1365  0.4125
  369loPI   GL1 5893   6.767   2.123   9.708  0.2547  0.0457  0.0156
  369loPI   GL2 5894   6.461   2.357   9.668  0.1963 -0.0221 -0.0478
  369loPI   C1A 5895   7.026   1.986   9.383 -0.0396 -0.0747 -0.0724
  369loPI   C2A 5896   7.016   1.982   9.052  0.1237  0.3592 -0.2563
  369loPI   C3A 5897   7.038   1.884   8.611  0.0056 -0.1429  0.0216
  369loPI   C4A 5898   6.815   1.732   8.212 -0.0371  0.0042  0.0279
  369loPI   C5A 5899   6.630   1.438   7.968  0.1630  0.0575 -0.0178
  369loPI   C6A 5900   6.249   1.192   8.064  0.1216  0.3017  0.1463
  369loPI   C1B 5901   6.333   2.453   9.260 -0.1026  0.1610 -0.0409
  369loPI   C2B 5902   6.326   2.387   8.889 -0.1138 -0.3461  0.0499
  369loPI   C3B 5903   6.394   2.626   8.486 -0.0015  0.0332 -0.0276
  369loPI   C4B 5904   6.419   2.693   8.078 -0.0555  0.0275 -0.0514
  370loPI    C1 5905   4.180   3.555  10.363  0.0846 -0.0557 -0.0321
  370loPI    C2 5906   4.407   3.874  10.282 -0.1831  0.1858  0.1491
  370loPI    C3 5907   4.476   3.659  10.611 -0.1426  0.1886  0.1425
  370loPI   PO4 5908   4.054   3.511  10.222  0.2244 -0.2044  0.0262
  370loPI   GL1 5909   3.919   3.416   9.889  0.2427  0.0844  0.0422
  370loPI   GL2 5910   3.980   3.624   9.677  0.0807 -0.1850  0.2559
  370loPI   C1A 5911   3.658   3.147   9.618 -0.2746  0.0113  0.0358
  370loPI   C2A 5912   3.585   3.233   9.243  0.2068 -0.1589 -0.1673
  370loPI   C3A 5913   3.500   3.181   8.900  0.0868  0.1655 -0.0178
  370loPI   C4A 5914   3.555   3.190   8.537  0.0268  0.2718  0.1750
  370loPI   C5A 5915   3.756   3.219   8.111  0.2193  0.1351  0.3423
  370loPI   C6A 5916   4.099   3.108   7.841 -0.2580  0.0860  0.2296
  370loPI   C1B 5917   3.906   3.648   9.294  0.2575 -0.0310  0.1993
  370loPI   C2B 5918   3.807   3.527   8.882  0.0616  0.1163 -0.0680
  370loPI   C3B 5919   3.745   3.725   8.500  0.0835  0.0893 -0.0288
  370loPI   C4B 5920   3.952   3.720   8.226  0.2591  0.1491 -0.2128
  371loPI    C1 5921  14.801  12.044  11.194 -0.0249 -0.2740  0.0359
  371loPI    C2 5922  14.694  12.251  11.519 -0.2159  0.0681 -0.2390
  371loPI    C3 5923  14.959  11.953  11.551 -0.2768  0.0568  0.2373
  371loPI   PO4 5924  14.863  12.151  11.065  0.0982  0.1356 -0.2132
  371loPI   GL1 5925  15.058  12.139  10.624 -0.0095  0.0988 -0.1789
  371loPI   GL2 5926  15.351  12.218  10.601  0.0814  0.0967 -0.0799
  371loPI   C1A 5927  14.954  11.973  10.278  0.2750 -0.1724  0.3973
  371loPI   C2A 5928  14.990  12.111   9.932  0.3730  0.0729  0.2683
  371loPI   C3A 5929  15.093  12.058   9.549  0.0794 -0.0140 -0.2068
  371loPI   C4A 5930  15.068  12.076   9.094  0.2884 -0.1882 -0.1330
  371loPI   C5A 5931  14.918  12.063   8.642 -0.2017  0.0029 -0.0680
  371loPI   C6A 5932  14.687  12.111   8.312  0.2258 -0.0825  0.0875
  371loPI   C1B 5933  15.482  12.160  10.143  0.2072  0.0830 -0.0196
  371loPI   C2B 5934  15.537  12.232   9.785 -0.0584 -0.0928 -0.0065
  371loPI   C3B 5935  15.577  12.170   9.361  0.0046  0.1784  0.2631
  371loPI   C4B 5936  15.514  12.205   8.925 -0.3242  0.1948 -0.1544
  372loPI    C1 5937   4.785  11.790  10.886 -0.0064  0.0025  0.1250
  372loPI    C2 5938   5.165  11.834  11.000 -0.0269  0.2733  0.0940
  372loPI    C3 5939   4.872  11.847  11.272 -0.0146  0.0560  0.1190
  372loPI   PO4 5940   4.828  11.790  10.587 -0.1355  0.1880 -0.0689
  372loPI   GL1 5941   4.521  11.769  10.238  0.0286 -0.5363  0.4910
  372loPI   GL2 5942   4.657  11.671  10.016  0.1402  0.2325 -0.0702
  372loPI   C1A 5943   4.232  11.954  10.042  0.2750 -0.0466 -0.2435
  372loPI   C2A 5944   4.249  12.100   9.601 -0.2593 -0.2227  0.3295
  372loPI   C3A 5945   4.170  12.105   9.157 -0.0936 -0.1881  0.0111
  372loPI   C4A 5946   4.165  12.256   8.747  0.1026  0.2738 -0.0994
  372loPI   C5A 5947   3.956  12.404   8.401  0.0357 -0.1073  0.1660
  372loPI   C6A 5948   3.685  12.538   8.072  0.1644  0.2396  0.2313
  372loPI   C1B 5949   4.595  11.685   9.554 -0.0080  0.0968 -0.1819
  372loPI   C2B 5950   4.559  11.714   9.082  0.1103 -0.0503  0.3411
  372loPI   C3B 5951   4.507  11.743   8.565  0.0434 -0.1583 -0.0617
  372loPI   C4B 5952   4.846  11.510   8.271 -0.0634 -0.1911 -0.1488
  373loPI    C1 5953  13.389   9.882  10.942 -0.2598  0.1655 -0.0552
  373loPI    C2 5954  13.035   9.796  11.107 -0.0928 -0.2402  0.1066
  373loPI    C3 5955  13.304  10.010  11.312  0.0381 -0.5731  0.2897
  373loPI   PO4 5956  13.300   9.967  10.696  0.1888  0.0299 -0.1407
  373loPI   GL1 5957  13.389  10.016  10.242 -0.2051 -0.3054  0.0405
  373loPI   GL2 5958  13.443  10.388  10.173  0.2561  0.4245  0.1959
  373loPI   C1A 5959  13.458   9.826   9.857  0.3713 -0.2542  0.2570
  373loPI   C2A 5960  13.586   9.807   9.490 -0.0495 -0.2231 -0.2367
  373loPI   C3A 5961  13.665   9.749   9.066  0.0480 -0.0009 -0.0413
  373loPI   C4A 5962  13.760   9.754   8.729  0.0678 -0.2922 -0.1246
  373loPI   C5A 5963  14.010   9.875   8.301 -0.0158 -0.1292  0.1095
  373loPI   C6A 5964  13.881  10.144   7.987 -0.2034  0.2568 -0.1979
  373loPI   C1B 5965  13.655  10.326   9.789 -0.0687 -0.0037  0.2700
  373loPI   C2B 5966  13.701  10.325   9.337 -0.1215  0.0022  0.1753
  373loPI   C3B 5967  13.770  10.186   8.949  0.1953 -0.1762 -0.0249
  373loPI   C4B 5968  13.813  10.295   8.538  0.0103 -0.0743  0.0538
  374loPI    C1 5969   2.577  11.467  11.140 -0.1122 -0.0873 -0.1459
  374loPI    C2 5970   2.841  11.176  11.066  0.1680  0.0664  0.2178
  374loPI    C3 5971   2.460  11.084  11.142  0.1354 -0.1657 -0.1923
  374loPI   PO4 5972   2.601  11.597  10.930  0.2677 -0.2925 -0.0392
  374loPI   GL1 5973   2.356  11.731  10.464  0.1439 -0.2638 -0.1802
  374loPI   GL2 5974   2.361  12.010  10.356  0.0460 -0.0107  0.3631
  374loPI   C1A 5975   2.241  11.429  10.127 -0.0254 -0.0218  0.1097
  374loPI   C2A 5976   2.165  11.339   9.745  0.0539 -0.1182 -0.1245
  374loPI   C3A 5977   2.148  11.490   9.310  0.0225  0.2171 -0.3497
  374loPI   C4A 5978   2.171  11.388   8.869 -0.1252 -0.1819 -0.1253
  374loPI   C5A 5979   1.861  11.296   8.432 -0.1621  0.0985  0.2877
  374loPI   C6A 5980   1.865  11.201   7.997  0.1807  0.2712 -0.0502
  374loPI   C1B 5981   2.321  11.975   9.929  0.1287 -0.0770 -0.2953
  374loPI   C2B 5982   2.234  12.124   9.623  0.2225  0.0699 -0.0274
  374loPI   C3B 5983   2.316  12.069   9.319  0.0450 -0.0870 -0.0082
  374loPI   C4B 5984   2.235  11.926   8.842 -0.1131 -0.1766 -0.1024
  375loPI    C1 5985   8.165  12.163  10.925  0.1571 -0.2650 -0.0802
  375loPI    C2 5986   7.955  11.927  11.169  0.1836 -0.2134 -0.0071
  375loPI    C3 5987   8.354  11.938  11.196  0.1697 -0.0009  0.1348
  375loPI   PO4 5988   7.963  12.085  10.657  0.2625  0.0004  0.1322
  375loPI   GL1 5989   7.907  12.260  10.427 -0.0137 -0.3645  0.1516
  375loPI   GL2 5990   7.578  12.259  10.315  0.2241  0.2631  0.0541
  375loPI   C1A 5991   8.018  12.250   9.999  0.0198 -0.3377  0.2396
  375loPI   C2A 5992   8.001  12.314   9.570  0.0778 -0.0106  0.1922
  375loPI   C3A 5993   7.868  12.334   9.121  0.0208  0.2373 -0.1129
  375loPI   C4A 5994   7.883  12.280   8.658  0.3542 -0.2011 -0.2279
  375loPI   C5A 5995   7.714  12.442   8.296 -0.0089 -0.1323  0.2361
  375loPI   C6A 5996   7.505  12.656   8.033  0.1093 -0.3057 -0.0042
  375loPI   C1B 5997   7.493  12.106   9.892  0.3744  0.0051  0.0627
  375loPI   C2B 5998   7.483  12.180   9.517  0.2240  0.0657 -0.0369
  375loPI   C3B 5999   7.353  12.168   9.158  0.2695 -0.2157  0.0241
  375loPI   C4B 6000   7.389  12.181   8.744 -0.1053  0.2445  0.0595
  376loPI    C1 6001  14.102  10.878  11.423  0.0285 -0.0978  0.0040
  376loPI    C2 6002  14.107  10.688  11.775  0.0665  0.0797  0.1006
  376loPI    C3 6003  13.798  10.640  11.526  0.1205 -0.1832  0.0811
  376loPI   PO4 6004  14.332  10.861  11.292 -0.2566  0.2274  0.4475
  376loPI   GL1 6005  14.432  10.912  10.826  0.3527 -0.0633  0.2542
  376loPI   GL2 6006  14.646  10.723  10.658  0.0482  0.2147 -0.0740
  376loPI   C1A 6007  14.235  10.826  10.334 -0.0736 -0.2923  0.2934
  376loPI   C2A 6008  14.191  10.878   9.861 -0.0810 -0.0677  0.2731
  376loPI   C3A 6009  14.374  10.844   9.387  0.1034 -0.1811  0.0901
  376loPI   C4A 6010  14.347  10.893   9.011  0.2422  0.0908 -0.0306
  376loPI   C5A 6011  14.305  10.972   8.716  0.1922 -0.2531 -0.1111
  376loPI   C6A 6012  13.958  11.231   8.784 -0.2334  0.1978  0.1255
  376loPI   C1B 6013  14.980  10.712  10.370 -0.1497  0.0667  0.0043
  376loPI   C2B 6014  15.106  10.744   9.960  0.3478 -0.1899 -0.1629
  376loPI   C3B 6015  15.276  10.802   9.578 -0.1180 -0.1532 -0.4365
  376loPI   C4B 6016  15.262  10.839   9.143 -0.1130  0.0514  0.0877
  377loPI    C1 6017   6.900   5.839  10.578 -0.0317 -0.0958 -0.0589
  377loPI    C2 6018   6.879   6.189  10.770  0.0065 -0.0252 -0.1822
  377loPI    C3 6019   7.194   5.948  10.826 -0.1895 -0.2064  0.1813
  377loPI   PO4 6020   6.930   5.917  10.286  0.2186 -0.2183 -0.0586
  377loPI   GL1 6021   6.780   6.140   9.910 -0.0140  0.2841 -0.1180
  377loPI   GL2 6022   7.012   6.231   9.675 -0.0419  0.2185  0.3014
  377loPI   C1A 6023   6.658   5.925   9.542  0.1887  0.2331 -0.0620
  377loPI   C2A 6024   6.344   6.171   9.279 -0.0585 -0.0085 -0.1812
  377loPI   C3A 6025   6.012   6.143   9.013 -0.0283 -0.1494  0.0977
  377loPI   C4A 6026   5.720   6.402   8.731  0.1704 -0.2368 -0.0839
  377loPI   C5A 6027   5.559   6.495   8.348 -0.1534  0.1424 -0.1162
  377loPI   C6A 6028   5.740   6.634   8.009 -0.0928 -0.0757  0.0722
  377loPI   C1B 6029   6.866   6.198   9.161  0.1742  0.5362 -0.0234
  377loPI   C2B 6030   6.641   6.078   8.826  0.0107 -0.0512 -0.0963
  377loPI   C3B 6031   6.277   6.256   8.506 -0.1715 -0.1151  0.3936
  377loPI   C4B 6032   6.188   6.546   8.125  0.0863 -0.1323 -0.0360
  378loPI    C1 6033   0.736  13.405  11.138  0.0214  0.1330  0.2406
  378loPI    C2 6034   0.727  13.067  11.353 -0.1431 -0.1227 -0.1567
  378loPI    C3 6035   0.478  13.368  11.442 -0.0213 -0.1158  0.1759
  378loPI   PO4 6036   0.713  13.235  10.862 -0.2957 -0.1221  0.0892
  378loPI   GL1 6037   0.564  13.119  10.535  0.1568 -0.5659  0.1655
  378loPI   GL2 6038   0.491  13.448  10.407 -0.0305 -0.2438  0.1303
  378loPI   C1A 6039   0.580  12.854  10.207  0.0499  0.4029 -0.3403
  378loPI   C2A 6040   0.644  12.830   9.718 -0.0469  0.0853 -0.0909
  378loPI   C3A 6041   0.586  12.865   9.374  0.0422  0.3512 -0.0816
  378loPI   C4A 6042   0.622  12.818   8.931  0.3612 -0.1573  0.2549
  378loPI   C5A 6043   0.523  12.828   8.489  0.1113 -0.2631 -0.0404
  378loPI   C6A 6044   0.691  13.127   8.170 -0.2111 -0.3113  0.0678
  378loPI   C1B 6045   0.706  13.333   9.987 -0.1023 -0.1653  0.2151
  378loPI   C2B 6046   0.724  13.344   9.543  0.0479  0.0824 -0.3315
  378loPI   C3B 6047   0.707  13.451   9.108 -0.1418 -0.1229  0.4047
  378loPI   C4B 6048   0.670  13.345   8.673 -0.1782  0.2350 -0.2188
  379loPI    C1 6049  12.814  14.825  11.139  0.1291 -0.2583  0.0011
  379loPI    C2 6050  12.801  14.447  11.010  0.0237 -0.3144  0.1726
  379loPI    C3 6051  12.551  14.569  11.298 -0.2793  0.0142 -0.2181
  379loPI   PO4 6052  12.899  14.950  10.966 -0.4703 -0.1758  0.0704
  379loPI   GL1 6053  12.988  14.940  10.594 -0.0724 -0.2597 -0.1495
  379loPI   GL2 6054  13.178  14.937  10.328 -0.2483 -0.0393  0.0053
  379loPI   C1A 6055  12.676  14.865  10.260 -0.1328 -0.1182 -0.0335
  379loPI   C2A 6056  12.527  14.681   9.856  0.0524 -0.0499 -0.1254
  379loPI   C3A 6057  12.729  14.631   9.436  0.0793 -0.3037  0.1704
  379loPI   C4A 6058  12.601  14.751   9.074 -0.1013 -0.2881  0.2092
  379loPI   C5A 6059  12.713  14.783   8.557  0.1802 -0.0675 -0.2603
  379loPI   C6A 6060  12.686  14.851   8.058 -0.0933  0.1105 -0.0665
  379loPI   C1B 6061  13.180  14.873   9.856  0.2833  0.0331 -0.0345
  379loPI   C2B 6062  13.180  14.816   9.356  0.1647  0.0214 -0.1827
  379loPI   C3B 6063  13.174  14.699   8.897 -0.1383  0.1150  0.1756
  379loPI   C4B 6064  13.208  14.446   8.598 -0.1707  0.1139  0.2493
  380loPI    C1 6065   2.291   5.511  11.038  0.2457  0.0688  0.0902
  380loPI    C2 6066   2.022   5.268  11.207  0.2563  0.0423  0.0691
  380loPI    C3 6067   2.141   5.599  11.398  0.1963  0.0630  0.0710
  380loPI   PO4 6068   2.287   5.555  10.678 -0.2607  0.1963 -0.1678
  380loPI   GL1 6069   1.999   5.519  10.377 -0.1200  0.1146  0.0972
  380loPI   GL2 6070   1.629   5.719  10.252 -0.0690 -0.0874 -0.1986
  380loPI   C1A 6071   1.976   5.529   9.882  0.0505 -0.2218  0.0923
  380loPI   C2A 6072   2.158   5.711   9.547  0.0143 -0.0633 -0.1421
  380loPI   C3A 6073   1.903   5.578   9.209  0.3404  0.0027 -0.0479
  380loPI   C4A 6074   1.780   5.619   8.848  0.2732  0.0418  0.1920
  380loPI   C5A 6075   1.744   5.764   8.400 -0.1345 -0.1064  0.1661
  380loPI   C6A 6076   1.357   5.835   8.076 -0.1932 -0.1813  0.1013
  380loPI   C1B 6077   1.471   5.937   9.818  0.2314  0.1504 -0.0186
  380loPI   C2B 6078   1.472   6.034   9.440 -0.0837  0.1391 -0.2838
  380loPI   C3B 6079   1.513   6.011   8.984  0.2726 -0.1593  0.0558
  380loPI   C4B 6080   1.386   6.123   8.631  0.1527  0.4149  0.1023
  381loPI    C1 6081  17.235   4.226  10.925  0.0516 -0.1301  0.1016
  381loPI    C2 6082  16.894   4.335  11.104  0.1254 -0.0618  0.2016
  381loPI    C3 6083  17.201   4.591  11.085  0.1149 -0.0641 -0.0340
  381loPI   PO4 6084  17.163   4.123  10.655  0.3331  0.0469  0.2599
  381loPI   GL1 6085  17.358   3.829  10.406 -0.1511 -0.5980  0.0684
  381loPI   GL2 6086  17.044   3.812  10.316 -0.3052  0.1182  0.0819
  381loPI   C1A 6087  17.471   3.675  10.079  0.2281  0.2301  0.1969
  381loPI   C2A 6088  17.307   3.697   9.653 -0.0213  0.4696  0.0705
  381loPI   C3A 6089  17.332   3.834   9.249  0.0369  0.1949  0.0256
  381loPI   C4A 6090  17.348   3.813   8.820 -0.2143 -0.1164  0.1054
  381loPI   C5A 6091  17.417   3.926   8.323 -0.0350  0.0208 -0.1909
  381loPI   C6A 6092  17.465   3.602   8.079 -0.1354 -0.2185 -0.0485
  381loPI   C1B 6093  16.927   4.011   9.867 -0.2703 -0.0351 -0.0579
  381loPI   C2B 6094  16.912   4.133   9.467 -0.1365 -0.2369  0.1705
  381loPI   C3B 6095  17.009   4.182   9.025  0.2449  0.0650  0.0914
  381loPI   C4B 6096  16.939   4.168   8.588  0.0927  0.0206 -0.1931
  382loPI    C1 6097   7.127   3.338  10.551  0.0213 -0.1804 -0.0495
  382loPI    C2 6098   6.741   3.318  10.654 -0.0553 -0.0985 -0.3139
  382loPI    C3 6099   6.914   3.674  10.593  0.0677 -0.1342 -0.1779
  382loPI   PO4 6100   7.120   3.119  10.337  0.0643  0.4569  0.2759
  382loPI   GL1 6101   7.050   3.219   9.855 -0.0252 -0.1680  0.1679
  382loPI   GL2 6102   6.941   3.265   9.629  0.2336 -0.1170 -0.1293
  382loPI   C1A 6103   7.350   2.981   9.556 -0.3068  0.0399  0.2063
  382loPI   C2A 6104   7.332   2.760   9.190  0.0245 -0.0918  0.1894
  382loPI   C3A 6105   7.306   2.865   8.758  0.1240  0.1679  0.0146
  382loPI   C4A 6106   7.143   3.082   8.442 -0.2350  0.1060  0.3167
  382loPI   C5A 6107   7.036   3.117   8.042 -0.2640 -0.2440 -0.3106
  382loPI   C6A 6108   6.774   3.493   7.791 -0.1720 -0.1323 -0.1170
  382loPI   C1B 6109   6.875   3.012   9.195 -0.4174 -0.1496  0.2058
  382loPI   C2B 6110   6.742   2.908   8.702  0.0335  0.0401 -0.1435
  382loPI   C3B 6111   6.552   3.120   8.337  0.1500 -0.4146 -0.1362
  382loPI   C4B 6112   6.376   3.333   8.072  0.0531  0.0635  0.1563
  383loPI    C1 6113   7.647   7.427  10.319 -0.1765 -0.2920 -0.0020
  383loPI    C2 6114   7.432   7.437  10.656 -0.0262 -0.0491  0.0897
  383loPI    C3 6115   7.808   7.301  10.663  0.0161  0.0639  0.0439
  383loPI   PO4 6116   7.548   7.564  10.079  0.0823 -0.2361  0.1609
  383loPI   GL1 6117   7.226   7.570   9.811 -0.2572  0.2002  0.0341
  383loPI   GL2 6118   7.413   7.359   9.648 -0.1543  0.3714 -0.2396
  383loPI   C1A 6119   6.978   7.959   9.598 -0.0663  0.0773 -0.0397
  383loPI   C2A 6120   6.802   8.094   9.154 -0.2076  0.0785 -0.1305
  383loPI   C3A 6121   6.845   7.860   8.718  0.2254 -0.1152  0.2185
  383loPI   C4A 6122   6.984   7.813   8.256 -0.0031 -0.1782  0.3129
  383loPI   C5A 6123   7.173   7.813   7.855 -0.2636  0.3476 -0.2078
  383loPI   C6A 6124   7.282   7.532   7.479  0.0520  0.0248 -0.2071
  383loPI   C1B 6125   7.460   7.418   9.290  0.1947  0.0554  0.1056
  383loPI   C2B 6126   7.388   7.467   8.836 -0.2978 -0.0777 -0.2283
  383loPI   C3B 6127   7.516   7.211   8.558 -0.0364 -0.2253 -0.0914
  383loPI   C4B 6128   7.573   6.930   8.231 -0.0716  0.0309  0.3581
  384loPI    C1 6129   2.699   0.603  10.660 -0.0539 -0.0408  0.0527
  384loPI    C2 6130   2.503   0.434  10.965 -0.1297  0.1147  0.0909
  384loPI    C3 6131   2.858   0.606  11.026 -0.1502  0.1562  0.0940
  384loPI   PO4 6132   2.695   0.433  10.485  0.2457 -0.1225 -0.0512
  384loPI   GL1 6133   2.688   0.604  10.090  0.1224  0.3700 -0.1223
  384loPI   GL2 6134   2.719   0.874   9.996 -0.1842 -0.0895 -0.2688
  384loPI   C1A 6135   2.716   0.210   9.810 -0.1273 -0.1098 -0.3773
  384loPI   C2A 6136   2.626   0.211   9.387  0.2824 -0.0193 -0.0021
  384loPI   C3A 6137   2.579   0.195   8.897 -0.1077  0.0073  0.1479
  384loPI   C4A 6138   2.664   0.102   8.443 -0.1103  0.0157 -0.2209
  384loPI   C5A 6139   2.709  -0.009   8.056 -0.0311 -0.0753  0.0284
  384loPI   C6A 6140   3.008  -0.037   7.723  0.0518 -0.1589  0.0971
  384loPI   C1B 6141   2.657   0.752   9.596 -0.0508 -0.1730  0.0031
  384loPI   C2B 6142   2.724   0.714   9.080 -0.5912 -0.0303 -0.1055
  384loPI   C3B 6143   2.805   0.592   8.623  0.3918 -0.0152 -0.1226
  384loPI   C4B 6144   2.715   0.577   8.199 -0.0508  0.2365 -0.1228
  385loPI    C1 6145  17.510  13.626  11.068  0.1033  0.0697  0.0741
  385loPI    C2 6146  17.599  13.328  11.321 -0.0580  0.1325  0.2068
  385loPI    C3 6147  17.533  13.697  11.461 -0.1036  0.1779  0.0679
  385loPI   PO4 6148  17.470  13.463  10.852 -0.0314 -0.0174  0.2499
  385loPI   GL1 6149  17.636  13.389  10.514 -0.0418  0.1341  0.0891
  385loPI   GL2 6150  17.771  13.107  10.538  0.0079  0.0054  0.2444
  385loPI   C1A 6151  17.670  13.419  10.044  0.1410 -0.1546  0.0507
  385loPI   C2A 6152  17.591  13.382   9.643 -0.0919 -0.1116  0.0768
  385loPI   C3A 6153  17.521  13.420   9.257  0.0362  0.1436 -0.0701
  385loPI   C4A 6154  17.574  13.500   8.823  0.1111 -0.3744 -0.1297
  385loPI   C5A 6155  17.800  13.443   8.315 -0.3525  0.0687 -0.0170
  385loPI   C6A 6156  17.922  13.123   8.015 -0.0044 -0.1503  0.0052
  385loPI   C1B 6157  17.994  13.084  10.068 -0.1546  0.1717  0.0937
  385loPI   C2B 6158  17.976  12.943   9.659  0.2453  0.3637  0.1651
  385loPI   C3B 6159  17.978  13.090   9.213 -0.0601  0.1023 -0.1211
  385loPI   C4B 6160  17.948  13.141   8.834 -0.0644 -0.1258 -0.2341
  386loPI    C1 6161  17.116  13.100  11.167 -0.1894  0.1518 -0.1593
  386loPI    C2 6162  16.877  12.781  11.202 -0.1415  0.1311 -0.0157
  386loPI    C3 6163  16.845  13.085  11.460 -0.3254  0.3352 -0.2735
  386loPI   PO4 6164  17.129  13.051  10.855  0.1574 -0.1696 -0.1415
  386loPI   GL1 6165  17.157  12.995  10.386  0.1476 -0.0437  0.0492
  386loPI   GL2 6166  17.002  12.702  10.265  0.0289  0.3638  0.0104
  386loPI   C1A 6167  17.508  12.873  10.119  0.2042 -0.2262 -0.1719
  386loPI   C2A 6168  17.521  12.862   9.711 -0.0684 -0.1608  0.0138
  386loPI   C3A 6169  17.498  12.876   9.326 -0.0516 -0.2089  0.0648
  386loPI   C4A 6170  17.484  13.002   8.934 -0.0108 -0.1695 -0.2446
  386loPI   C5A 6171  17.559  12.956   8.490  0.2693 -0.1898  0.0130
  386loPI   C6A 6172  17.559  12.797   8.118  0.2238  0.2518 -0.0573
  386loPI   C1B 6173  17.000  12.843   9.825  0.1141 -0.0045  0.2243
  386loPI   C2B 6174  16.952  12.762   9.332  0.2210  0.0795 -0.3807
  386loPI   C3B 6175  17.003  12.735   8.833 -0.0776  0.0874  0.1867
  386loPI   C4B 6176  17.004  12.789   8.378 -0.2055  0.0299 -0.4704
  387loPI    C1 6177   7.872  17.081  10.716  0.3031 -0.1856 -0.0027
  387loPI    C2 6178   7.644  16.759  10.781  0.0424  0.0178  0.1110
  387loPI    C3 6179   7.877  16.901  11.073 -0.1466  0.1664  0.1912
  387loPI   PO4 6180   7.912  17.056  10.430  0.0953  0.3102 -0.0707
  387loPI   GL1 6181   7.739  16.983  10.033 -0.0999 -0.1636 -0.3713
  387loPI   GL2 6182   7.685  17.296  10.023  0.3454 -0.1202 -0.2056
  387loPI   C1A 6183   7.996  16.804   9.679  0.0515 -0.2210 -0.1217
  387loPI   C2A 6184   7.911  16.711   9.200 -0.0303 -0.0218 -0.0766
  387loPI   C3A 6185   8.018  16.593   8.698 -0.0558 -0.0088  0.0470
  387loPI   C4A 6186   7.972  16.597   8.273 -0.1187 -0.3791  0.1683
  387loPI   C5A 6187   8.085  16.506   7.813 -0.2932  0.1677 -0.3164
  387loPI   C6A 6188   8.405  16.373   7.444 -0.3380  0.0430  0.1469
  387loPI   C1B 6189   7.602  17.082   9.542  0.0778 -0.1597 -0.3042
  387loPI   C2B 6190   7.623  17.082   9.022  0.0857  0.1292 -0.0633
  387loPI   C3B 6191   7.678  16.889   8.638  0.2376  0.3561 -0.0271
  387loPI   C4B 6192   7.590  16.995   8.227  0.2715  0.3678 -0.3803
  388loPI    C1 6193  12.678   0.626  10.884 -0.2132  0.1132  0.2106
  388loPI    C2 6194  12.881   0.476  11.194  0.0315  0.1809  0.0868
  388loPI    C3 6195  12.902   0.866  11.112  0.0300  0.1505 -0.0612
  388loPI   PO4 6196  12.714   0.468  10.655 -0.0861  0.2888  0.1236
  388loPI   GL1 6197  12.507   0.491  10.243 -0.0316 -0.0676  0.2712
  388loPI   GL2 6198  12.283   0.325  10.235 -0.0527  0.2983 -0.3001
  388loPI   C1A 6199  12.691   0.645   9.835 -0.0973  0.1476  0.0558
  388loPI   C2A 6200  12.654   0.681   9.329 -0.0490  0.0851  0.0219
  388loPI   C3A 6201  12.664   0.744   8.917  0.2122 -0.2178  0.0518
  388loPI   C4A 6202  12.616   0.741   8.498 -0.2484  0.0967  0.0703
  388loPI   C5A 6203  12.444   0.908   8.083 -0.0073 -0.0568  0.0827
  388loPI   C6A 6204  12.141   0.949   7.682 -0.0182  0.0157  0.0788
  388loPI   C1B 6205  12.448   0.176   9.833  0.0398 -0.1684 -0.0172
  388loPI   C2B 6206  12.626   0.094   9.415  0.1028  0.0459 -0.1646
  388loPI   C3B 6207  12.627   0.224   9.019  0.2703 -0.2201  0.1978
  388loPI   C4B 6208  12.603   0.249   8.578  0.3336 -0.0923  0.2427
  389loPI    C1 6209   9.017   2.351  10.693  0.0555  0.1274  0.1811
  389loPI    C2 6210   9.262   2.041  10.757  0.1085  0.1407  0.0462
  389loPI    C3 6211   8.878   2.019  10.867 -0.0179 -0.1734 -0.4252
  389loPI   PO4 6212   9.106   2.427  10.442  0.1668  0.1455 -0.0359
  389loPI   GL1 6213   9.100   2.696  10.058 -0.0083  0.4210  0.1560
  389loPI   GL2 6214   9.369   2.901   9.906  0.0759 -0.3515 -0.0349
  389loPI   C1A 6215   8.952   2.386   9.713 -0.2516 -0.2331 -0.1318
  389loPI   C2A 6216   9.122   2.268   9.379  0.2383 -0.1208  0.3231
  389loPI   C3A 6217   9.235   2.287   8.935 -0.3452 -0.0462  0.0354
  389loPI   C4A 6218   9.348   2.157   8.587  0.3740  0.1693 -0.1999
  389loPI   C5A 6219   9.509   2.178   8.228  0.0427 -0.0281  0.0650
  389loPI   C6A 6220   9.876   2.302   8.010 -0.0627  0.0341  0.3151
  389loPI   C1B 6221   9.322   2.839   9.436 -0.1192 -0.0134 -0.1079
  389loPI   C2B 6222   9.452   2.821   9.060  0.0533 -0.0303 -0.2616
  389loPI   C3B 6223   9.432   2.635   8.636 -0.1341 -0.3174  0.2751
  389loPI   C4B 6224   9.122   2.747   8.306 -0.2595 -0.1064  0.3520
  390loPI    C1 6225   3.264   1.838  10.738  0.1139 -0.0754 -0.0329
  390loPI    C2 6226   3.298   2.226  10.829 -0.1133 -0.1003  0.1682
  390loPI    C3 6227   3.308   1.950  11.119 -0.0092 -0.2420  0.0317
  390loPI   PO4 6228   3.461   1.805  10.480  0.0661 -0.0448  0.0726
  390loPI   GL1 6229   3.385   1.663  10.056 -0.0534 -0.1778  0.2539
  390loPI   GL2 6230   3.517   1.918   9.903  0.0447  0.0371  0.1547
  390loPI   C1A 6231   3.368   1.443   9.691  0.0208 -0.0751  0.2126
  390loPI   C2A 6232   3.306   1.400   9.212  0.0664  0.2162  0.1582
  390loPI   C3A 6233   3.387   1.281   8.735  0.1584 -0.1178  0.0625
  390loPI   C4A 6234   3.367   1.154   8.340 -0.1471  0.1873 -0.1660
  390loPI   C5A 6235   3.426   1.226   7.959  0.0438  0.1211  0.3212
  390loPI   C6A 6236   3.726   1.531   7.703  0.2405  0.0260 -0.0039
  390loPI   C1B 6237   3.463   1.888   9.500 -0.1725  0.1275 -0.0074
  390loPI   C2B 6238   3.514   1.822   8.986 -0.3134  0.3254 -0.0263
  390loPI   C3B 6239   3.576   1.822   8.570  0.3342 -0.3448 -0.2655
  390loPI   C4B 6240   3.558   1.722   8.201 -0.1275 -0.0372  0.4489
  391loPI    C1 6241   4.138   5.211  10.250  0.1561  0.1254  0.1214
  391loPI    C2 6242   4.390   4.903  10.294 -0.1340 -0.0946  0.2845
  391loPI    C3 6243   4.352   5.174  10.586  0.3482  0.2776  0.0177
  391loPI   PO4 6244   4.188   5.293   9.925  0.2132  0.1154  0.1314
  391loPI   GL1 6245   3.972   5.222   9.661  0.0455 -0.2449  0.2059
  391loPI   GL2 6246   4.020   4.951   9.589  0.2973 -0.2266 -0.3723
  391loPI   C1A 6247   3.658   5.177   9.234 -0.0752  0.3026  0.5168
  391loPI   C2A 6248   3.447   5.395   8.880  0.2182 -0.0283 -0.0883
  391loPI   C3A 6249   3.171   5.339   8.524  0.0405 -0.0343  0.1527
  391loPI   C4A 6250   3.038   5.099   8.183  0.0533  0.1388  0.0483
  391loPI   C5A 6251   3.156   5.007   7.818 -0.0228  0.0596 -0.0032
  391loPI   C6A 6252   3.021   4.942   7.374  0.1323  0.0516  0.0423
  391loPI   C1B 6253   4.188   4.789   9.207  0.0822 -0.1428 -0.3140
  391loPI   C2B 6254   4.126   4.788   8.715 -0.1681 -0.2796 -0.0741
  391loPI   C3B 6255   4.096   4.809   8.319 -0.0575 -0.0666  0.0416
  391loPI   C4B 6256   4.072   4.652   7.860 -0.1628  0.0266  0.1397
  392loPI    C1 6257  10.682  13.754  11.015 -0.0771 -0.1459 -0.0611
  392loPI    C2 6258  10.660  13.823  11.408  0.0799  0.1715 -0.1048
  392loPI    C3 6259  10.719  13.451  11.273  0.1791  0.0824  0.1765
  392loPI   PO4 6260  10.841  13.843  10.903 -0.0382  0.0144 -0.2322
  392loPI   GL1 6261  10.922  13.806  10.529  0.0006 -0.1867  0.0155
  392loPI   GL2 6262  10.773  13.637  10.372  0.0285 -0.3117  0.0990
  392loPI   C1A 6263  11.194  13.960  10.179 -0.0740 -0.0340 -0.2259
  392loPI   C2A 6264  11.174  14.162   9.831 -0.1892 -0.0975 -0.0242
  392loPI   C3A 6265  11.199  14.253   9.365  0.2071 -0.0267 -0.0517
  392loPI   C4A 6266  11.233  14.303   8.889  0.0277 -0.0161  0.2816
  392loPI   C5A 6267  11.274  14.317   8.427 -0.1780  0.0723  0.0341
  392loPI   C6A 6268  10.871  14.212   8.171  0.2256 -0.1124  0.1724
  392loPI   C1B 6269  10.706  13.922   9.971 -0.1967 -0.2989 -0.1065
  392loPI   C2B 6270  10.774  14.009   9.546 -0.1081 -0.1986  0.0258
  392loPI   C3B 6271  10.752  14.077   9.126 -0.2564  0.0263  0.1454
  392loPI   C4B 6272  10.699  14.229   8.624  0.1937 -0.3061  0.0685
  393loPI    C1 6273   9.105  17.636  10.709 -0.1999 -0.0240 -0.0314
  393loPI    C2 6274   9.055  17.265  10.568 -0.3173  0.0091 -0.0776
  393loPI    C3 6275   8.991  17.342  10.955 -0.0994 -0.0593 -0.0270
  393loPI   PO4 6276   9.204  17.734  10.435  0.0202 -0.2216 -0.1992
  393loPI   GL1 6277   9.131  17.908  10.097  0.3331  0.0942 -0.0554
  393loPI   GL2 6278   9.191  18.095   9.929 -0.0637 -0.1784  0.2061
  393loPI   C1A 6279   9.096  17.586   9.773 -0.1515  0.0732 -0.0664
  393loPI   C2A 6280   9.085  17.489   9.250  0.2000 -0.0297 -0.0132
  393loPI   C3A 6281   9.086  17.377   8.820  0.3921 -0.0724 -0.0690
  393loPI   C4A 6282   9.221  17.336   8.398 -0.3404 -0.1207 -0.2691
  393loPI   C5A 6283   9.335  17.031   8.129 -0.0850  0.0440  0.1671
  393loPI   C6A 6284   9.439  17.047   7.695 -0.0618  0.2557  0.0735
  393loPI   C1B 6285   9.110  17.993   9.496  0.0742 -0.1459  0.0892
  393loPI   C2B 6286   9.176  18.003   9.104  0.0565  0.2195  0.3422
  393loPI   C3B 6287   9.176  17.840   8.662 -0.0329 -0.1571  0.1756
  393loPI   C4B 6288   9.267  17.808   8.256 -0.1430 -0.0320 -0.3192
  394loPI    C1 6289  13.765  18.188  10.766  0.3272 -0.0448 -0.2407
  394loPI    C2 6290  13.968  18.430  11.011 -0.1539  0.2331 -0.1022
  394loPI    C3 6291  13.715  18.159  11.162 -0.0304  0.0172 -0.2773
  394loPI   PO4 6292  13.657  18.261  10.489  0.0267 -0.1591  0.0856
  394loPI   GL1 6293  13.663  18.155  10.083  0.0151 -0.1053  0.2343
  394loPI   GL2 6294  13.881  18.325  10.042 -0.1527 -0.0928 -0.0309
  394loPI   C1A 6295  13.436  18.222   9.710  0.1206 -0.2950  0.2302
  394loPI   C2A 6296  13.359  18.196   9.345 -0.1358  0.0748 -0.0639
  394loPI   C3A 6297  13.346  18.210   8.969  0.0021  0.1917 -0.0100
  394loPI   C4A 6298  13.522  18.217   8.500 -0.1048  0.3153 -0.1027
  394loPI   C5A 6299  13.629  18.059   8.193  0.0257  0.1265 -0.0537
  394loPI   C6A 6300  13.961  17.938   7.957 -0.0607 -0.3858  0.0570
  394loPI   C1B 6301  13.836  18.445   9.639 -0.0719  0.0518 -0.0047
  394loPI   C2B 6302  13.846  18.483   9.178  0.1090 -0.0542  0.0162
  394loPI   C3B 6303  13.817  18.424   8.794 -0.3890 -0.1326  0.0762
  394loPI   C4B 6304  13.961  18.457   8.304 -0.1098 -0.1252 -0.1184
  395loPI    C1 6305   1.481   3.667  10.679  0.0070 -0.1290  0.0081
  395loPI    C2 6306   1.522   3.437  10.354 -0.4682 -0.0299 -0.1300
  395loPI    C3 6307   1.661   3.311  10.707  0.0270 -0.1519 -0.3593
  395loPI   PO4 6308   1.553   3.889  10.622  0.3886  0.0892  0.2973
  395loPI   GL1 6309   1.470   4.097  10.125 -0.1790  0.1586  0.2950
  395loPI   GL2 6310   1.640   3.868  10.107  0.0939 -0.0729  0.1483
  395loPI   C1A 6311   1.478   4.173   9.666 -0.2316  0.2928 -0.2877
  395loPI   C2A 6312   1.448   4.114   9.266 -0.0083 -0.0082  0.0497
  395loPI   C3A 6313   1.456   4.082   8.854  0.4128  0.0333  0.0033
  395loPI   C4A 6314   1.434   4.122   8.457 -0.0450  0.3562  0.0325
  395loPI   C5A 6315   1.640   4.104   8.107  0.1864 -0.3214 -0.1113
  395loPI   C6A 6316   2.011   4.133   7.943  0.0453 -0.0405 -0.4129
  395loPI   C1B 6317   1.445   3.648   9.895  0.3264  0.0830 -0.0360
  395loPI   C2B 6318   1.444   3.616   9.516  0.1144 -0.2028 -0.0149
  395loPI   C3B 6319   1.485   3.624   9.043 -0.0899 -0.0643 -0.2637
  395loPI   C4B 6320   1.477   3.589   8.627 -0.0550  0.1429 -0.1045
  396loPI    C1 6321   0.756  18.106  10.893 -0.1396 -0.2929 -0.0793
  396loPI    C2 6322   0.367  18.072  10.809 -0.2228  0.0991  0.1255
  396loPI    C3 6323   0.499  17.999  11.179 -0.1219  0.1023  0.0904
  396loPI   PO4 6324   0.839  18.295  10.658 -0.0274 -0.0194  0.1148
  396loPI   GL1 6325   0.861  18.268  10.241  0.3989  0.0286  0.0204
  396loPI   GL2 6326   0.639  18.213  10.079  0.1657 -0.1182 -0.1661
  396loPI   C1A 6327   1.122  17.984   9.948  0.0784 -0.2248  0.4457
  396loPI   C2A 6328   1.162  17.883   9.444  0.1942  0.1524 -0.1196
  396loPI   C3A 6329   1.098  17.810   8.989  0.1000  0.0638 -0.1374
  396loPI   C4A 6330   1.069  17.907   8.518  0.1375 -0.2676  0.1995
  396loPI   C5A 6331   1.200  17.969   8.041  0.4376  0.0147 -0.0871
  396loPI   C6A 6332   1.285  18.034   7.665  0.0633 -0.4157  0.0466
  396loPI   C1B 6333   0.684  18.252   9.656  0.0151 -0.1876  0.1915
  396loPI   C2B 6334   0.744  18.228   9.204  0.2319  0.2570  0.1657
  396loPI   C3B 6335   0.772  18.269   8.775 -0.0180 -0.0575  0.0375
  396loPI   C4B 6336   0.749  18.181   8.291  0.0235  0.0482 -0.2082
  397loPI    C1 6337   3.062  16.585  10.919  0.0135 -0.0568  0.0028
  397loPI    C2 6338   2.968  16.539  11.305  0.1340 -0.0223  0.0366
  397loPI    C3 6339   2.944  16.900  11.135 -0.1215 -0.0749 -0.0433
  397loPI   PO4 6340   2.985  16.448  10.709 -0.1508  0.1630  0.2937
  397loPI   GL1 6341   3.101  16.264  10.288  0.3332 -0.1267 -0.3714
  397loPI   GL2 6342   2.872  16.491  10.202 -0.2464  0.3091  0.1326
  397loPI   C1A 6343   3.130  16.219   9.813 -0.1436  0.0059 -0.0498
  397loPI   C2A 6344   3.165  16.179   9.317 -0.1057  0.0310  0.0741
  397loPI   C3A 6345   3.086  16.158   8.866 -0.3325 -0.1957 -0.2617
  397loPI   C4A 6346   2.961  16.484   8.508  0.0660 -0.0277 -0.0071
  397loPI   C5A 6347   2.888  16.835   8.206  0.2945 -0.3664 -0.0035
  397loPI   C6A 6348   2.865  17.197   8.041  0.0750  0.0370 -0.4378
  397loPI   C1B 6349   2.711  16.706   9.876 -0.1765 -0.0179 -0.0676
  397loPI   C2B 6350   2.734  16.545   9.464  0.5671 -0.2452  0.0024
  397loPI   C3B 6351   2.711  16.511   9.051 -0.2357 -0.0696 -0.3109
  397loPI   C4B 6352   2.528  16.449   8.693  0.2243 -0.0839  0.2338
  398loPI    C1 6353  12.373   4.086  10.672  0.0589 -0.1594  0.1053
  398loPI    C2 6354  12.634   3.906  10.916  0.2109 -0.1868 -0.0752
  398loPI    C3 6355  12.733   4.248  10.736  0.0968 -0.1634 -0.0944
  398loPI   PO4 6356  12.338   3.896  10.430  0.0134 -0.0342 -0.1193
  398loPI   GL1 6357  12.332   3.904   9.977  0.0819  0.1633  0.0673
  398loPI   GL2 6358  12.082   3.913   9.866  0.5478 -0.1610  0.0321
  398loPI   C1A 6359  12.379   3.540   9.616 -0.1434 -0.0290  0.0754
  398loPI   C2A 6360  12.388   3.453   9.143 -0.4340 -0.3428 -0.0356
  398loPI   C3A 6361  12.386   3.482   8.770  0.1464 -0.2613  0.2155
  398loPI   C4A 6362  12.441   3.369   8.237 -0.3793  0.3980  0.0530
  398loPI   C5A 6363  12.412   3.005   7.931 -0.2814  0.5085 -0.3246
  398loPI   C6A 6364  12.102   2.687   7.930 -0.2364  0.0212  0.1837
  398loPI   C1B 6365  12.082   3.875   9.456 -0.1028  0.2689 -0.1048
  398loPI   C2B 6366  12.070   3.907   8.987 -0.0428  0.0745 -0.0778
  398loPI   C3B 6367  12.081   3.833   8.546 -0.2619 -0.2885  0.2963
  398loPI   C4B 6368  12.188   3.728   8.158 -0.0074  0.1569 -0.1239
  399loPI    C1 6369  11.666   6.449  10.087  0.1568  0.1352  0.1167
  399loPI    C2 6370  11.530   6.103  10.235 -0.1264  0.1575 -0.0835
  399loPI    C3 6371  11.484   6.441  10.443 -0.0331  0.1073  0.0200
  399loPI   PO4 6372  11.574   6.449   9.862  0.1391 -0.2268 -0.0708
  399loPI   GL1 6373  11.788   6.721   9.613 -0.0977 -0.5854  0.4564
  399loPI   GL2 6374  11.854   6.383   9.447  0.1927 -0.0038 -0.0211
  399loPI   C1A 6375  12.050   6.751   9.163 -0.3289 -0.2101  0.1073
  399loPI   C2A 6376  12.188   6.783   8.734  0.0244 -0.0643 -0.0814
  399loPI   C3A 6377  12.268   6.941   8.327  0.0642 -0.0396  0.3307
  399loPI   C4A 6378  12.531   7.066   7.936 -0.0407 -0.0329  0.1787
  399loPI   C5A 6379  12.851   7.218   7.621  0.0445 -0.3479  0.1903
  399loPI   C6A 6380  13.323   7.131   7.282  0.2064  0.0081 -0.2318
  399loPI   C1B 6381  11.980   6.313   9.036  0.0324  0.2004  0.3018
  399loPI   C2B 6382  11.950   6.208   8.588 -0.2032 -0.3936 -0.0798
  399loPI   C3B 6383  12.075   6.455   8.285 -0.4529 -0.0888  0.2056
  399loPI   C4B 6384  12.210   6.533   7.969  0.1023 -0.0317 -0.0359
  400loPI    C1 6385   2.605   9.165  10.974 -0.0344  0.2132  0.1529
  400loPI    C2 6386   2.632   9.511  11.172 -0.4000  0.1819  0.2651
  400loPI    C3 6387   2.356   9.242  11.277  0.0327 -0.2493  0.3340
  400loPI   PO4 6388   2.583   9.175  10.680  0.2189  0.1904  0.2141
  400loPI   GL1 6389   2.127   9.073  10.459  0.0267  0.0136  0.0924
  400loPI   GL2 6390   2.327   9.392  10.295 -0.0892 -0.0252  0.2160
  400loPI   C1A 6391   2.200   8.980  10.039  0.1870  0.1764 -0.0411
  400loPI   C2A 6392   2.187   8.975   9.610  0.0098  0.2901  0.2804
  400loPI   C3A 6393   2.130   9.077   9.137  0.0327 -0.0889 -0.0571
  400loPI   C4A 6394   2.146   8.997   8.659 -0.0459 -0.1269  0.0074
  400loPI   C5A 6395   2.090   9.199   8.327 -0.3363  0.2158 -0.1047
  400loPI   C6A 6396   2.085   9.220   7.920 -0.0623 -0.1695 -0.1850
  400loPI   C1B 6397   2.335   9.416   9.901 -0.0241  0.1233 -0.0605
  400loPI   C2B 6398   2.239   9.504   9.496 -0.0905 -0.2288 -0.0094
  400loPI   C3B 6399   2.286   9.597   9.112 -0.2617  0.0684  0.2110
  400loPI   C4B 6400   2.279   9.546   8.750  0.1443 -0.2820  0.1084
  401loPI    C1 6401  14.993   3.476  10.333  0.0878  0.0443  0.0902
  401loPI    C2 6402  14.594   3.454  10.355  0.0639  0.0544 -0.2657
  401loPI    C3 6403  14.802   3.151  10.197  0.2090  0.0049  0.0129
  401loPI   PO4 6404  15.048   3.712  10.176 -0.1440 -0.1578  0.1887
  401loPI   GL1 6405  15.061   3.975   9.882  0.4390  0.0267 -0.0203
  401loPI   GL2 6406  14.955   4.209   9.840  0.1093 -0.1495 -0.2330
  401loPI   C1A 6407  15.041   4.029   9.430  0.1441  0.0410  0.3411
  401loPI   C2A 6408  15.045   4.127   8.976  0.3038  0.1319  0.3176
  401loPI   C3A 6409  15.153   4.027   8.586 -0.1416  0.3100 -0.0180
  401loPI   C4A 6410  15.184   4.135   8.167 -0.0212 -0.1584  0.3386
  401loPI   C5A 6411  15.235   4.487   7.847  0.1337 -0.3291  0.0110
  401loPI   C6A 6412  15.264   4.869   7.578  0.3273 -0.1157 -0.0591
  401loPI   C1B 6413  14.740   4.417   9.483  0.0196 -0.1546  0.1438
  401loPI   C2B 6414  14.707   4.460   9.083  0.1870  0.3745 -0.0540
  401loPI   C3B 6415  14.804   4.430   8.620 -0.4109  0.0652  0.0830
  401loPI   C4B 6416  14.785   4.500   8.240  0.0271 -0.0319  0.2228
  402loPI    C1 6417   0.850  14.306  11.189  0.0026  0.2167 -0.1285
  402loPI    C2 6418   1.142  14.172  11.429 -0.0132  0.1411 -0.1516
  402loPI    C3 6419   0.795  14.295  11.585 -0.1378 -0.1952 -0.1551
  402loPI   PO4 6420   0.898  14.118  10.997 -0.1228 -0.2053  0.1382
  402loPI   GL1 6421   0.978  14.213  10.519 -0.2704  0.0071 -0.0947
  402loPI   GL2 6422   1.297  14.145  10.457 -0.0765 -0.1035 -0.0156
  402loPI   C1A 6423   0.963  14.399  10.175 -0.0005 -0.2688 -0.1041
  402loPI   C2A 6424   0.944  14.478   9.829 -0.0236  0.1120  0.4902
  402loPI   C3A 6425   0.961  14.566   9.351 -0.3205 -0.0680  0.1517
  402loPI   C4A 6426   0.945  14.547   9.001  0.0336 -0.0758 -0.2649
  402loPI   C5A 6427   0.980  14.415   8.506 -0.3666  0.2744 -0.0670
  402loPI   C6A 6428   0.850  14.204   8.148 -0.1518  0.0110  0.0440
  402loPI   C1B 6429   1.274  14.110   9.947  0.0941 -0.0590 -0.1808
  402loPI   C2B 6430   1.322  14.205   9.488 -0.1501 -0.1638 -0.0489
  402loPI   C3B 6431   1.284  14.155   9.045  0.3752 -0.2154 -0.1000
  402loPI   C4B 6432   1.482  14.200   8.580  0.0183  0.0672 -0.1149
  403loPI    C1 6433   9.544  12.286  10.743 -0.0256 -0.1587 -0.0461
  403loPI    C2 6434   9.429  12.562  10.478  0.0307 -0.2074 -0.1218
  403loPI    C3 6435   9.162  12.306  10.628 -0.0494 -0.0236  0.0537
  403loPI   PO4 6436   9.752  12.207  10.617  0.0193  0.1702 -0.4481
  403loPI   GL1 6437   9.899  12.367  10.205 -0.0071  0.0281 -0.3348
  403loPI   GL2 6438  10.043  12.127  10.001  0.0110 -0.0700  0.2734
  403loPI   C1A 6439  10.072  12.662   9.809  0.1465 -0.2060 -0.4154
  403loPI   C2A 6440   9.921  12.805   9.468 -0.1616  0.0830  0.1547
  403loPI   C3A 6441  10.045  12.901   9.078  0.0842 -0.0577 -0.2020
  403loPI   C4A 6442   9.971  12.986   8.642 -0.3382 -0.2765 -0.0648
  403loPI   C5A 6443   9.822  13.171   8.205  0.2558 -0.3044 -0.1276
  403loPI   C6A 6444   9.651  13.194   7.799 -0.0753  0.1623  0.2167
  403loPI   C1B 6445   9.968  12.246   9.570  0.1920 -0.0141 -0.0836
  403loPI   C2B 6446   9.975  12.324   9.093  0.0668 -0.1186 -0.1902
  403loPI   C3B 6447   9.886  12.465   8.734  0.2314 -0.2068  0.3082
  403loPI   C4B 6448   9.777  12.650   8.352 -0.1482 -0.0770  0.0008
  404loPI    C1 6449   6.255   7.531  10.307 -0.0801  0.1299  0.1920
  404loPI    C2 6450   6.200   7.916  10.214 -0.1921  0.1388  0.2931
  404loPI    C3 6451   6.520   7.806  10.427 -0.0414  0.1451  0.0737
  404loPI   PO4 6452   6.171   7.413  10.184 -0.0657  0.3213 -0.1586
  404loPI   GL1 6453   6.113   7.409   9.834 -0.0292  0.1716  0.3109
  404loPI   GL2 6454   6.128   7.646   9.617  0.3103  0.2917  0.0477
  404loPI   C1A 6455   5.991   7.112   9.479 -0.2071 -0.1025 -0.1647
  404loPI   C2A 6456   6.072   7.150   8.998 -0.1134  0.3123 -0.0208
  404loPI   C3A 6457   6.011   7.310   8.605  0.2823 -0.1167 -0.3730
  404loPI   C4A 6458   5.930   7.495   8.212  0.0740  0.1180 -0.0854
  404loPI   C5A 6459   6.006   7.648   7.850 -0.0391 -0.0755 -0.0153
  404loPI   C6A 6460   6.353   7.785   7.572 -0.0839 -0.3594  0.0569
  404loPI   C1B 6461   5.949   7.701   9.212  0.0983  0.0411 -0.0627
  404loPI   C2B 6462   5.904   7.746   8.811 -0.3945 -0.0728  0.0100
  404loPI   C3B 6463   5.804   7.961   8.498 -0.1602 -0.0787  0.1911
  404loPI   C4B 6464   5.668   7.922   8.049  0.6472  0.0555  0.1698
  405loPI    C1 6465  17.272   2.719  10.776 -0.0318 -0.2131  0.0046
  405loPI    C2 6466  17.558   2.626  11.040  0.0468  0.0666  0.0206
  405loPI    C3 6467  17.234   2.395  11.008  0.1167 -0.0647  0.2412
  405loPI   PO4 6468  17.421   2.918  10.598  0.2459 -0.0162 -0.2375
  405loPI   GL1 6469  17.527   3.007  10.172  0.3759  0.0243  0.0855
  405loPI   GL2 6470  17.436   2.637  10.112  0.0881  0.4456  0.2850
  405loPI   C1A 6471  17.397   3.209   9.796 -0.0134  0.0537 -0.1321
  405loPI   C2A 6472  17.205   3.300   9.329  0.3887  0.5271 -0.2414
  405loPI   C3A 6473  17.224   3.334   9.044 -0.1113  0.0974 -0.0015
  405loPI   C4A 6474  17.242   3.288   8.611  0.0208  0.1146  0.1099
  405loPI   C5A 6475  17.183   3.146   8.182  0.0872 -0.0594  0.3761
  405loPI   C6A 6476  17.362   2.886   8.013  0.0341 -0.2092 -0.1111
  405loPI   C1B 6477  17.447   2.517   9.664 -0.0215  0.0176  0.4391
  405loPI   C2B 6478  17.560   2.537   9.197  0.1651 -0.0715 -0.0489
  405loPI   C3B 6479  17.578   2.444   8.765 -0.2987 -0.1462 -0.0103
  405loPI   C4B 6480  17.753   2.570   8.389 -0.3028 -0.1929  0.0054
  406loPI    C1 6481  12.475  10.072  10.571 -0.1281  0.0952 -0.0972
  406loPI    C2 6482  12.816  10.090  10.780 -0.1841  0.0651 -0.0028
  406loPI    C3 6483  12.504  10.317  10.886 -0.1928  0.0947 -0.0908
  406loPI   PO4 6484  12.586  10.085  10.307  0.0094  0.0378  0.1719
  406loPI   GL1 6485  12.474  10.062   9.944  0.0722 -0.1008  0.2566
  406loPI   GL2 6486  12.150  10.066   9.815  0.2105  0.4522 -0.1637
  406loPI   C1A 6487  12.566  10.139   9.571 -0.0559 -0.0561  0.0976
  406loPI   C2A 6488  12.791  10.058   9.331  0.1149 -0.0803 -0.1248
  406loPI   C3A 6489  12.852  10.200   8.835  0.0201  0.1443  0.4739
  406loPI   C4A 6490  12.934  10.250   8.434  0.1007 -0.0697 -0.1472
  406loPI   C5A 6491  12.830  10.221   8.072  0.1052 -0.1328 -0.2285
  406loPI   C6A 6492  12.722  10.080   7.728 -0.0320  0.2256  0.0119
  406loPI   C1B 6493  12.119   9.950   9.383  0.0279  0.0208 -0.2933
  406loPI   C2B 6494  12.098   9.959   9.087  0.0346  0.5672  0.4247
  406loPI   C3B 6495  12.384  10.087   8.796 -0.0573  0.0468  0.0073
  406loPI   C4B 6496  12.349  10.165   8.338  0.2243 -0.0373 -0.1362
  407loPI    C1 6497  17.058  14.761  10.987 -0.0426  0.1257  0.0854
  407loPI    C2 6498  17.104  14.507  11.293 -0.1058  0.0528  0.0348
  407loPI    C3 6499  16.795  14.760  11.289  0.0189  0.2087  0.1397
  407loPI   PO4 6500  17.049  14.631  10.675 -0.0373  0.1979  0.0118
  407loPI   GL1 6501  16.914  14.809  10.395  0.1585 -0.0753 -0.0636
  407loPI   GL2 6502  17.033  15.099  10.216 -0.0026 -0.0771  0.0230
  407loPI   C1A 6503  16.844  14.568   9.942  0.3698  0.0787  0.1323
  407loPI   C2A 6504  16.812  14.653   9.493 -0.4172  0.2307  0.0386
  407loPI   C3A 6505  16.893  14.687   9.091  0.2487  0.0015  0.2594
  407loPI   C4A 6506  17.004  14.664   8.682  0.2926 -0.0001 -0.0650
  407loPI   C5A 6507  16.775  14.729   8.306  0.2576  0.0759  0.3685
  407loPI   C6A 6508  16.380  14.670   8.120 -0.2210 -0.2160 -0.0085
  407loPI   C1B 6509  16.941  15.066   9.738  0.4194 -0.2055  0.1678
  407loPI   C2B 6510  16.981  15.157   9.232 -0.1623  0.0624  0.0146
  407loPI   C3B 6511  17.006  15.164   8.792 -0.2457 -0.1117 -0.1139
  407loPI   C4B 6512  17.067  15.108   8.349  0.2555 -0.0004 -0.1943
  408loPI    C1 6513   1.631  15.279  11.219  0.2272 -0.1582  0.0281
  408loPI    C2 6514   1.819  14.942  11.325  0.2097 -0.1601  0.0531
  408loPI    C3 6515   1.494  15.061  11.525  0.2395 -0.1071  0.0702
  408loPI   PO4 6516   1.739  15.347  10.939  0.2787 -0.0639  0.0583
  408loPI   GL1 6517   1.878  15.441  10.640 -0.0806  0.0078 -0.0449
  408loPI   GL2 6518   2.191  15.393  10.467  0.2324 -0.0077  0.0101
  408loPI   C1A 6519   1.744  15.735  10.375 -0.0779 -0.1488  0.2261
  408loPI   C2A 6520   1.665  15.690   9.965 -0.0574  0.1952  0.1861
  408loPI   C3A 6521   1.647  15.686   9.656  0.1115 -0.3030  0.0057
  408loPI   C4A 6522   1.610  15.650   9.271  0.2226 -0.0083 -0.2357
  408loPI   C5A 6523   1.582  15.776   8.813 -0.3684  0.0757 -0.0101
  408loPI   C6A 6524   1.397  16.106   8.512  0.0802  0.0682 -0.0258
  408loPI   C1B 6525   2.088  15.352  10.052 -0.2738 -0.1472  0.1568
  408loPI   C2B 6526   2.019  15.279   9.615 -0.1367  0.0491 -0.0320
  408loPI   C3B 6527   2.010  15.321   9.219 -0.3379 -0.3968  0.1920
  408loPI   C4B 6528   2.034  15.508   8.678 -0.0636 -0.0819 -0.0541
  409loPI    C1 6529   8.222  18.095  10.581  0.0672  0.1597  0.0902
  409loPI    C2 6530   8.469  18.142  10.892  0.0924  0.0185  0.0923
  409loPI    C3 6531   8.136  17.924  10.932  0.1164 -0.0338  0.0091
  409loPI   PO4 6532   8.343  18.013  10.422 -0.3101  0.2807  0.0556
  409loPI   GL1 6533   8.569  17.829  10.092  0.2094  0.0163  0.2155
  409loPI   GL2 6534   8.769  17.582  10.166  0.1957  0.0887 -0.2255
  409loPI   C1A 6535   8.615  17.887   9.673  0.0575  0.1013  0.0319
  409loPI   C2A 6536   8.667  17.795   9.226 -0.1887  0.0241 -0.1306
  409loPI   C3A 6537   8.683  17.778   8.770  0.1514  0.2176  0.0538
  409loPI   C4A 6538   8.742  17.624   8.417 -0.0836 -0.3435 -0.0687
  409loPI   C5A 6539   8.625  17.301   8.083  0.1970 -0.1084 -0.1032
  409loPI   C6A 6540   8.192  17.067   7.964 -0.0239  0.1948  0.2079
  409loPI   C1B 6541   8.633  17.380   9.912  0.1403 -0.1596 -0.1426
  409loPI   C2B 6542   8.666  17.302   9.490  0.0788 -0.0717  0.1109
  409loPI   C3B 6543   8.619  17.329   8.994  0.2849 -0.1823  0.0814
  409loPI   C4B 6544   8.602  17.163   8.629  0.1209  0.5536  0.2856
  410loPI    C1 6545   3.582   5.844  10.491 -0.1930  0.1831  0.1605
  410loPI    C2 6546   3.190   5.829  10.572 -0.1692 -0.0015  0.2478
  410loPI    C3 6547   3.424   5.516  10.657 -0.0349  0.0349  0.0222
  410loPI   PO4 6548   3.537   6.038  10.263 -0.1054 -0.3818 -0.3859
  410loPI   GL1 6549   3.589   6.045   9.920 -0.1515 -0.0094 -0.0057
  410loPI   GL2 6550   3.832   5.789   9.773  0.0048  0.0901  0.4922
  410loPI   C1A 6551   3.491   6.089   9.519  0.1429 -0.2549 -0.0178
  410loPI   C2A 6552   3.398   6.088   9.043  0.0309  0.1587  0.2374
  410loPI   C3A 6553   3.302   5.960   8.587  0.1005 -0.2964 -0.1999
  410loPI   C4A 6554   3.171   5.832   8.110 -0.2660  0.2533 -0.0831
  410loPI   C5A 6555   3.349   5.892   7.665  0.3109  0.1383  0.0771
  410loPI   C6A 6556   3.256   6.225   7.440  0.0725 -0.0143 -0.1375
  410loPI   C1B 6557   3.807   5.730   9.291  0.1473 -0.1025 -0.2198
  410loPI   C2B 6558   3.753   5.741   8.778 -0.3388 -0.0898  0.2526
  410loPI   C3B 6559   3.633   5.684   8.375  0.0034  0.1881 -0.3137
  410loPI   C4B 6560   3.372   5.423   8.027  0.2119 -0.3442  0.6715
  411loPI    C1 6561   9.085  10.648  10.715  0.0613 -0.1649  0.0999
  411loPI    C2 6562   8.895  10.755  11.050  0.0465 -0.1208  0.0775
  411loPI    C3 6563   9.138  10.437  11.050  0.0884 -0.0888  0.1437
  411loPI   PO4 6564   8.968  10.807  10.499  0.0464 -0.0432  0.0404
  411loPI   GL1 6565   9.127  10.965  10.112 -0.0663  0.0913 -0.1810
  411loPI   GL2 6566   8.915  10.752   9.942 -0.0814  0.0459  0.1233
  411loPI   C1A 6567   9.178  11.188   9.811 -0.3309 -0.0583 -0.1956
  411loPI   C2A 6568   9.068  11.342   9.292  0.2920 -0.0248  0.0584
  411loPI   C3A 6569   9.005  11.345   8.839  0.1467  0.3006 -0.2470
  411loPI   C4A 6570   9.065  11.368   8.397  0.2784  0.1985  0.2112
  411loPI   C5A 6571   9.021  11.479   7.960 -0.1450  0.0013  0.1761
  411loPI   C6A 6572   8.751  11.191   7.823  0.2113  0.1030 -0.0954
  411loPI   C1B 6573   8.835  10.942   9.482  0.0109 -0.2011 -0.2743
  411loPI   C2B 6574   8.738  10.933   9.048  0.0755 -0.0143  0.2321
  411loPI   C3B 6575   8.593  11.168   8.753 -0.3261 -0.4876  0.2207
  411loPI   C4B 6576   8.476  11.213   8.413  0.1067 -0.0876  0.2453
  412loPI    C1 6577   8.053   1.799  10.683 -0.0574 -0.1118  0.0828
  412loPI    C2 6578   8.273   1.988  10.958 -0.1339 -0.0311  0.0894
  412loPI    C3 6579   8.003   1.716  11.071  0.0315 -0.2041  0.0749
  412loPI   PO4 6580   8.185   1.687  10.460  0.1062  0.0356 -0.1199
  412loPI   GL1 6581   8.471   1.728  10.126  0.1798  0.0430 -0.0851
  412loPI   GL2 6582   8.699   1.661  10.029 -0.1392  0.1257  0.0673
  412loPI   C1A 6583   8.363   2.038   9.787  0.1457 -0.2475 -0.1891
  412loPI   C2A 6584   8.640   2.090   9.420 -0.3866 -0.0061 -0.0255
  412loPI   C3A 6585   8.657   2.003   8.978 -0.1688  0.1625  0.3120
  412loPI   C4A 6586   8.870   1.959   8.626 -0.0345 -0.0337  0.2620
  412loPI   C5A 6587   8.587   1.939   8.118  0.2735 -0.0543  0.0055
  412loPI   C6A 6588   8.225   1.712   7.842 -0.0073 -0.1111  0.1518
  412loPI   C1B 6589   8.650   1.591   9.580  0.0931 -0.1749  0.0509
  412loPI   C2B 6590   8.517   1.561   9.165 -0.2614  0.0606 -0.1494
  412loPI   C3B 6591   8.592   1.543   8.735  0.3991  0.0050 -0.0189
  412loPI   C4B 6592   8.558   1.539   8.357  0.1294 -0.3222 -0.3227
  413loPI    C1 6593  10.910   9.267  10.089  0.0045  0.0050  0.1361
  413loPI    C2 6594  10.868   9.531  10.386  0.0621  0.1872 -0.0159
  413loPI    C3 6595  11.217   9.344  10.333  0.0437  0.1348  0.0471
  413loPI   PO4 6596  10.858   9.421   9.868 -0.0222 -0.0478  0.2464
  413loPI   GL1 6597  10.702   9.527   9.483 -0.1153 -0.1265 -0.0539
  413loPI   GL2 6598  10.453   9.311   9.347  0.1045 -0.4174  0.2507
  413loPI   C1A 6599  10.749   9.633   9.006 -0.0547 -0.0883  0.0752
  413loPI   C2A 6600  11.070   9.680   8.680 -0.1630  0.1948  0.3220
  413loPI   C3A 6601  11.148   9.947   8.372  0.1261  0.0565 -0.1453
  413loPI   C4A 6602  11.391  10.092   8.096  0.3752 -0.0900 -0.1050
  413loPI   C5A 6603  11.589  10.464   7.910  0.0852 -0.0239  0.2604
  413loPI   C6A 6604  11.606  10.803   8.064 -0.2039  0.0620 -0.1478
  413loPI   C1B 6605  10.456   9.264   8.931 -0.1022 -0.2458  0.2632
  413loPI   C2B 6606  10.637   9.487   8.500 -0.3244  0.0539  0.0472
  413loPI   C3B 6607  10.834   9.588   8.127  0.2463  0.0301 -0.0368
  413loPI   C4B 6608  10.812   9.482   7.722  0.1977 -0.2583 -0.0793
  414loPI    C1 6609  13.099   6.247  10.284 -0.2265 -0.1026 -0.0523
  414loPI    C2 6610  12.853   5.956  10.161 -0.3322 -0.1595  0.2849
  414loPI    C3 6611  12.801   6.125  10.520 -0.0747  0.0543  0.2253
  414loPI   PO4 6612  13.199   6.411  10.042 -0.0043  0.1687  0.1533
  414loPI   GL1 6613  13.355   6.206   9.719 -0.2323  0.1788 -0.0180
  414loPI   GL2 6614  13.685   6.016   9.681 -0.0207  0.0724  0.0258
  414loPI   C1A 6615  13.007   6.287   9.485  0.2126 -0.1946  0.1244
  414loPI   C2A 6616  12.988   6.344   9.046  0.0108 -0.4797 -0.0668
  414loPI   C3A 6617  12.963   6.387   8.544  0.2081  0.1504 -0.0605
  414loPI   C4A 6618  13.159   6.267   8.120  0.3224 -0.0294 -0.0017
  414loPI   C5A 6619  13.456   6.327   7.789 -0.0033  0.1943 -0.2342
  414loPI   C6A 6620  13.559   6.561   7.406  0.0723  0.1626  0.0627
  414loPI   C1B 6621  13.472   6.164   9.218  0.1222 -0.0867 -0.2091
  414loPI   C2B 6622  13.782   6.141   8.878 -0.3008  0.1775 -0.0161
  414loPI   C3B 6623  13.774   6.011   8.403  0.1527 -0.2408  0.0295
  414loPI   C4B 6624  13.807   6.111   8.098 -0.1826  0.1446  0.1444
  415loPI    C1 6625  13.601   6.117  10.409  0.3229  0.2202 -0.0947
  415loPI    C2 6626  13.428   6.365  10.670 -0.0618 -0.0496 -0.0860
  415loPI    C3 6627  13.723   6.123  10.790 -0.3359 -0.2783  0.1423
  415loPI   PO4 6628  13.655   6.227  10.155  0.3435 -0.2948 -0.0435
  415loPI   GL1 6629  14.061   6.219   9.942  0.1634  0.1858  0.0922
  415loPI   GL2 6630  14.455   6.285   9.937  0.0833 -0.2618  0.1106
  415loPI   C1A 6631  14.134   6.183   9.476  0.2560 -0.0983 -0.1267
  415loPI   C2A 6632  14.224   6.151   9.055  0.1548 -0.0690 -0.2900
  415loPI   C3A 6633  14.251   6.107   8.706  0.1775  0.2186 -0.1444
  415loPI   C4A 6634  14.339   6.341   8.326 -0.0665 -0.1361  0.3337
  415loPI   C5A 6635  14.529   6.598   7.959 -0.1412 -0.1395  0.0067
  415loPI   C6A 6636  14.446   6.766   7.575  0.0686  0.0529  0.0913
  415loPI   C1B 6637  14.653   6.278   9.479 -0.0171 -0.2620 -0.0526
  415loPI   C2B 6638  14.755   6.370   9.032  0.3540  0.1286 -0.2540
  415loPI   C3B 6639  14.732   6.434   8.607  0.0710 -0.1564  0.1675
  415loPI   C4B 6640  14.920   6.434   8.191 -0.0942 -0.4162 -0.1721
  416loPI    C1 6641   7.635  14.683  10.755  0.2069 -0.1714 -0.0687
  416loPI    C2 6642   7.983  14.578  10.922  0.1029 -0.0299  0.2446
  416loPI    C3 6643   7.653  14.602  11.146 -0.1285 -0.2411 -0.0650
  416loPI   PO4 6644   7.592  14.565  10.476  0.1826 -0.0582 -0.0243
  416loPI   GL1 6645   7.696  14.759  10.137  0.3051  0.1897  0.0079
  416loPI   GL2 6646   7.713  14.491   9.948  0.1994 -0.0449  0.1067
  416loPI   C1A 6647   7.927  14.880   9.769  0.0357 -0.0259 -0.0187
  416loPI   C2A 6648   7.975  14.716   9.391 -0.2140  0.2173 -0.0337
  416loPI   C3A 6649   7.995  14.726   8.957 -0.3945 -0.3037  0.1619
  416loPI   C4A 6650   7.954  14.725   8.451  0.1118  0.2001  0.2191
  416loPI   C5A 6651   8.053  14.754   8.020  0.0980 -0.0778  0.1529
  416loPI   C6A 6652   8.125  14.602   7.605 -0.1913 -0.0350 -0.2843
  416loPI   C1B 6653   7.550  14.532   9.558 -0.0144  0.0390  0.0981
  416loPI   C2B 6654   7.573  14.563   9.120 -0.1971 -0.0491  0.1419
  416loPI   C3B 6655   7.465  14.627   8.672 -0.1956  0.2702 -0.1025
  416loPI   C4B 6656   7.464  14.526   8.224  0.1675  0.2586  0.1786
  417loPI    C1 6657   7.551   1.979  10.560 -0.1408 -0.3996 -0.1466
  417loPI    C2 6658   7.536   1.755  10.892  0.0260 -0.1092  0.0610
  417loPI    C3 6659   7.337   2.102  10.875  0.0091 -0.1277 -0.1480
  417loPI   PO4 6660   7.593   1.736  10.346  0.1135 -0.1480  0.0849
  417loPI   GL1 6661   7.525   1.677   9.837  0.2726 -0.0787  0.0357
  417loPI   GL2 6662   7.505   1.903   9.623 -0.0867  0.0463 -0.2169
  417loPI   C1A 6663   7.283   1.422   9.510  0.3066 -0.0759 -0.1470
  417loPI   C2A 6664   7.277   1.145   9.229 -0.0679  0.2598  0.0967
  417loPI   C3A 6665   7.167   0.902   8.884 -0.0821 -0.0345  0.1601
  417loPI   C4A 6666   7.061   0.547   8.737 -0.4038 -0.2602 -0.2923
  417loPI   C5A 6667   6.774   0.367   8.455 -0.0907  0.4561  0.2655
  417loPI   C6A 6668   6.658   0.278   8.111 -0.0658  0.2565 -0.0157
  417loPI   C1B 6669   7.516   1.781   9.255 -0.0941 -0.0201  0.0681
  417loPI   C2B 6670   7.294   1.567   8.954  0.1312 -0.2346  0.1242
  417loPI   C3B 6671   7.251   1.338   8.599  0.1991 -0.0376 -0.1492
  417loPI   C4B 6672   7.066   1.222   8.255 -0.0913 -0.2846  0.0166
  418loPI    C1 6673  14.104   6.815  10.637 -0.0353  0.0548 -0.2789
  418loPI    C2 6674  13.923   6.505  10.461  0.1325 -0.0579 -0.2561
  418loPI    C3 6675  14.259   6.447  10.670 -0.0009  0.0922  0.0057
  418loPI   PO4 6676  13.886   6.990  10.422 -0.0859  0.2521 -0.1104
  418loPI   GL1 6677  13.878   6.899   9.960  0.3834 -0.2451 -0.1884
  418loPI   GL2 6678  13.741   6.621   9.901 -0.1214 -0.1543  0.1336
  418loPI   C1A 6679  13.708   7.055   9.535 -0.2047  0.4523  0.0823
  418loPI   C2A 6680  13.739   7.101   9.102 -0.2356  0.0549 -0.0069
  418loPI   C3A 6681  13.855   6.970   8.706 -0.0519 -0.0895 -0.0125
  418loPI   C4A 6682  13.847   7.185   8.292 -0.0637 -0.0311 -0.0497
  418loPI   C5A 6683  13.901   7.515   7.963  0.0142  0.1290 -0.0556
  418loPI   C6A 6684  13.781   7.580   7.605 -0.3809  0.2513 -0.1525
  418loPI   C1B 6685  13.707   6.503   9.493  0.0356 -0.1247 -0.1265
  418loPI   C2B 6686  13.925   6.606   9.066 -0.1380 -0.0387 -0.1528
  418loPI   C3B 6687  13.919   6.482   8.575 -0.0309  0.2098 -0.2494
  418loPI   C4B 6688  14.027   6.745   8.232  0.5772  0.2098  0.3298
  419loPI    C1 6689   6.054  10.497  10.783  0.0000 -0.0003  0.1021
  419loPI    C2 6690   6.178  10.319  11.120 -0.0637  0.1068  0.1828
  419loPI    C3 6691   5.790  10.402  11.069 -0.0785 -0.0614  0.0098
  419loPI   PO4 6692   6.134  10.402  10.608 -0.0041 -0.0420 -0.0890
  419loPI   GL1 6693   6.074  10.343  10.197 -0.1453  0.2984 -0.1575
  419loPI   GL2 6694   6.395  10.086  10.181 -0.1879 -0.0293 -0.2239
  419loPI   C1A 6695   5.838  10.445   9.862  0.1060 -0.1483  0.1249
  419loPI   C2A 6696   5.906  10.556   9.471 -0.0539 -0.2276 -0.1177
  419loPI   C3A 6697   5.783  10.610   9.070  0.0235 -0.1730  0.5203
  419loPI   C4A 6698   5.647  10.734   8.742 -0.1535 -0.2281  0.3759
  419loPI   C5A 6699   5.793  10.674   8.284  0.1240  0.3081 -0.0776
  419loPI   C6A 6700   5.710  10.766   7.934 -0.1139  0.0834  0.0939
  419loPI   C1B 6701   6.271  10.269   9.678 -0.1710  0.1301 -0.1996
  419loPI   C2B 6702   6.212  10.267   9.228 -0.0184 -0.0412  0.1459
  419loPI   C3B 6703   6.168  10.434   8.844  0.1517  0.2260 -0.3963
  419loPI   C4B 6704   6.153  10.425   8.502  0.0236 -0.1001 -0.0666
  420loPI    C1 6705  10.630  11.240  10.701 -0.0331 -0.1634 -0.2800
  420loPI    C2 6706  10.507  11.371  11.059 -0.1682  0.1277 -0.4298
  420loPI    C3 6707  10.823  11.127  11.033 -0.2438 -0.0097 -0.1023
  420loPI   PO4 6708  10.473  11.192  10.524  0.3231 -0.2613 -0.1927
  420loPI   GL1 6709  10.578  11.216  10.048 -0.3176  0.3013 -0.3386
  420loPI   GL2 6710  10.621  10.987   9.910  0.4259  0.1048 -0.1201
  420loPI   C1A 6711  10.612  11.464   9.626  0.1600 -0.2103  0.1131
  420loPI   C2A 6712  10.653  11.690   9.266  0.2923  0.0790 -0.2238
  420loPI   C3A 6713  10.627  11.609   8.909 -0.2199  0.1023 -0.1638
  420loPI   C4A 6714  10.847  11.659   8.505  0.0687  0.1372 -0.0055
  420loPI   C5A 6715  11.050  11.700   8.205  0.1216  0.0599 -0.0817
  420loPI   C6A 6716  11.233  11.852   7.842 -0.0143 -0.1938  0.0168
  420loPI   C1B 6717  10.479  10.976   9.445  0.5879 -0.0425  0.1063
  420loPI   C2B 6718  10.422  10.993   9.141  0.0205  0.0046 -0.0165
  420loPI   C3B 6719  10.564  11.037   8.792  0.1356  0.0904 -0.1997
  420loPI   C4B 6720  10.392  11.363   8.421  0.0030 -0.0922  0.0381
  421loPI    C1 6721   1.048  15.802  11.057 -0.0753 -0.1859  0.3348
  421loPI    C2 6722   1.336  16.079  11.079 -0.1290 -0.1135  0.1438
  421loPI    C3 6723   1.413  15.702  11.188  0.0090 -0.0728  0.1890
  421loPI   PO4 6724   0.897  15.719  10.828 -0.0715  0.2537 -0.2000
  421loPI   GL1 6725   0.782  15.489  10.441  0.0397  0.2070  0.2531
  421loPI   GL2 6726   1.097  15.544  10.351 -0.0056 -0.2694 -0.0085
  421loPI   C1A 6727   0.620  15.411  10.045  0.0086  0.1929 -0.5386
  421loPI   C2A 6728   0.673  15.280   9.706  0.0258  0.1746 -0.0793
  421loPI   C3A 6729   0.732  15.307   9.352 -0.0393 -0.0871 -0.0166
  421loPI   C4A 6730   0.634  15.370   8.892 -0.2196  0.6501 -0.1807
  421loPI   C5A 6731   0.644  15.479   8.444  0.0732  0.1997  0.1837
  421loPI   C6A 6732   0.267  15.448   8.215 -0.1237 -0.1367  0.3492
  421loPI   C1B 6733   1.167  15.472   9.988 -0.0251 -0.0070  0.0635
  421loPI   C2B 6734   1.167  15.492   9.563  0.0518 -0.0039  0.2364
  421loPI   C3B 6735   1.111  15.498   9.102 -0.0627 -0.1001 -0.4806
  421loPI   C4B 6736   1.089  15.472   8.694 -0.1897 -0.0891  0.3843
  422loPI    C1 6737   5.894   9.337  10.501 -0.2918 -0.0241 -0.0562
  422loPI    C2 6738   5.770   9.240  10.869 -0.0384 -0.0210  0.0320
  422loPI    C3 6739   5.671   9.594  10.712 -0.0185  0.0414  0.1591
  422loPI   PO4 6740   5.972   9.147  10.350  0.3111  0.2676  0.0017
  422loPI   GL1 6741   6.189   9.253  10.047 -0.0777 -0.1102 -0.1638
  422loPI   GL2 6742   6.222   9.541  10.004 -0.0953 -0.2058 -0.0997
  422loPI   C1A 6743   6.054   9.199   9.568  0.0599 -0.0105  0.2159
  422loPI   C2A 6744   6.110   9.241   9.218 -0.4535  0.0933 -0.2630
  422loPI   C3A 6745   6.020   9.245   8.745  0.0238  0.1336 -0.0162
  422loPI   C4A 6746   6.177   9.181   8.335 -0.2064 -0.1995 -0.1410
  422loPI   C5A 6747   6.324   9.214   7.904  0.2074 -0.0454 -0.3543
  422loPI   C6A 6748   6.343   9.465   7.567  0.1682 -0.0361  0.0405
  422loPI   C1B 6749   6.191   9.762   9.609  0.0694 -0.1341 -0.0620
  422loPI   C2B 6750   6.100   9.806   9.133 -0.2121  0.1459 -0.2117
  422loPI   C3B 6751   6.035   9.768   8.785 -0.0672 -0.3100 -0.1900
  422loPI   C4B 6752   6.273   9.664   8.369 -0.1161  0.2860  0.3376
  423loPI    C1 6753  10.902   5.726  10.312  0.1963 -0.1895 -0.1531
  423loPI    C2 6754  11.080   6.000  10.543  0.2450 -0.1732 -0.2101
  423loPI    C3 6755  10.687   5.933  10.579  0.2153 -0.0292 -0.2614
  423loPI   PO4 6756  10.946   5.828  10.084  0.2212  0.1110 -0.0707
  423loPI   GL1 6757  10.841   6.063   9.727 -0.2222 -0.2062  0.1331
  423loPI   GL2 6758  11.186   5.962   9.711  0.0998 -0.0119  0.1570
  423loPI   C1A 6759  10.634   6.086   9.303  0.1754  0.0842 -0.0584
  423loPI   C2A 6760  10.455   6.386   9.073  0.0066 -0.3751  0.0848
  423loPI   C3A 6761  10.412   6.591   8.736 -0.1306  0.2540 -0.1708
  423loPI   C4A 6762  10.503   6.662   8.329  0.3165  0.2719 -0.2865
  423loPI   C5A 6763  10.468   6.581   7.924 -0.1148 -0.1728  0.3916
  423loPI   C6A 6764  10.463   6.311   7.566 -0.0503 -0.2113  0.0281
  423loPI   C1B 6765  11.103   5.893   9.295 -0.0067  0.1235  0.2720
  423loPI   C2B 6766  11.117   5.748   8.842 -0.1905  0.0542 -0.0489
  423loPI   C3B 6767  11.177   5.824   8.513 -0.1114  0.0178  0.1053
  423loPI   C4B 6768  11.304   6.034   8.178  0.0288 -0.0456  0.1343
  424loPI    C1 6769  15.428  10.873  11.443  0.0485 -0.0251  0.1078
  424loPI    C2 6770  15.216  10.604  11.650  0.2133 -0.1616  0.1018
  424loPI    C3 6771  15.058  10.961  11.565  0.0462 -0.2030  0.2339
  424loPI   PO4 6772  15.499  10.760  11.195  0.1525 -0.2783 -0.0659
  424loPI   GL1 6773  15.691  10.703  10.755  0.1178  0.0058  0.0573
  424loPI   GL2 6774  15.650  11.004  10.832 -0.1793 -0.0432 -0.0871
  424loPI   C1A 6775  15.480  10.811  10.402  0.0083  0.1095 -0.0169
  424loPI   C2A 6776  15.560  10.902   9.984  0.0791 -0.0447 -0.2244
  424loPI   C3A 6777  15.742  10.938   9.565  0.1036  0.1310  0.0850
  424loPI   C4A 6778  15.746  10.951   9.168 -0.1780 -0.0733 -0.0743
  424loPI   C5A 6779  15.684  11.005   8.769  0.1478  0.0206 -0.1101
  424loPI   C6A 6780  15.366  11.258   8.444  0.3561  0.2423 -0.0309
  424loPI   C1B 6781  15.771  11.213  10.436 -0.2095 -0.0099 -0.0732
  424loPI   C2B 6782  15.692  11.373  10.007  0.1955  0.1501 -0.1576
  424loPI   C3B 6783  15.886  11.420   9.652  0.0274 -0.1991 -0.0960
  424loPI   C4B 6784  15.868  11.500   9.211 -0.0279 -0.1227  0.4107
  425loPI    C1 6785  13.113  10.530  10.624  0.2837 -0.0427  0.0275
  425loPI    C2 6786  13.160  10.360  10.983 -0.0201 -0.0664  0.0589
  425loPI    C3 6787  12.892  10.652  10.934 -0.1343 -0.2103 -0.1957
  425loPI   PO4 6788  13.011  10.329  10.408 -0.1390 -0.0702  0.0244
  425loPI   GL1 6789  13.021  10.309   9.984  0.1088  0.1694 -0.2612
  425loPI   GL2 6790  12.986  10.019   9.985 -0.0327  0.0573  0.3439
  425loPI   C1A 6791  12.851  10.555   9.700  0.2690  0.1231 -0.0479
  425loPI   C2A 6792  12.956  10.521   9.216 -0.2288  0.0032  0.0605
  425loPI   C3A 6793  13.396  10.498   8.804 -0.1125 -0.0331  0.2170
  425loPI   C4A 6794  13.397  10.629   8.327  0.0586  0.0483 -0.1147
  425loPI   C5A 6795  13.349  10.991   8.085  0.2583 -0.2319 -0.1222
  425loPI   C6A 6796  13.317  11.440   8.142 -0.1353 -0.3285  0.0905
  425loPI   C1B 6797  13.213  10.180   9.477 -0.0462  0.2345  0.3932
  425loPI   C2B 6798  13.265  10.062   8.989 -0.0264  0.0992  0.1227
  425loPI   C3B 6799  13.364  10.072   8.539 -0.0673 -0.0885 -0.1066
  425loPI   C4B 6800  13.428  10.123   8.215  0.0979 -0.1416  0.1836
  426loPI    C1 6801   4.038  15.760  10.542 -0.0424 -0.0187 -0.0731
  426loPI    C2 6802   4.028  15.362  10.570  0.0483 -0.0111  0.0778
  426loPI    C3 6803   4.358  15.561  10.676  0.0198  0.1009 -0.0421
  426loPI   PO4 6804   3.810  15.834  10.633  0.2041  0.0364  0.3095
  426loPI   GL1 6805   3.478  15.910  10.388  0.0350 -0.3859  0.0256
  426loPI   GL2 6806   3.640  16.160  10.295 -0.0429 -0.1449 -0.0493
  426loPI   C1A 6807   3.440  15.855   9.979  0.0796  0.1544 -0.0723
  426loPI   C2A 6808   3.535  15.797   9.544 -0.2810  0.0911  0.6210
  426loPI   C3A 6809   3.528  15.806   9.159  0.1299 -0.1122 -0.1848
  426loPI   C4A 6810   3.607  15.838   8.753 -0.0101 -0.0118 -0.1375
  426loPI   C5A 6811   3.694  15.915   8.350  0.0141  0.1181  0.0172
  426loPI   C6A 6812   4.087  15.966   8.234 -0.0774  0.0255 -0.3909
  426loPI   C1B 6813   3.602  16.396  10.000 -0.1423 -0.2037 -0.1495
  426loPI   C2B 6814   3.641  16.381   9.556 -0.1576  0.0084 -0.1578
  426loPI   C3B 6815   3.578  16.367   9.074 -0.2738  0.1349  0.0721
  426loPI   C4B 6816   3.505  16.351   8.655 -0.1522 -0.1874 -0.0533
  427loPI    C1 6817  12.136   8.200  10.475 -0.1556 -0.0511 -0.0270
  427loPI    C2 6818  11.939   8.244  10.129 -0.1885  0.0371  0.0027
  427loPI    C3 6819  11.773   8.367  10.471  0.0008  0.2993  0.0035
  427loPI   PO4 6820  12.388   8.324  10.333  0.5704 -0.1161 -0.0767
  427loPI   GL1 6821  12.604   8.212   9.804 -0.1774 -0.1276 -0.3859
  427loPI   GL2 6822  12.343   8.234   9.830  0.0436  0.1506  0.0161
  427loPI   C1A 6823  12.634   8.184   9.354  0.1379  0.2700  0.2299
  427loPI   C2A 6824  12.633   8.225   8.986 -0.2364  0.0295  0.0314
  427loPI   C3A 6825  12.794   8.325   8.593 -0.2389  0.0054 -0.2772
  427loPI   C4A 6826  12.758   8.366   8.148 -0.0320  0.1117 -0.0564
  427loPI   C5A 6827  13.073   8.391   7.855  0.2192 -0.0977  0.1388
  427loPI   C6A 6828  13.547   8.599   7.782  0.0996  0.0577 -0.0600
  427loPI   C1B 6829  12.423   8.609   9.580 -0.3259 -0.1842  0.2610
  427loPI   C2B 6830  12.736   8.666   9.258 -0.2502 -0.2973  0.2579
  427loPI   C3B 6831  12.796   8.795   8.927  0.0147 -0.0421  0.4064
  427loPI   C4B 6832  12.802   8.771   8.482 -0.1510  0.0871 -0.0868
  428loPI    C1 6833   5.149   8.664  10.723 -0.1515  0.0144  0.0097
  428loPI    C2 6834   5.440   8.880  10.891 -0.0658 -0.0780 -0.0194
  428loPI    C3 6835   5.141   8.739  11.116 -0.0249 -0.0842  0.0316
  428loPI   PO4 6836   5.099   8.841  10.462  0.0404 -0.1101  0.0698
  428loPI   GL1 6837   4.852   9.125  10.249 -0.0249 -0.1005  0.0700
  428loPI   GL2 6838   4.810   9.336  10.417 -0.3642  0.1253  0.3266
  428loPI   C1A 6839   5.113   9.228   9.786  0.1065  0.0013  0.2829
  428loPI   C2A 6840   5.086   9.283   9.302  0.0984  0.0311 -0.3918
  428loPI   C3A 6841   5.094   9.419   8.923 -0.1150 -0.2742  0.1691
  428loPI   C4A 6842   5.269   9.310   8.645 -0.0850 -0.0331  0.2183
  428loPI   C5A 6843   5.635   9.350   8.430  0.0237 -0.4547  0.0804
  428loPI   C6A 6844   5.832   9.413   8.014 -0.3249  0.0926  0.1091
  428loPI   C1B 6845   4.648   9.475  10.021 -0.0094  0.1643  0.0345
  428loPI   C2B 6846   4.755   9.647   9.531 -0.4072 -0.0915 -0.0889
  428loPI   C3B 6847   4.667   9.725   9.147  0.0232 -0.1920  0.2903
  428loPI   C4B 6848   4.690   9.826   8.712 -0.0728 -0.2243  0.1407
  429loPI    C1 6849   9.658  10.266  10.539  0.1355  0.1331 -0.1993
  429loPI    C2 6850   9.856  10.613  10.540  0.1436  0.1292 -0.0050
  429loPI    C3 6851   9.590  10.534  10.828 -0.1402  0.1326 -0.2613
  429loPI   PO4 6852   9.757  10.155  10.393  0.0981  0.2101  0.3509
  429loPI   GL1 6853   9.792  10.008   9.896  0.2341 -0.0984  0.0869
  429loPI   GL2 6854   9.926  10.181   9.681 -0.0143  0.1409 -0.1177
  429loPI   C1A 6855   9.416  10.029   9.694 -0.2562  0.1521 -0.0766
  429loPI   C2A 6856   9.349  10.220   9.273  0.1089  0.0824 -0.0181
  429loPI   C3A 6857   9.332  10.236   8.767  0.0882 -0.1203 -0.0530
  429loPI   C4A 6858   9.390  10.105   8.288 -0.2028 -0.1671  0.1051
  429loPI   C5A 6859   9.179   9.884   7.964 -0.0338  0.1789  0.0939
  429loPI   C6A 6860   9.147   9.558   7.733 -0.1707  0.2985  0.1677
  429loPI   C1B 6861   9.808  10.404   9.292 -0.1975  0.0070 -0.1217
  429loPI   C2B 6862   9.781  10.407   8.866  0.2641  0.1937  0.1306
  429loPI   C3B 6863  10.039  10.271   8.498  0.1653 -0.3624 -0.1934
  429loPI   C4B 6864  10.297  10.324   8.066 -0.2790 -0.2993  0.0952
  430loPI    C1 6865  14.112   7.821  10.569 -0.0859 -0.1904 -0.0124
  430loPI    C2 6866  14.000   7.776  10.950 -0.1651  0.0436 -0.0068
  430loPI    C3 6867  13.742   7.923  10.682  0.0254  0.2891 -0.0598
  430loPI   PO4 6868  14.345   7.696  10.527  0.1066  0.1457  0.1766
  430loPI   GL1 6869  14.588   7.764  10.241  0.1915 -0.2384 -0.1818
  430loPI   GL2 6870  14.945   7.626  10.198 -0.0755 -0.2327 -0.4061
  430loPI   C1A 6871  14.554   8.075   9.929 -0.0349  0.0042  0.1533
  430loPI   C2A 6872  14.632   8.104   9.561  0.1334  0.2599 -0.1305
  430loPI   C3A 6873  14.560   8.179   9.123 -0.1755 -0.0432  0.2616
  430loPI   C4A 6874  14.744   8.216   8.735 -0.0685 -0.6397 -0.0317
  430loPI   C5A 6875  14.632   8.466   8.390 -0.1229 -0.0611 -0.3319
  430loPI   C6A 6876  14.668   8.731   8.050 -0.2574 -0.1768 -0.0236
  430loPI   C1B 6877  15.019   7.875   9.819 -0.1112  0.1751  0.0649
  430loPI   C2B 6878  15.047   7.786   9.426 -0.0805 -0.1875 -0.0250
  430loPI   C3B 6879  15.066   7.814   8.930  0.1104  0.1983 -0.0763
  430loPI   C4B 6880  15.236   7.841   8.565 -0.0706  0.0297 -0.0440
  431loPI    C1 6881  11.509   3.982  10.597 -0.0787 -0.1184  0.2639
  431loPI    C2 6882  11.144   4.143  10.615 -0.0066  0.0658  0.1086
  431loPI    C3 6883  11.467   4.379  10.612  0.1123 -0.0940  0.1880
  431loPI   PO4 6884  11.580   3.770  10.336 -0.3122 -0.0797 -0.2298
  431loPI   GL1 6885  11.486   3.469   9.973 -0.1030  0.1742 -0.4993
  431loPI   GL2 6886  11.768   3.329   9.849  0.0525 -0.3751 -0.1977
  431loPI   C1A 6887  11.310   3.345   9.550  0.0277  0.0826  0.1415
  431loPI   C2A 6888  11.353   3.183   9.206 -0.2464  0.1970  0.0459
  431loPI   C3A 6889  11.474   3.262   8.718 -0.0713 -0.0255 -0.6525
  431loPI   C4A 6890  11.370   3.085   8.373  0.0109  0.0544 -0.0096
  431loPI   C5A 6891  11.096   2.996   8.007  0.1368 -0.1456  0.2426
  431loPI   C6A 6892  10.877   3.225   7.669 -0.4116 -0.1286  0.1045
  431loPI   C1B 6893  11.845   3.423   9.425  0.1099  0.1343 -0.0816
  431loPI   C2B 6894  11.848   3.362   8.965 -0.0438 -0.0674 -0.0123
  431loPI   C3B 6895  11.941   3.284   8.527 -0.0308 -0.0307  0.0687
  431loPI   C4B 6896  11.832   3.232   8.151  0.0186 -0.2393  0.2463
  432loPI    C1 6897   9.918  16.794  11.026 -0.3237  0.0397 -0.3187
  432loPI    C2 6898  10.121  16.484  10.875  0.0802  0.1799 -0.0791
  432loPI    C3 6899   9.852  16.425  11.165 -0.0148  0.0278 -0.1966
  432loPI   PO4 6900   9.861  16.932  10.678  0.2480 -0.1437 -0.2867
  432loPI   GL1 6901  10.120  17.120  10.308  0.1033  0.2589  0.0920
  432loPI   GL2 6902  10.219  16.866  10.092 -0.0698 -0.3254 -0.0255
  432loPI   C1A 6903   9.857  17.253  10.002  0.0529  0.0905 -0.0500
  432loPI   C2A 6904   9.847  17.254   9.572  0.2819 -0.1236 -0.2098
  432loPI   C3A 6905   9.924  17.142   9.062  0.1367 -0.0387 -0.0690
  432loPI   C4A 6906  10.035  17.241   8.618  0.1917  0.2700 -0.1747
  432loPI   C5A 6907  10.164  17.101   8.277  0.2068 -0.1444  0.2845
  432loPI   C6A 6908   9.911  16.937   7.921 -0.1040  0.5212  0.4095
  432loPI   C1B 6909  10.255  16.885   9.628 -0.1126  0.0492  0.0126
  432loPI   C2B 6910  10.383  16.875   9.145 -0.1972 -0.2499  0.0663
  432loPI   C3B 6911  10.375  16.832   8.727  0.1143  0.1548  0.1545
  432loPI   C4B 6912  10.530  16.768   8.280  0.0161  0.0898 -0.2235
  433loPI    C1 6913   4.071  12.525  10.909 -0.0665  0.0476  0.1106
  433loPI    C2 6914   4.365  12.344  11.111 -0.0412  0.0955  0.1169
  433loPI    C3 6915   4.307  12.737  11.154 -0.0106  0.1131  0.0006
  433loPI   PO4 6916   4.040  12.481  10.696  0.1007 -0.0820 -0.0088
  433loPI   GL1 6917   4.173  12.530  10.374  0.0982 -0.1056 -0.1587
  433loPI   GL2 6918   3.779  12.421  10.255 -0.1882  0.1646  0.0069
  433loPI   C1A 6919   4.225  12.464   9.963  0.2355  0.0171  0.2867
  433loPI   C2A 6920   4.244  12.576   9.622  0.1886 -0.0115  0.0041
  433loPI   C3A 6921   4.331  12.686   9.219 -0.1234  0.0017 -0.0625
  433loPI   C4A 6922   4.188  12.778   8.882 -0.0721 -0.1438  0.0675
  433loPI   C5A 6923   4.332  12.732   8.503 -0.1586 -0.2664 -0.1821
  433loPI   C6A 6924   4.404  12.669   8.027 -0.0210 -0.2602  0.3953
  433loPI   C1B 6925   3.722  12.392   9.813  0.4444 -0.0271 -0.4008
  433loPI   C2B 6926   3.792  12.362   9.465  0.0328 -0.1030 -0.2399
  433loPI   C3B 6927   3.817  12.478   9.084  0.1569 -0.0826  0.1179
  433loPI   C4B 6928   3.592  12.626   8.745 -0.3124  0.0857  0.0889
  434loPI    C1 6929  14.670   7.238  11.113 -0.2702 -0.1694  0.2259
  434loPI    C2 6930  15.030   7.086  11.030 -0.2407  0.1426 -0.2594
  434loPI    C3 6931  14.767   6.873  11.244  0.2297 -0.0842  0.1111
  434loPI   PO4 6932  14.654   7.306  10.728 -0.0945  0.2123  0.0896
  434loPI   GL1 6933  14.411   7.104  10.349  0.1048  0.1860 -0.3073
  434loPI   GL2 6934  14.259   6.753  10.193 -0.4235 -0.1199 -0.0815
  434loPI   C1A 6935  14.734   7.270   9.978 -0.0291 -0.0512  0.0279
  434loPI   C2A 6936  14.867   7.333   9.589 -0.3121  0.0980  0.1610
  434loPI   C3A 6937  14.978   7.319   9.044  0.1152  0.3053  0.0959
  434loPI   C4A 6938  14.938   7.408   8.609 -0.1856  0.1198  0.0810
  434loPI   C5A 6939  15.194   7.309   8.256  0.1827 -0.1625 -0.0394
  434loPI   C6A 6940  15.216   7.704   8.082  0.1891 -0.1710 -0.1045
  434loPI   C1B 6941  14.253   6.646   9.690 -0.1786 -0.0021 -0.1651
  434loPI   C2B 6942  14.351   6.685   9.271 -0.0935 -0.0975 -0.0636
  434loPI   C3B 6943  14.333   6.682   8.790 -0.0715  0.2177  0.1407
  434loPI   C4B 6944  14.438   6.799   8.475  0.0651 -0.0941  0.0197
  435loPI    C1 6945  17.692   4.906  10.753  0.0566 -0.2029  0.0253
  435loPI    C2 6946  17.492   5.037  11.074 -0.0080  0.1203 -0.1422
  435loPI    C3 6947  17.890   5.001  11.087 -0.0272 -0.0414  0.0304
  435loPI   PO4 6948  17.509   4.668  10.647  0.0400  0.1158 -0.4622
  435loPI   GL1 6949  17.338   4.450  10.327 -0.2329 -0.0206  0.0655
  435loPI   GL2 6950  17.092   4.306  10.211 -0.4730  0.0072 -0.0975
  435loPI   C1A 6951  17.634   4.606   9.998 -0.2122  0.0155  0.1672
  435loPI   C2A 6952  17.592   4.813   9.602  0.0179  0.3275 -0.2479
  435loPI   C3A 6953  17.605   4.768   9.138  0.3049  0.3081  0.2882
  435loPI   C4A 6954  17.602   4.865   8.742 -0.2133 -0.4218 -0.2304
  435loPI   C5A 6955  17.637   4.919   8.354  0.2102 -0.0034  0.0707
  435loPI   C6A 6956  17.639   4.641   7.940 -0.1713 -0.1420 -0.0097
  435loPI   C1B 6957  17.397   4.154   9.849  0.0105 -0.0278 -0.0128
  435loPI   C2B 6958  17.414   4.370   9.421  0.0088  0.0682  0.2915
  435loPI   C3B 6959  17.508   4.248   8.983 -0.2662  0.0736  0.0382
  435loPI   C4B 6960  17.538   4.339   8.511 -0.3116  0.1559 -0.1168
  436loPI    C1 6961  16.043   1.119  10.714 -0.0264 -0.1175 -0.1262
  436loPI    C2 6962  15.742   1.361  10.817 -0.0824 -0.2531  0.0335
  436loPI    C3 6963  16.025   1.270  11.084  0.1155 -0.1072 -0.1229
  436loPI   PO4 6964  16.121   1.190  10.505  0.0081 -0.0060  0.1013
  436loPI   GL1 6965  16.089   1.012  10.102 -0.0084 -0.0987 -0.1714
  436loPI   GL2 6966  16.345   1.122   9.978 -0.0166  0.1761 -0.2378
  436loPI   C1A 6967  15.961   0.911   9.745 -0.5319  0.0347  0.0449
  436loPI   C2A 6968  16.029   0.811   9.322  0.2790 -0.0532  0.0488
  436loPI   C3A 6969  15.861   0.764   8.971 -0.1387 -0.2877  0.0049
  436loPI   C4A 6970  15.929   0.862   8.568  0.5007  0.3580 -0.2004
  436loPI   C5A 6971  15.891   0.940   8.172 -0.2451  0.1819 -0.0817
  436loPI   C6A 6972  15.614   1.052   7.842 -0.1992 -0.1731  0.2688
  436loPI   C1B 6973  16.492   1.099   9.647  0.2265 -0.2550  0.1243
  436loPI   C2B 6974  16.455   1.050   9.206  0.1175 -0.0133  0.1013
  436loPI   C3B 6975  16.394   1.095   8.680  0.0898 -0.0689  0.0353
  436loPI   C4B 6976  16.344   1.094   8.319  0.1309 -0.1397  0.1432
  437loPI    C1 6977   0.483   3.968  10.864 -0.1558  0.1303 -0.0008
  437loPI    C2 6978   0.246   4.241  11.034 -0.1155  0.1052  0.0970
  437loPI    C3 6979   0.096   3.887  10.924 -0.1916  0.2058 -0.1290
  437loPI   PO4 6980   0.650   4.081  10.585 -0.2302 -0.3317  0.1692
  437loPI   GL1 6981   0.495   4.027  10.132  0.0541 -0.1711  0.2346
  437loPI   GL2 6982   0.690   4.299  10.162 -0.3342  0.1084 -0.0692
  437loPI   C1A 6983   0.260   4.090   9.715 -0.1932 -0.2916 -0.1201
  437loPI   C2A 6984   0.090   4.104   9.371 -0.0365 -0.1443  0.0444
  437loPI   C3A 6985   0.190   4.150   9.045  0.2445 -0.0070  0.2273
  437loPI   C4A 6986   0.140   4.261   8.760 -0.0563  0.3811 -0.3651
  437loPI   C5A 6987   0.182   4.209   8.342  0.0238  0.1425 -0.1399
  437loPI   C6A 6988   0.459   3.958   8.146  0.0582 -0.0146 -0.0183
  437loPI   C1B 6989   0.677   4.308   9.726  0.0694 -0.1870  0.1859
  437loPI   C2B 6990   0.637   4.263   9.304  0.3880  0.0207  0.3256
  437loPI   C3B 6991   0.682   4.310   8.904  0.1018 -0.3484 -0.0084
  437loPI   C4B 6992   0.606   4.365   8.519 -0.4095 -0.0767  0.4087
  438loPI    C1 6993  18.057   0.101  10.844 -0.0740  0.0618 -0.0147
  438loPI    C2 6994  18.255  -0.042  11.160  0.0441  0.1287 -0.0580
  438loPI    C3 6995  18.003   0.265  11.205  0.0708  0.1466 -0.0308
  438loPI   PO4 6996  18.193   0.183  10.580  0.1299 -0.0902  0.0617
  438loPI   GL1 6997  18.087   0.186  10.152  0.0917 -0.1045 -0.1637
  438loPI   GL2 6998  17.832   0.067  10.173  0.1852 -0.0353  0.1800
  438loPI   C1A 6999  18.040   0.138   9.722  0.0345 -0.0082  0.0498
  438loPI   C2A 7000  18.108   0.159   9.371 -0.1079  0.1703  0.1104
  438loPI   C3A 7001  18.074   0.269   8.899 -0.0283 -0.0165 -0.0487
  438loPI   C4A 7002  18.080   0.124   8.436 -0.1523 -0.1212 -0.0735
  438loPI   C5A 7003  18.069  -0.376   8.201  0.0790 -0.0639  0.0311
  438loPI   C6A 7004  17.945  -0.851   8.003  0.2394 -0.0256 -0.2473
  438loPI   C1B 7005  17.713   0.480   9.965 -0.1048  0.0434  0.0762
  438loPI   C2B 7006  17.756   0.533   9.502 -0.0960 -0.2021 -0.0323
  438loPI   C3B 7007  17.679   0.706   9.089  0.0583 -0.0249  0.0296
  438loPI   C4B 7008  17.621   0.587   8.694  0.0605 -0.0603 -0.3955
  439loPI    C1 7009   5.752   4.315   9.929 -0.0593  0.0439  0.0545
  439loPI    C2 7010   5.926   3.974  10.046  0.0789  0.0391 -0.1598
  439loPI    C3 7011   6.101   4.204   9.768 -0.0327  0.2662 -0.0450
  439loPI   PO4 7012   5.466   4.295   9.908 -0.4763  0.2809  0.0371
  439loPI   GL1 7013   5.270   4.330   9.546 -0.1082  0.1538  0.0994
  439loPI   GL2 7014   5.258   4.008   9.582  0.1806  0.4205  0.3794
  439loPI   C1A 7015   5.137   4.269   9.143  0.0020 -0.0699  0.0061
  439loPI   C2A 7016   5.139   4.366   8.742 -0.1038 -0.0313  0.3905
  439loPI   C3A 7017   5.122   4.420   8.301 -0.1092 -0.2291 -0.0575
  439loPI   C4A 7018   4.930   4.461   7.957 -0.2925  0.0960 -0.0203
  439loPI   C5A 7019   4.769   4.248   7.655 -0.0165  0.1904 -0.2692
  439loPI   C6A 7020   4.821   3.863   7.450  0.1228 -0.0100  0.0767
  439loPI   C1B 7021   5.046   3.803   9.181  0.3363  0.4074 -0.2177
  439loPI   C2B 7022   5.128   3.838   8.803  0.2449  0.1299  0.3360
  439loPI   C3B 7023   5.311   3.949   8.422 -0.0463 -0.2480 -0.1260
  439loPI   C4B 7024   5.699   4.018   8.190 -0.0955  0.0536  0.0512
  440loPI    C1 7025   3.522  14.387  10.570 -0.0576  0.0033  0.0126
  440loPI    C2 7026   3.537  14.545  10.937  0.1959 -0.3371  0.1543
  440loPI    C3 7027   3.369  14.186  10.880  0.0537 -0.2356 -0.0847
  440loPI   PO4 7028   3.766  14.454  10.457 -0.3793 -0.0318  0.1160
  440loPI   GL1 7029   3.714  14.463  10.071 -0.4343  0.1104  0.1204
  440loPI   GL2 7030   3.463  14.667  10.146  0.0222 -0.3074  0.0269
  440loPI   C1A 7031   3.666  14.359   9.634  0.0015 -0.2096  0.3047
  440loPI   C2A 7032   3.656  14.297   9.152  0.0566  0.0956  0.0522
  440loPI   C3A 7033   3.642  14.434   8.780  0.2161  0.0062  0.1149
  440loPI   C4A 7034   3.679  14.409   8.345  0.0679 -0.2060  0.3657
  440loPI   C5A 7035   4.053  14.391   8.017  0.3873 -0.2807  0.0198
  440loPI   C6A 7036   4.310  14.184   7.749 -0.1050 -0.1330  0.3966
  440loPI   C1B 7037   3.282  14.764   9.792  0.2117  0.1633  0.2650
  440loPI   C2B 7038   3.216  14.739   9.322 -0.1192  0.3008 -0.2581
  440loPI   C3B 7039   3.271  14.712   8.886 -0.0256  0.0154  0.0394
  440loPI   C4B 7040   3.282  14.724   8.491 -0.0561 -0.0151 -0.1042
  441loPI    C1 7041   5.540  17.168  10.444  0.1041 -0.0501 -0.0446
  441loPI    C2 7042   5.557  17.340  10.805  0.0566 -0.0855 -0.0253
  441loPI    C3 7043   5.621  17.558  10.476 -0.2426  0.0229 -0.0153
  441loPI   PO4 7044   5.752  16.901  10.438  0.1002 -0.4780  0.1675
  441loPI   GL1 7045   5.559  16.571  10.058 -0.1806  0.0335 -0.0138
  441loPI   GL2 7046   5.467  16.867  10.054 -0.3915 -0.0068 -0.0535
  441loPI   C1A 7047   5.504  16.445   9.579  0.1389  0.0797 -0.1505
  441loPI   C2A 7048   5.532  16.604   9.192  0.2261  0.0972  0.0604
  441loPI   C3A 7049   5.575  16.440   8.749  0.0480  0.1102 -0.1964
  441loPI   C4A 7050   5.643  16.407   8.276  0.5623  0.1101  0.0304
  441loPI   C5A 7051   5.622  16.672   7.923 -0.0623 -0.1072 -0.2371
  441loPI   C6A 7052   5.682  16.881   7.520 -0.0446 -0.2526  0.2466
  441loPI   C1B 7053   5.671  16.907   9.613 -0.2522 -0.2881 -0.4162
  441loPI   C2B 7054   6.078  17.076   9.444 -0.3218 -0.0125 -0.1433
  441loPI   C3B 7055   6.196  17.059   8.948 -0.2175 -0.0121 -0.1119
  441loPI   C4B 7056   6.193  17.069   8.546  0.2105 -0.3208 -0.0724
  442loPI    C1 7057   8.608   5.532  10.457 -0.1602  0.0889  0.1390
  442loPI    C2 7058   8.517   5.827  10.711 -0.1710  0.0785  0.1472
  442loPI    C3 7059   8.807   5.567  10.802 -0.1416  0.1042  0.1267
  442loPI   PO4 7060   8.563   5.722  10.229  0.1832 -0.1622 -0.0131
  442loPI   GL1 7061   8.500   5.822   9.714 -0.2321 -0.2300 -0.1356
  442loPI   GL2 7062   8.541   5.460   9.587 -0.3318 -0.3443 -0.0888
  442loPI   C1A 7063   8.837   6.048   9.510  0.3115  0.1268 -0.2800
  442loPI   C2A 7064   9.184   6.069   9.309  0.1258 -0.3527  0.1048
  442loPI   C3A 7065   9.268   5.856   9.032  0.0215  0.4214  0.2736
  442loPI   C4A 7066   9.390   5.651   8.675  0.1812 -0.1049  0.2962
  442loPI   C5A 7067   9.197   5.628   8.280  0.1163 -0.1964  0.0575
  442loPI   C6A 7068   9.266   5.947   8.033 -0.1126  0.1610  0.1602
  442loPI   C1B 7069   8.271   5.352   9.237  0.2155 -0.0236 -0.2017
  442loPI   C2B 7070   7.910   5.197   8.964 -0.3282  0.0774 -0.2570
  442loPI   C3B 7071   7.891   5.122   8.540  0.1692 -0.0410  0.3612
  442loPI   C4B 7072   7.840   5.001   7.987 -0.0526 -0.1080 -0.1811
  443loPI    C1 7073  15.524  14.841  10.964  0.0742 -0.0576  0.2775
  443loPI    C2 7074  15.604  15.173  11.173  0.2538  0.0334  0.0682
  443loPI    C3 7075  15.247  14.996  11.207  0.1807  0.2093  0.2321
  443loPI   PO4 7076  15.523  14.891  10.726 -0.6950 -0.3074 -0.1180
  443loPI   GL1 7077  15.243  14.922  10.368 -0.0535  0.1652 -0.2360
  443loPI   GL2 7078  15.560  15.043  10.281 -0.0033 -0.0255  0.2561
  443loPI   C1A 7079  14.982  14.932  10.029 -0.1354 -0.2213 -0.2125
  443loPI   C2A 7080  14.914  14.971   9.621  0.0236 -0.0980 -0.2284
  443loPI   C3A 7081  15.061  14.916   9.133  0.0531 -0.1036  0.2519
  443loPI   C4A 7082  15.194  14.989   8.680 -0.0572 -0.0819 -0.0710
  443loPI   C5A 7083  15.526  14.806   8.375  0.0958  0.3216  0.0022
  443loPI   C6A 7084  15.902  14.897   8.174  0.1898  0.2251 -0.3281
  443loPI   C1B 7085  15.574  15.230   9.849  0.1779 -0.0488  0.1780
  443loPI   C2B 7086  15.461  15.214   9.370 -0.1204  0.0432  0.2043
  443loPI   C3B 7087  15.657  15.094   9.134  0.1520 -0.0455  0.0099
  443loPI   C4B 7088  15.614  15.280   8.747 -0.3542 -0.0959  0.1870
  444loPI    C1 7089   3.470  17.992  10.663 -0.0210  0.3915 -0.1577
  444loPI    C2 7090   3.632  18.265  10.907  0.0380  0.2014  0.0190
  444loPI    C3 7091   3.331  18.035  11.036  0.4096 -0.2582  0.0960
  444loPI   PO4 7092   3.407  18.172  10.448 -0.1027  0.1430 -0.0885
  444loPI   GL1 7093   3.524  18.444  10.081 -0.1693  0.2470 -0.1342
  444loPI   GL2 7094   3.208  18.192   9.983 -0.1184 -0.3176 -0.1176
  444loPI   C1A 7095   3.579  18.329   9.677  0.0187 -0.1862  0.0855
  444loPI   C2A 7096   3.474  18.212   9.333  0.2530  0.0618 -0.4462
  444loPI   C3A 7097   3.511  18.178   8.894  0.1219  0.2871  0.0145
  444loPI   C4A 7098   3.645  18.082   8.417 -0.2852  0.2339  0.2062
  444loPI   C5A 7099   3.620  17.703   8.051 -0.0230 -0.0537 -0.2284
  444loPI   C6A 7100   3.779  17.327   7.975 -0.2416 -0.1121  0.2162
  444loPI   C1B 7101   3.009  18.088   9.485 -0.0698 -0.1065  0.1749
  444loPI   C2B 7102   3.078  18.065   9.075  0.0566 -0.1050 -0.1578
  444loPI   C3B 7103   3.050  17.952   8.595 -0.1793  0.3108  0.0733
  444loPI   C4B 7104   3.200  18.005   8.121  0.0406 -0.1746  0.1299
  445loPI    C1 7105  10.762   5.348  10.085 -0.1640 -0.0057  0.1097
  445loPI    C2 7106  10.770   4.980  10.240  0.0665 -0.1900 -0.3223
  445loPI    C3 7107  10.697   5.294  10.476 -0.1389 -0.5085  0.0512
  445loPI   PO4 7108  11.051   5.348   9.939  0.0973 -0.1890 -0.2549
  445loPI   GL1 7109  11.238   5.438   9.585 -0.1139  0.2865  0.0504
  445loPI   GL2 7110  10.785   5.583   9.601 -0.0344  0.1556 -0.1233
  445loPI   C1A 7111  11.075   5.367   9.165  0.0062  0.1273  0.1891
  445loPI   C2A 7112  11.245   5.272   8.745 -0.0839 -0.0207 -0.0293
  445loPI   C3A 7113  11.398   5.427   8.433  0.2857  0.1112  0.0599
  445loPI   C4A 7114  11.472   5.594   7.985 -0.3645 -0.0968 -0.0912
  445loPI   C5A 7115  11.409   5.730   7.598  0.0914  0.0550 -0.0824
  445loPI   C6A 7116  11.593   5.493   7.266  0.2353 -0.2993 -0.0390
  445loPI   C1B 7117  10.681   5.657   9.117  0.2048 -0.3054  0.2147
  445loPI   C2B 7118  10.507   5.570   8.670  0.4166 -0.1212 -0.1208
  445loPI   C3B 7119  10.821   5.532   8.383  0.2324 -0.2823  0.2324
  445loPI   C4B 7120  10.942   5.731   7.993 -0.0308  0.1814  0.1023
  446loPI    C1 7121  10.718   1.152  10.601 -0.1691  0.0859 -0.0433
  446loPI    C2 7122  10.982   1.305  10.859 -0.1300 -0.0672  0.0087
  446loPI    C3 7123  10.594   1.395  10.894 -0.1328 -0.1344  0.1578
  446loPI   PO4 7124  10.834   1.066  10.491 -0.0952  0.3021 -0.1372
  446loPI   GL1 7125  10.815   1.149   9.978  0.1459  0.4008  0.0616
  446loPI   GL2 7126  10.747   1.387   9.804  0.1013  0.0646 -0.2501
  446loPI   C1A 7127  10.696   0.799   9.724 -0.2070 -0.1195  0.2226
  446loPI   C2A 7128  10.756   0.759   9.239  0.0166  0.1357  0.1935
  446loPI   C3A 7129  10.794   0.715   8.821  0.1864 -0.1743  0.1916
  446loPI   C4A 7130  10.748   0.594   8.407  0.2455 -0.0619 -0.5068
  446loPI   C5A 7131  10.955   0.488   8.137 -0.0263  0.3909  0.3765
  446loPI   C6A 7132  11.139   0.217   8.206  0.0468  0.0316 -0.1588
  446loPI   C1B 7133  10.852   1.209   9.416 -0.1982  0.2565 -0.2918
  446loPI   C2B 7134  10.898   1.157   9.012  0.0052  0.2228  0.0328
  446loPI   C3B 7135  10.873   1.214   8.569  0.1369 -0.4730  0.0083
  446loPI   C4B 7136  10.911   1.083   8.138 -0.1725 -0.2012  0.1032
  447loPI    C1 7137  14.431   4.357  10.588 -0.2262  0.1230 -0.2457
  447loPI    C2 7138  14.341   3.967  10.605 -0.1012  0.1080  0.2012
  447loPI    C3 7139  14.172   4.222  10.862 -0.2313  0.3635 -0.1302
  447loPI   PO4 7140  14.580   4.420  10.318  0.0239  0.1751  0.0959
  447loPI   GL1 7141  14.772   4.653  10.013  0.0418 -0.0001 -0.1173
  447loPI   GL2 7142  14.941   4.848   9.995 -0.1981 -0.2199 -0.1988
  447loPI   C1A 7143  14.368   4.671   9.734  0.2859  0.0756  0.3470
  447loPI   C2A 7144  14.369   4.775   9.281 -0.1532 -0.0309  0.3466
  447loPI   C3A 7145  14.319   4.765   8.764 -0.1037  0.0674 -0.0094
  447loPI   C4A 7146  14.397   4.689   8.367  0.2246  0.0289  0.1687
  447loPI   C5A 7147  14.428   4.581   7.873  0.0563  0.0026 -0.2029
  447loPI   C6A 7148  14.362   4.545   7.361  0.3086  0.3312  0.4928
  447loPI   C1B 7149  14.777   4.971   9.589  0.1932  0.0324  0.1790
  447loPI   C2B 7150  14.878   4.998   9.221  0.1285 -0.3484  0.1809
  447loPI   C3B 7151  14.804   4.993   8.838  0.1565 -0.0404 -0.1938
  447loPI   C4B 7152  14.841   5.033   8.416  0.2727  0.0126  0.0416
  448loPI    C1 7153   1.195   3.859  11.044 -0.0588 -0.1394 -0.2653
  448loPI    C2 7154   1.284   4.246  10.993 -0.0365 -0.1019  0.0424
  448loPI    C3 7155   1.575   3.981  11.063 -0.0721 -0.1388  0.0513
  448loPI   PO4 7156   1.019   3.827  10.794 -0.0981  0.3685  0.1356
  448loPI   GL1 7157   1.050   3.857  10.340  0.1538  0.0757  0.1218
  448loPI   GL2 7158   0.780   3.642  10.369  0.0036  0.3251 -0.0696
  448loPI   C1A 7159   1.043   4.004   9.890 -0.0263  0.1824  0.0719
  448loPI   C2A 7160   1.018   4.025   9.487 -0.0072 -0.1945  0.1295
  448loPI   C3A 7161   1.056   3.893   9.055  0.0560 -0.1810  0.1133
  448loPI   C4A 7162   0.929   3.954   8.610 -0.5053 -0.0808 -0.0053
  448loPI   C5A 7163   0.936   4.014   8.222  0.1895  0.1501 -0.0847
  448loPI   C6A 7164   0.821   3.792   7.844  0.1089  0.1236 -0.1654
  448loPI   C1B 7165   0.953   3.453   9.997  0.1452  0.1344 -0.2684
  448loPI   C2B 7166   1.007   3.381   9.545 -0.1462  0.0142  0.4689
  448loPI   C3B 7167   1.025   3.444   9.188 -0.0104  0.1454  0.3275
  448loPI   C4B 7168   0.996   3.433   8.725  0.3157 -0.0976  0.0630
  449loPI    C1 7169   1.828   5.558  10.870  0.0195  0.0641 -0.2564
  449loPI    C2 7170   1.938   5.894  10.682 -0.0926  0.3567  0.1867
  449loPI    C3 7171   1.812   5.908  11.062 -0.0925 -0.1912  0.2157
  449loPI   PO4 7172   1.563   5.460  10.705  0.0607  0.0589 -0.1756
  449loPI   GL1 7173   1.513   5.286  10.302  0.1297 -0.2429  0.0136
  449loPI   GL2 7174   1.447   5.008  10.267  0.0530 -0.0742 -0.0117
  449loPI   C1A 7175   1.364   5.430   9.880 -0.1936  0.1181 -0.1785
  449loPI   C2A 7176   1.414   5.556   9.482  0.0001 -0.0738 -0.0205
  449loPI   C3A 7177   1.388   5.414   9.053 -0.4187  0.0681  0.0664
  449loPI   C4A 7178   1.382   5.554   8.638 -0.0875 -0.1466  0.0502
  449loPI   C5A 7179   1.367   5.388   8.186 -0.1046 -0.2223 -0.3509
  449loPI   C6A 7180   1.304   4.935   7.841  0.0733 -0.1653  0.2341
  449loPI   C1B 7181   1.292   4.931   9.905 -0.3635 -0.2740  0.2957
  449loPI   C2B 7182   1.236   5.035   9.479 -0.2939 -0.0150  0.0657
  449loPI   C3B 7183   1.308   4.905   9.086  0.0679 -0.3371 -0.0736
  449loPI   C4B 7184   1.221   4.992   8.652 -0.1413  0.0985 -0.1569
  450loPI    C1 7185  13.551  14.338  10.779  0.0546  0.1217  0.3712
  450loPI    C2 7186  13.176  14.425  10.669  0.1783  0.1983 -0.0063
  450loPI    C3 7187  13.262  14.359  11.054 -0.2486  0.0354  0.0663
  450loPI   PO4 7188  13.676  14.536  10.684  0.0439  0.0917 -0.1230
  450loPI   GL1 7189  13.659  14.778  10.406  0.2928 -0.1300  0.2270
  450loPI   GL2 7190  13.429  14.505  10.221  0.0233 -0.0856  0.2773
  450loPI   C1A 7191  13.602  14.986  10.005 -0.3181  0.0181 -0.1151
  450loPI   C2A 7192  13.627  14.999   9.596  0.0259  0.1445  0.0778
  450loPI   C3A 7193  13.622  14.914   9.126  0.2410 -0.1990  0.3748
  450loPI   C4A 7194  13.774  15.067   8.814 -0.0178  0.0589 -0.0617
  450loPI   C5A 7195  13.780  15.008   8.379  0.3487 -0.0249 -0.4411
  450loPI   C6A 7196  13.989  15.143   8.058  0.0007  0.4959  0.0048
  450loPI   C1B 7197  13.554  14.498   9.790 -0.1461 -0.4488 -0.0804
  450loPI   C2B 7198  13.564  14.469   9.296 -0.0610  0.0202 -0.1962
  450loPI   C3B 7199  13.735  14.495   8.827  0.1159  0.1025  0.2066
  450loPI   C4B 7200  13.911  14.378   8.370  0.1406 -0.1574 -0.2705
  451loPI    C1 7201   9.792  14.255  11.102 -0.0187 -0.0913 -0.0061
  451loPI    C2 7202   9.420  14.116  11.150  0.0290 -0.2191 -0.0021
  451loPI    C3 7203   9.653  14.178  11.469 -0.0673  0.0824  0.0131
  451loPI   PO4 7204   9.872  14.088  10.907 -0.0291  0.1294 -0.0479
  451loPI   GL1 7205   9.910  14.029  10.496  0.0344 -0.1880 -0.3377
  451loPI   GL2 7206  10.059  14.296  10.428 -0.2927 -0.1191 -0.2212
  451loPI   C1A 7207   9.754  14.242  10.078  0.0925 -0.0640 -0.1516
  451loPI   C2A 7208   9.809  14.290   9.686  0.1934 -0.1335 -0.0569
  451loPI   C3A 7209   9.727  14.353   9.322  0.5229 -0.1580 -0.0620
  451loPI   C4A 7210   9.775  14.431   8.993 -0.5053 -0.1023  0.1132
  451loPI   C5A 7211   9.774  14.268   8.538  0.5980 -0.0028 -0.1489
  451loPI   C6A 7212   9.648  13.891   8.296  0.0167 -0.0161 -0.3536
  451loPI   C1B 7213  10.242  14.285  10.023  0.0743 -0.0363  0.2510
  451loPI   C2B 7214  10.351  14.315   9.580  0.3478  0.1052 -0.1854
  451loPI   C3B 7215  10.343  14.412   9.167 -0.1247 -0.2005  0.1999
  451loPI   C4B 7216  10.295  14.426   8.804 -0.0860 -0.1084  0.1788
  452loPI    C1 7217   9.465  11.790  10.652  0.2429  0.1022  0.2082
  452loPI    C2 7218   9.180  11.868  10.922 -0.0762  0.0470 -0.1053
  452loPI    C3 7219   9.391  11.528  10.945 -0.1675 -0.0015  0.0185
  452loPI   PO4 7220   9.335  11.755  10.431  0.0696 -0.1934  0.0217
  452loPI   GL1 7221   9.397  11.907  10.094  0.1004 -0.1916 -0.3053
  452loPI   GL2 7222   9.450  12.211  10.162  0.1571 -0.2013 -0.1743
  452loPI   C1A 7223   9.492  12.095   9.673 -0.1586  0.0300  0.3226
  452loPI   C2A 7224   9.454  12.254   9.261  0.0614 -0.0624 -0.0690
  452loPI   C3A 7225   9.334  12.406   8.821 -0.2182  0.1158 -0.1663
  452loPI   C4A 7226   9.308  12.361   8.358 -0.0964 -0.0948 -0.0512
  452loPI   C5A 7227   9.483  12.159   7.980  0.0700  0.0475  0.1032
  452loPI   C6A 7228   9.167  11.913   7.765  0.2422  0.2449  0.3721
  452loPI   C1B 7229   9.078  12.181   9.864  0.0021  0.1022 -0.1139
  452loPI   C2B 7230   8.856  12.029   9.456 -0.0526  0.0487 -0.2255
  452loPI   C3B 7231   8.933  12.193   8.992 -0.2059 -0.1002 -0.1712
  452loPI   C4B 7232   8.828  12.166   8.552 -0.2895  0.2614 -0.0080
  453loPI    C1 7233   6.337   0.315  10.183  0.1672 -0.0322  0.1369
  453loPI    C2 7234   6.342   0.143  10.544 -0.0838  0.0007  0.1578
  453loPI    C3 7235   6.026   0.361  10.431 -0.0749 -0.1369 -0.1412
  453loPI   PO4 7236   6.614   0.174  10.109  0.0501 -0.4418  0.0995
  453loPI   GL1 7237   6.938  -0.154   9.974 -0.3633 -0.2235 -0.0189
  453loPI   GL2 7238   7.113  -0.294   9.919 -0.1331 -0.1016  0.0269
  453loPI   C1A 7239   6.756  -0.316   9.606 -0.1208 -0.2137  0.2273
  453loPI   C2A 7240   6.760  -0.417   9.222 -0.2049  0.2053 -0.0219
  453loPI   C3A 7241   6.833  -0.511   8.806 -0.0428 -0.1520  0.0292
  453loPI   C4A 7242   6.911  -0.679   8.345  0.0562  0.2663 -0.0671
  453loPI   C5A 7243   7.288  -0.667   8.030  0.3029  0.0480  0.0559
  453loPI   C6A 7244   7.660  -0.945   7.866  0.0321 -0.2912  0.0522
  453loPI   C1B 7245   7.313  -0.268   9.553  0.0342 -0.1559  0.0146
  453loPI   C2B 7246   7.304  -0.394   9.048  0.1457  0.0626  0.0402
  453loPI   C3B 7247   7.280  -0.457   8.667 -0.1499  0.0500 -0.0531
  453loPI   C4B 7248   7.448  -0.257   8.254 -0.0106 -0.1314 -0.1689
  454loPI    C1 7249   3.913  10.960  10.915  0.1092 -0.2229 -0.0060
  454loPI    C2 7250   4.293  11.037  10.818  0.0403  0.2004  0.0403
  454loPI    C3 7251   4.209  10.835  11.153  0.2311 -0.1645 -0.1254
  454loPI   PO4 7252   3.819  10.882  10.681 -0.0749 -0.1144  0.1995
  454loPI   GL1 7253   3.925  10.987  10.219 -0.0392 -0.1001 -0.0351
  454loPI   GL2 7254   3.948  10.637  10.220  0.2395 -0.2672 -0.0293
  454loPI   C1A 7255   3.890  10.983   9.764 -0.0126  0.1906  0.0588
  454loPI   C2A 7256   3.935  11.083   9.380  0.2381  0.3265  0.1493
  454loPI   C3A 7257   3.998  10.965   8.947  0.0537  0.0805 -0.0685
  454loPI   C4A 7258   4.015  11.184   8.510  0.1617  0.0964 -0.3533
  454loPI   C5A 7259   4.211  11.405   8.209 -0.3902 -0.0162 -0.0426
  454loPI   C6A 7260   4.055  11.368   7.768  0.2112  0.0745  0.3155
  454loPI   C1B 7261   4.305  10.688   9.854  0.0062  0.2736 -0.0505
  454loPI   C2B 7262   4.334  10.783   9.370 -0.2292 -0.0875  0.1428
  454loPI   C3B 7263   4.423  10.604   8.964 -0.1401  0.0599 -0.0575
  454loPI   C4B 7264   4.280  10.738   8.485 -0.2618 -0.1088  0.1549
  455loPI    C1 7265  10.262   8.129  10.137  0.0980  0.0749  0.2251
  455loPI    C2 7266  10.355   7.777  10.304 -0.0228  0.0086  0.1545
  455loPI    C3 7267  10.219   8.076  10.532 -0.2542 -0.1044  0.1669
  455loPI   PO4 7268  10.315   8.092   9.868  0.1243  0.1018 -0.2821
  455loPI   GL1 7269  10.321   8.351   9.496 -0.0939  0.0164  0.0565
  455loPI   GL2 7270  10.416   8.394   9.196 -0.0130 -0.1863 -0.2912
  455loPI   C1A 7271   9.987   8.202   9.169  0.0309 -0.0016 -0.0085
  455loPI   C2A 7272   9.735   8.137   8.848  0.1708  0.1786 -0.0610
  455loPI   C3A 7273   9.730   7.994   8.486  0.0718  0.1703  0.2221
  455loPI   C4A 7274   9.836   7.793   8.176 -0.2609 -0.0077 -0.1875
  455loPI   C5A 7275  10.088   7.641   7.858  0.0725 -0.3300  0.0263
  455loPI   C6A 7276  10.243   7.635   7.480 -0.0276 -0.1863 -0.0272
  455loPI   C1B 7277  10.227   8.502   8.793  0.0504 -0.0586  0.1677
  455loPI   C2B 7278  10.163   8.396   8.405  0.3764  0.0836 -0.2911
  455loPI   C3B 7279  10.002   8.296   8.054  0.0712 -0.3355 -0.2530
  455loPI   C4B 7280   9.908   8.593   7.841  0.1976 -0.0147 -0.0665
  456loPI    C1 7281  11.425   0.278  10.739 -0.2074  0.1953 -0.0669
  456loPI    C2 7282  11.211   0.434  11.038 -0.1366  0.1402  0.0128
  456loPI    C3 7283  11.421   0.099  11.096 -0.2297  0.0548 -0.1368
  456loPI   PO4 7284  11.389   0.438  10.567 -0.1089  0.3511  0.0372
  456loPI   GL1 7285  11.552   0.753  10.235  0.2864 -0.0660 -0.0354
  456loPI   GL2 7286  11.266   0.804  10.149  0.2593 -0.0788  0.2082
  456loPI   C1A 7287  11.596   0.621   9.827 -0.2066 -0.1746  0.0620
  456loPI   C2A 7288  11.671   0.520   9.414 -0.2883 -0.3067  0.0692
  456loPI   C3A 7289  11.718   0.434   9.062 -0.0578  0.3696  0.1060
  456loPI   C4A 7290  11.786   0.413   8.567  0.1276 -0.0355 -0.0463
  456loPI   C5A 7291  11.900   0.205   8.150  0.3093  0.2788  0.0630
  456loPI   C6A 7292  11.777  -0.119   7.879  0.1037  0.1328  0.1182
  456loPI   C1B 7293  11.154   0.626   9.657 -0.3446 -0.1528  0.0252
  456loPI   C2B 7294  11.309   0.856   9.325 -0.1117 -0.3447 -0.1632
  456loPI   C3B 7295  11.247   0.827   8.889 -0.2889  0.1054 -0.2521
  456loPI   C4B 7296  11.206   0.798   8.465  0.1815 -0.1622  0.0631
  457loPI    C1 7297  17.878   3.748  10.871 -0.0956  0.1304 -0.0403
  457loPI    C2 7298  17.496   3.629  10.853 -0.0964  0.0929  0.1945
  457loPI    C3 7299  17.600   3.932  11.093  0.0049  0.1733  0.0505
  457loPI   PO4 7300  17.956   3.741  10.555  0.1797 -0.2365  0.1852
  457loPI   GL1 7301  17.926   3.977  10.208  0.0316 -0.1302  0.1091
  457loPI   GL2 7302  18.226   3.850  10.032  0.2305 -0.4389  0.0474
  457loPI   C1A 7303  17.803   3.980   9.722 -0.1665  0.1746 -0.2553
  457loPI   C2A 7304  17.794   3.984   9.312  0.0253  0.1439 -0.0887
  457loPI   C3A 7305  17.938   3.947   8.934  0.5624  0.0504 -0.0656
  457loPI   C4A 7306  17.975   4.051   8.523 -0.1342  0.3607  0.2313
  457loPI   C5A 7307  17.846   4.063   8.094 -0.2314  0.1135 -0.0506
  457loPI   C6A 7308  17.447   4.146   7.845 -0.1923 -0.2861 -0.1947
  457loPI   C1B 7309  18.264   3.678   9.528 -0.0466  0.1225 -0.2236
  457loPI   C2B 7310  18.302   3.625   9.095  0.1149 -0.2820  0.3637
  457loPI   C3B 7311  18.233   3.631   8.592  0.2009 -0.2272  0.0852
  457loPI   C4B 7312  17.921   3.548   8.255  0.1414  0.0214 -0.1889
  458loPI    C1 7313   0.128   3.364  10.945  0.2383 -0.1028  0.0511
  458loPI    C2 7314  -0.001   3.063  11.174  0.0832 -0.0701  0.0079
  458loPI    C3 7315   0.375   3.063  11.038  0.1127 -0.1957  0.0868
  458loPI   PO4 7316  -0.046   3.319  10.732 -0.0888 -0.2760 -0.2607
  458loPI   GL1 7317   0.052   3.127  10.351  0.0856  0.1635  0.2819
  458loPI   GL2 7318  -0.169   3.409  10.211  0.2065 -0.2444  0.1588
  458loPI   C1A 7319   0.079   3.197   9.740 -0.0519  0.1360  0.1951
  458loPI   C2A 7320  -0.016   3.188   9.302  0.0082  0.1941  0.1195
  458loPI   C3A 7321  -0.102   3.165   8.814 -0.3538  0.1241 -0.1329
  458loPI   C4A 7322   0.086   3.130   8.410  0.3938 -0.0450  0.2681
  458loPI   C5A 7323   0.257   3.495   8.181  0.1198 -0.0050 -0.0514
  458loPI   C6A 7324   0.007   3.812   7.884 -0.2408 -0.2593 -0.0300
  458loPI   C1B 7325  -0.364   3.505   9.843  0.0340  0.0445 -0.0604
  458loPI   C2B 7326  -0.508   3.482   9.485  0.1073 -0.4274  0.3422
  458loPI   C3B 7327  -0.376   3.443   9.115 -0.0154 -0.1131 -0.0633
  458loPI   C4B 7328  -0.546   3.436   8.717 -0.1216  0.0763 -0.1345
  459loPI    C1 7329   8.832  10.285  10.382  0.2699 -0.0308  0.1502
  459loPI    C2 7330   9.137  10.169  10.612  0.0939 -0.0640  0.3707
  459loPI    C3 7331   8.902   9.896  10.439  0.1491 -0.0381  0.2539
  459loPI   PO4 7332   8.871  10.372  10.234  0.2404  0.0858 -0.0189
  459loPI   GL1 7333   8.732  10.303   9.799 -0.0333 -0.0333  0.0063
  459loPI   GL2 7334   8.449  10.523   9.741  0.0775 -0.0709  0.1302
  459loPI   C1A 7335   8.927  10.403   9.445 -0.0219  0.1351 -0.1672
  459loPI   C2A 7336   8.950  10.430   9.030  0.4230 -0.2393 -0.0748
  459loPI   C3A 7337   8.906  10.487   8.578  0.1745  0.2862  0.1347
  459loPI   C4A 7338   8.765  10.818   8.230  0.2861 -0.2284 -0.0890
  459loPI   C5A 7339   9.111  11.007   8.097 -0.5285 -0.1350 -0.0828
  459loPI   C6A 7340   9.545  10.907   7.987 -0.0466 -0.3309  0.0376
  459loPI   C1B 7341   8.518  10.539   9.260  0.0190  0.1123  0.0045
  459loPI   C2B 7342   8.507  10.556   8.845  0.0415 -0.2535  0.0630
  459loPI   C3B 7343   8.352  10.589   8.487  0.2810 -0.0132 -0.1145
  459loPI   C4B 7344   8.483  10.459   8.066  0.1515  0.2359 -0.1568
  460loPI    C1 7345   9.130   0.823  10.472  0.1741 -0.2454 -0.0008
  460loPI    C2 7346   9.382   1.078  10.650 -0.0791 -0.0075  0.0239
  460loPI    C3 7347   9.251   0.756  10.848 -0.1488  0.1119  0.1743
  460loPI   PO4 7348   9.238   0.843  10.256  0.0640  0.2607  0.1007
  460loPI   GL1 7349   9.193   0.817   9.807 -0.0341 -0.2288  0.2447
  460loPI   GL2 7350   8.934   0.662   9.841 -0.3205 -0.2099  0.1034
  460loPI   C1A 7351   9.407   0.806   9.453  0.0253  0.0012  0.1369
  460loPI   C2A 7352   9.435   0.701   9.068 -0.0411  0.1000  0.1534
  460loPI   C3A 7353   9.474   0.755   8.615 -0.2136  0.1364 -0.1211
  460loPI   C4A 7354   9.464   0.563   8.228  0.1385  0.0932 -0.0784
  460loPI   C5A 7355   9.770   0.446   7.930  0.0489  0.1547  0.0542
  460loPI   C6A 7356  10.054   0.012   7.963  0.3321  0.1177 -0.0516
  460loPI   C1B 7357   8.892   0.590   9.381  0.1602  0.1274  0.0159
  460loPI   C2B 7358   8.922   0.666   9.032 -0.0374  0.3756  0.0538
  460loPI   C3B 7359   8.934   0.472   8.522  0.0287 -0.1850 -0.1897
  460loPI   C4B 7360   9.077   0.277   8.101  0.1360  0.1483  0.1614
  461loPI    C1 7361  15.235  15.316  10.832 -0.1109 -0.2118 -0.0629
  461loPI    C2 7362  14.837  15.302  10.791 -0.1070 -0.4611 -0.0278
  461loPI    C3 7363  14.999  15.453  11.124 -0.1649 -0.0660 -0.1735
  461loPI   PO4 7364  15.332  15.413  10.565 -0.1020  0.0604 -0.0489
  461loPI   GL1 7365  15.240  15.465  10.154 -0.2045  0.0382  0.0640
  461loPI   GL2 7366  14.938  15.672  10.229  0.0027  0.1455  0.0098
  461loPI   C1A 7367  14.999  15.493   9.649  0.1194 -0.1078  0.1490
  461loPI   C2A 7368  15.147  15.477   9.140 -0.0695  0.0306 -0.1278
  461loPI   C3A 7369  15.137  15.555   8.681  0.0095  0.1366  0.0747
  461loPI   C4A 7370  15.347  15.448   8.352  0.0351 -0.0148  0.0769
  461loPI   C5A 7371  15.454  15.199   8.107  0.1085 -0.0756 -0.0239
  461loPI   C6A 7372  15.613  15.106   7.644  0.3399 -0.0290 -0.0870
  461loPI   C1B 7373  14.713  15.844   9.858 -0.1961 -0.2007  0.1703
  461loPI   C2B 7374  14.715  15.903   9.381  0.2744 -0.0889 -0.1362
  461loPI   C3B 7375  14.849  15.856   8.948  0.0806 -0.2255 -0.0868
  461loPI   C4B 7376  14.724  15.839   8.540 -0.1459  0.0382 -0.0759
  462loPI    C1 7377   4.398   0.336  10.625  0.1696  0.0008  0.0875
  462loPI    C2 7378   4.443   0.708  10.485 -0.4123  0.0694  0.0591
  462loPI    C3 7379   4.592   0.609  10.843  0.2123  0.1721 -0.1616
  462loPI   PO4 7380   4.392   0.175  10.462 -0.0324  0.0001  0.3155
  462loPI   GL1 7381   4.291  -0.069   9.975 -0.0578 -0.3300 -0.0279
  462loPI   GL2 7382   3.999   0.073   9.919 -0.1567  0.0498 -0.0284
  462loPI   C1A 7383   4.429  -0.154   9.588 -0.5330 -0.1854 -0.1193
  462loPI   C2A 7384   4.380  -0.188   9.193 -0.0984  0.1978 -0.0342
  462loPI   C3A 7385   4.357  -0.268   8.777  0.3804  0.0619 -0.1604
  462loPI   C4A 7386   4.488  -0.286   8.452  0.0204  0.1546  0.3545
  462loPI   C5A 7387   4.674  -0.324   8.049  0.1149  0.1802 -0.0715
  462loPI   C6A 7388   5.077  -0.492   7.937 -0.1167 -0.2530  0.2729
  462loPI   C1B 7389   4.017   0.123   9.425 -0.1221 -0.2673  0.4027
  462loPI   C2B 7390   3.972   0.108   8.976 -0.0383  0.2748 -0.2656
  462loPI   C3B 7391   4.071   0.087   8.505 -0.1922 -0.2461 -0.2376
  462loPI   C4B 7392   3.988  -0.116   8.064 -0.0068  0.2340 -0.0641
  463loPI    C1 7393  17.157   8.866  11.311 -0.0614  0.1718  0.0207
  463loPI    C2 7394  17.415   8.934  11.609  0.0074  0.2334 -0.0526
  463loPI    C3 7395  17.221   9.240  11.439 -0.2624  0.1693  0.1337
  463loPI   PO4 7396  17.268   8.692  11.172 -0.1583  0.1805  0.1562
  463loPI   GL1 7397  17.252   8.450  10.844  0.0085  0.0591 -0.2981
  463loPI   GL2 7398  16.994   8.429  10.719 -0.2196  0.1658 -0.0247
  463loPI   C1A 7399  17.430   8.514  10.322 -0.2824 -0.2201  0.0449
  463loPI   C2A 7400  17.495   8.595   9.898 -0.0320 -0.1900 -0.0644
  463loPI   C3A 7401  17.524   8.593   9.470  0.0149  0.1574  0.0416
  463loPI   C4A 7402  17.547   8.655   9.054 -0.2770  0.2653  0.0573
  463loPI   C5A 7403  17.814   8.770   8.746  0.0702 -0.3121  0.1057
  463loPI   C6A 7404  18.124   8.999   8.525  0.1829 -0.1869  0.1923
  463loPI   C1B 7405  16.854   8.236  10.368  0.0225 -0.1664 -0.4036
  463loPI   C2B 7406  16.983   8.291  10.048  0.0283 -0.0254 -0.0148
  463loPI   C3B 7407  16.933   8.423   9.575  0.3746  0.0293  0.0038
  463loPI   C4B 7408  17.056   8.360   9.217  0.2463  0.1912  0.0731
  464loPI    C1 7409   5.373   3.836  10.604  0.0977 -0.0043  0.0503
  464loPI    C2 7410   5.311   4.206  10.745 -0.0691 -0.0413  0.0770
  464loPI    C3 7411   5.591   3.972  10.911 -0.0357  0.0350  0.1285
  464loPI   PO4 7412   5.434   3.857  10.287 -0.3083  0.1705 -0.1057
  464loPI   GL1 7413   5.557   3.678   9.960  0.1065  0.0607 -0.0964
  464loPI   GL2 7414   5.414   3.308   9.911 -0.1058 -0.0192  0.4394
  464loPI   C1A 7415   5.417   3.528   9.431 -0.1416 -0.2552 -0.1834
  464loPI   C2A 7416   5.440   3.441   9.054 -0.2657 -0.1333 -0.3005
  464loPI   C3A 7417   5.523   3.540   8.684  0.0769 -0.1240  0.1543
  464loPI   C4A 7418   5.467   3.442   8.172 -0.0007  0.0345 -0.0989
  464loPI   C5A 7419   5.164   3.448   7.868 -0.1874  0.2894  0.1806
  464loPI   C6A 7420   4.881   3.355   7.512 -0.1562 -0.1758  0.0744
  464loPI   C1B 7421   5.274   3.055   9.577 -0.2039  0.0452 -0.0191
  464loPI   C2B 7422   5.150   2.999   9.096 -0.5105 -0.0437 -0.0640
  464loPI   C3B 7423   5.155   3.255   8.625 -0.0021 -0.1540 -0.1778
  464loPI   C4B 7424   4.984   3.455   8.341 -0.0711  0.0294 -0.2527
  465loPI    C1 7425  15.350   2.931  10.587 -0.1912 -0.0389  0.0242
  465loPI    C2 7426  15.296   2.679  10.892 -0.0353 -0.0321  0.0582
  465loPI    C3 7427  15.666   2.775  10.776 -0.0932 -0.1076 -0.1937
  465loPI   PO4 7428  15.220   2.847  10.413 -0.0895 -0.1501  0.1896
  465loPI   GL1 7429  15.071   2.724  10.051  0.0291 -0.1955 -0.0680
  465loPI   GL2 7430  15.319   2.538   9.877  0.2343  0.1537 -0.2473
  465loPI   C1A 7431  14.874   2.825   9.706  0.1405  0.0710 -0.2546
  465loPI   C2A 7432  14.781   2.897   9.328  0.0829 -0.0450  0.1653
  465loPI   C3A 7433  14.970   2.977   8.897  0.3354  0.3941  0.2424
  465loPI   C4A 7434  14.964   3.005   8.482 -0.1587 -0.2010  0.1885
  465loPI   C5A 7435  14.895   3.046   8.098 -0.0783 -0.0214  0.2440
  465loPI   C6A 7436  15.195   3.178   7.839 -0.2325  0.3681 -0.1782
  465loPI   C1B 7437  15.370   2.577   9.521 -0.0161  0.2322 -0.0035
  465loPI   C2B 7438  15.276   2.585   9.038  0.1336 -0.1971 -0.2973
  465loPI   C3B 7439  15.338   2.679   8.599  0.1871 -0.2133 -0.0500
  465loPI   C4B 7440  15.426   2.760   8.216 -0.1209  0.1558  0.2059
  466loPI    C1 7441   5.429  10.614  10.837  0.0638  0.0508  0.2492
  466loPI    C2 7442   5.292  10.990  10.841 -0.0589  0.0088  0.0872
  466loPI    C3 7443   5.188  10.736  11.132 -0.0390  0.0776  0.1548
  466loPI   PO4 7444   5.490  10.585  10.561 -0.0300  0.2137 -0.3267
  466loPI   GL1 7445   5.466  10.485  10.149  0.1402  0.1492  0.0154
  466loPI   GL2 7446   5.348  10.747   9.959 -0.2025 -0.1884 -0.3221
  466loPI   C1A 7447   5.373  10.278   9.742 -0.4622  0.1999  0.0374
  466loPI   C2A 7448   5.296  10.375   9.222 -0.2817  0.0190 -0.2877
  466loPI   C3A 7449   5.177  10.528   8.841 -0.1366 -0.2563  0.0550
  466loPI   C4A 7450   5.289  10.697   8.334 -0.0440  0.2555  0.0105
  466loPI   C5A 7451   5.246  11.001   7.977  0.0495  0.0261  0.0089
  466loPI   C6A 7452   5.219  11.432   7.905 -0.0391 -0.1787  0.2664
  466loPI   C1B 7453   5.321  10.875   9.645  0.0944 -0.2218  0.0144
  466loPI   C2B 7454   5.354  10.865   9.180 -0.0452 -0.4092 -0.1046
  466loPI   C3B 7455   5.271  11.107   8.791  0.0501  0.0957  0.0851
  466loPI   C4B 7456   5.036  11.065   8.462 -0.0279 -0.0801  0.0892
  467loPI    C1 7457  13.179  12.003  10.954 -0.1315  0.2889  0.0032
  467loPI    C2 7458  13.028  12.252  11.228 -0.0556  0.1293  0.1932
  467loPI    C3 7459  13.090  11.868  11.320  0.0835  0.1013 -0.0112
  467loPI   PO4 7460  13.148  12.104  10.730 -0.1191  0.1110  0.1821
  467loPI   GL1 7461  13.365  12.123  10.323 -0.0229  0.1387 -0.0758
  467loPI   GL2 7462  13.601  12.445  10.428  0.2629  0.1696 -0.0547
  467loPI   C1A 7463  13.630  12.054   9.940  0.0206  0.2294  0.0585
  467loPI   C2A 7464  13.566  12.054   9.539  0.0418  0.1343  0.0855
  467loPI   C3A 7465  13.580  12.218   9.131 -0.1044 -0.0411 -0.1730
  467loPI   C4A 7466  13.601  12.169   8.689 -0.1136  0.1022  0.2046
  467loPI   C5A 7467  13.705  12.399   8.260  0.1714 -0.1927 -0.0904
  467loPI   C6A 7468  14.106  12.594   8.081 -0.1752 -0.0103 -0.2485
  467loPI   C1B 7469  13.702  12.565  10.034  0.0331  0.0330 -0.0213
  467loPI   C2B 7470  13.730  12.500   9.588  0.1076 -0.0606 -0.0086
  467loPI   C3B 7471  13.802  12.682   9.146 -0.0386  0.1555 -0.3641
  467loPI   C4B 7472  13.787  12.603   8.710  0.1902 -0.3149  0.2738
  468loPI    C1 7473  13.058   7.659  10.278  0.1031  0.0535  0.1935
  468loPI    C2 7474  12.868   7.311  10.222  0.2111  0.0375 -0.0920
  468loPI    C3 7475  12.882   7.476  10.586  0.1020 -0.2228  0.0323
  468loPI   PO4 7476  13.281   7.618  10.075 -0.0467  0.0683  0.0494
  468loPI   GL1 7477  13.680   7.462   9.895 -0.0138 -0.0841  0.2268
  468loPI   GL2 7478  13.481   7.577   9.647  0.0568  0.2327 -0.0564
  468loPI   C1A 7479  13.951   7.426   9.612 -0.1931  0.6643  0.1686
  468loPI   C2A 7480  14.057   7.434   9.251 -0.0241  0.1567 -0.0534
  468loPI   C3A 7481  13.999   7.434   8.812 -0.1174 -0.1103 -0.0547
  468loPI   C4A 7482  13.995   7.669   8.494  0.1925  0.0076  0.1980
  468loPI   C5A 7483  14.322   7.682   8.173  0.0913  0.2601 -0.0863
  468loPI   C6A 7484  14.244   7.873   7.729 -0.1574  0.1512 -0.1381
  468loPI   C1B 7485  13.538   7.545   9.234 -0.2135 -0.2965  0.2994
  468loPI   C2B 7486  13.440   7.469   8.832 -0.0762 -0.2041  0.0728
  468loPI   C3B 7487  13.437   7.515   8.380 -0.0858 -0.2919  0.1986
  468loPI   C4B 7488  13.325   7.251   7.989 -0.0065 -0.0700  0.0755
  469loPI    C1 7489   4.400   8.373  10.720 -0.1339  0.3295 -0.1338
  469loPI    C2 7490   4.736   8.463  10.523 -0.0555  0.2103 -0.0556
  469loPI    C3 7491   4.741   8.429  10.922 -0.1853  0.3204 -0.0437
  469loPI   PO4 7492   4.251   8.460  10.602  0.1845  0.0300 -0.1350
  469loPI   GL1 7493   4.003   8.407  10.246  0.0126  0.5267 -0.1965
  469loPI   GL2 7494   3.944   8.711  10.264 -0.1298 -0.0728 -0.1764
  469loPI   C1A 7495   3.970   8.488   9.816  0.1196 -0.0217  0.1151
  469loPI   C2A 7496   3.992   8.503   9.419 -0.0800 -0.1483 -0.1284
  469loPI   C3A 7497   3.929   8.687   8.987  0.1059 -0.0340 -0.0332
  469loPI   C4A 7498   4.250   8.859   8.564 -0.2327 -0.4834  0.0372
  469loPI   C5A 7499   4.271   8.976   8.115  0.0415 -0.0414  0.0681
  469loPI   C6A 7500   3.937   9.170   7.929  0.0193 -0.0476 -0.1071
  469loPI   C1B 7501   3.603   8.906   9.999  0.0797  0.0303  0.2197
  469loPI   C2B 7502   3.559   8.835   9.566 -0.1501 -0.2014  0.2893
  469loPI   C3B 7503   3.473   8.994   9.125 -0.3311 -0.3171 -0.3697
  469loPI   C4B 7504   3.493   9.071   8.674 -0.1569  0.0678  0.0696
  470loPI    C1 7505  12.474  17.648  10.551  0.3050 -0.1546 -0.1406
  470loPI    C2 7506  12.675  17.328  10.682  0.0782 -0.1739  0.1721
  470loPI    C3 7507  12.633  17.648  10.918  0.0957 -0.0073 -0.0479
  470loPI   PO4 7508  12.597  17.736  10.338  0.1011  0.1737 -0.0962
  470loPI   GL1 7509  12.863  18.044  10.002 -0.0219 -0.0841 -0.0159
  470loPI   GL2 7510  13.055  17.869  10.201  0.0980 -0.5349  0.1816
  470loPI   C1A 7511  12.985  18.022   9.590 -0.2068  0.0483  0.0941
  470loPI   C2A 7512  12.919  18.048   9.180  0.2015  0.2865  0.1059
  470loPI   C3A 7513  12.944  18.176   8.724 -0.0107  0.0833  0.3268
  470loPI   C4A 7514  13.049  18.144   8.218  0.4927 -0.1823  0.0745
  470loPI   C5A 7515  12.948  17.823   7.836  0.3166 -0.0466 -0.3367
  470loPI   C6A 7516  12.795  17.807   7.480  0.0206 -0.1433  0.0422
  470loPI   C1B 7517  13.340  17.795   9.885  0.1818 -0.3203 -0.2460
  470loPI   C2B 7518  13.417  17.721   9.487 -0.1121 -0.0364 -0.0819
  470loPI   C3B 7519  13.379  17.700   9.102 -0.1586 -0.3400 -0.2081
  470loPI   C4B 7520  13.274  17.831   8.622 -0.1026  0.3765 -0.4130
  471loPI    C1 7521  13.192  15.839  11.044 -0.0223  0.0188 -0.2318
  471loPI    C2 7522  12.916  16.069  11.221 -0.0647 -0.1957 -0.0136
  471loPI    C3 7523  12.842  15.681  11.158  0.1819 -0.2523  0.0357
  471loPI   PO4 7524  13.272  15.926  10.861  0.3017  0.1022 -0.0424
  471loPI   GL1 7525  13.269  15.856  10.376  0.3044  0.1564 -0.1785
  471loPI   GL2 7526  13.484  16.060  10.357 -0.2219 -0.1768  0.1240
  471loPI   C1A 7527  13.370  15.863   9.900 -0.0012 -0.1156  0.0144
  471loPI   C2A 7528  13.405  15.919   9.447  0.0633 -0.3634  0.0023
  471loPI   C3A 7529  13.373  15.823   9.034  0.1036 -0.2757 -0.1437
  471loPI   C4A 7530  13.390  15.635   8.677  0.1467  0.1705 -0.1062
  471loPI   C5A 7531  13.326  15.587   8.252  0.1863 -0.0342 -0.1329
  471loPI   C6A 7532  13.542  15.434   7.911 -0.2091  0.0783 -0.1765
  471loPI   C1B 7533  13.831  16.052  10.088 -0.1891 -0.0943 -0.1857
  471loPI   C2B 7534  13.878  15.987   9.698  0.2161 -0.3884  0.0818
  471loPI   C3B 7535  13.845  15.922   9.294  0.0578 -0.2706  0.2075
  471loPI   C4B 7536  13.853  15.950   8.931 -0.1080 -0.0130 -0.2232
  472loPI    C1 7537   9.819  17.844  11.040 -0.0677  0.1616  0.1486
  472loPI    C2 7538  10.176  17.966  10.907 -0.1356  0.0545 -0.1390
  472loPI    C3 7539  10.135  17.843  11.285  0.0996  0.2011 -0.0639
  472loPI   PO4 7540   9.608  17.885  10.734  0.2371  0.4470  0.0738
  472loPI   GL1 7541   9.665  17.819  10.335 -0.0764 -0.2135  0.0026
  472loPI   GL2 7542   9.657  18.100  10.170 -0.2632  0.3312 -0.3237
  472loPI   C1A 7543   9.539  17.662   9.945 -0.3060  0.1341  0.0429
  472loPI   C2A 7544   9.525  17.674   9.441  0.0312  0.1996  0.1217
  472loPI   C3A 7545   9.583  17.651   9.004 -0.0548  0.1167 -0.1582
  472loPI   C4A 7546   9.625  17.565   8.619  0.1273  0.0442 -0.1028
  472loPI   C5A 7547   9.660  17.402   8.226 -0.3855  0.1753  0.2045
  472loPI   C6A 7548   9.382  17.480   7.902  0.1342 -0.1122  0.0185
  472loPI   C1B 7549   9.658  18.068   9.732  0.0548 -0.0645 -0.0809
  472loPI   C2B 7550   9.674  18.107   9.281  0.0209 -0.1959 -0.2381
  472loPI   C3B 7551   9.762  18.117   8.805  0.0454  0.0797  0.0252
  472loPI   C4B 7552   9.769  18.026   8.419 -0.0230 -0.1013  0.1562
  473loPI    C1 7553  15.749   2.253  10.939  0.0429 -0.0548 -0.0376
  473loPI    C2 7554  15.614   2.527  11.197 -0.0612  0.0228 -0.1729
  473loPI    C3 7555  16.004   2.510  11.108 -0.0081 -0.0749  0.0706
  473loPI   PO4 7556  15.541   2.283  10.713  0.0256  0.0028 -0.0462
  473loPI   GL1 7557  15.636   2.518  10.265 -0.1792 -0.2041  0.1574
  473loPI   GL2 7558  15.771   2.221  10.197 -0.3757  0.0050  0.4612
  473loPI   C1A 7559  15.755   2.836   9.942  0.0690 -0.0500  0.0553
  473loPI   C2A 7560  15.853   2.772   9.473  0.4111  0.2769  0.1008
  473loPI   C3A 7561  15.743   2.829   9.029  0.1139 -0.0733 -0.0845
  473loPI   C4A 7562  15.766   2.887   8.676 -0.2076 -0.1142  0.1125
  473loPI   C5A 7563  15.959   2.776   8.260  0.1375  0.3124  0.0543
  473loPI   C6A 7564  16.225   2.913   7.957  0.0369  0.3793 -0.2036
  473loPI   C1B 7565  15.701   2.243   9.710 -0.0204  0.0034  0.0600
  473loPI   C2B 7566  15.743   2.242   9.228 -0.1486  0.3438 -0.1161
  473loPI   C3B 7567  15.777   2.304   8.816 -0.1861 -0.0020 -0.0463
  473loPI   C4B 7568  15.670   2.359   8.458  0.0155 -0.0843 -0.4502
  474loPI    C1 7569  10.807   7.633  10.073 -0.2311  0.0285  0.0183
  474loPI    C2 7570  11.103   7.757  10.311 -0.1997  0.2421 -0.1287
  474loPI    C3 7571  10.791   7.561  10.466 -0.1161  0.2614  0.0676
  474loPI   PO4 7572  10.765   7.814   9.975  0.0334 -0.1852  0.1550
  474loPI   GL1 7573  10.824   7.975   9.511 -0.1357 -0.0108 -0.1642
  474loPI   GL2 7574  10.635   7.706   9.502 -0.3158 -0.1475 -0.0205
  474loPI   C1A 7575  10.997   7.819   9.139  0.3012  0.1382  0.0384
  474loPI   C2A 7576  11.118   7.599   8.839  0.4300 -0.2531 -0.2659
  474loPI   C3A 7577  11.315   7.644   8.420  0.2157 -0.0402  0.2249
  474loPI   C4A 7578  11.096   7.459   8.086 -0.0072  0.2833 -0.2251
  474loPI   C5A 7579  11.054   7.199   7.712 -0.1360  0.1187  0.1467
  474loPI   C6A 7580  11.051   6.976   7.292 -0.0773  0.1730  0.2448
  474loPI   C1B 7581  10.521   7.927   9.109  0.1168 -0.2479 -0.1469
  474loPI   C2B 7582  10.291   8.018   8.702 -0.1357 -0.0875  0.2898
  474loPI   C3B 7583  10.338   7.884   8.191 -0.0900  0.0176  0.0634
  474loPI   C4B 7584  10.180   8.087   7.698  0.1931 -0.0657  0.2913
  475loPI    C1 7585   3.083  11.627  11.101 -0.1165 -0.1489 -0.0565
  475loPI    C2 7586   2.824  11.886  11.262  0.0737 -0.0510  0.0968
  475loPI    C3 7587   3.170  11.808  11.447  0.2342 -0.0442 -0.1950
  475loPI   PO4 7588   3.096  11.722  10.852  0.3343 -0.2242  0.2803
  475loPI   GL1 7589   2.984  11.529  10.543  0.0417 -0.2200  0.0039
  475loPI   GL2 7590   3.067  11.116  10.574  0.1131  0.1095 -0.1174
  475loPI   C1A 7591   2.701  11.494  10.155  0.0795 -0.1630  0.1916
  475loPI   C2A 7592   2.756  11.480   9.695 -0.2042  0.1604 -0.3893
  475loPI   C3A 7593   2.666  11.604   9.322 -0.0533  0.0155  0.1242
  475loPI   C4A 7594   2.805  11.652   8.919  0.3974 -0.2698  0.0789
  475loPI   C5A 7595   2.858  11.969   8.584  0.1726  0.0562 -0.2971
  475loPI   C6A 7596   2.609  12.260   8.429  0.1666  0.1407 -0.0946
  475loPI   C1B 7597   3.077  11.207  10.143 -0.1480  0.0498  0.0528
  475loPI   C2B 7598   3.123  11.210   9.864 -0.0313  0.3278 -0.2382
  475loPI   C3B 7599   3.103  11.149   9.402 -0.4969 -0.2392 -0.2450
  475loPI   C4B 7600   3.085  11.222   8.959  0.3723  0.2137 -0.1781
  476loPI    C1 7601   1.149   9.226  11.283  0.0124 -0.1618  0.0241
  476loPI    C2 7602   1.482   9.337  11.090 -0.0000 -0.0954  0.0407
  476loPI    C3 7603   1.473   9.337  11.490 -0.0902  0.1168  0.0403
  476loPI   PO4 7604   0.958   9.427  11.121 -0.1207  0.0208  0.1186
  476loPI   GL1 7605   0.764   9.436  10.764 -0.1402  0.2504  0.2463
  476loPI   GL2 7606   0.691   9.732  10.772 -0.4208 -0.1344 -0.2316
  476loPI   C1A 7607   0.858   9.518  10.277  0.0161 -0.1181  0.0268
  476loPI   C2A 7608   0.910   9.525   9.866  0.1049  0.2617  0.0899
  476loPI   C3A 7609   0.898   9.576   9.440  0.2398  0.3045  0.0096
  476loPI   C4A 7610   0.822   9.637   9.042 -0.2173 -0.1188  0.2789
  476loPI   C5A 7611   0.913   9.390   8.740  0.1424 -0.1021  0.1518
  476loPI   C6A 7612   1.155   9.187   8.561 -0.2123  0.2676 -0.0133
  476loPI   C1B 7613   0.813   9.983  10.482 -0.1537 -0.0399  0.1763
  476loPI   C2B 7614   0.975  10.044  10.137 -0.1975 -0.1100  0.3459
  476loPI   C3B 7615   0.974  10.095   9.704  0.0236  0.2210 -0.1830
  476loPI   C4B 7616   1.035  10.144   9.236 -0.3916 -0.0444  0.0162
  477loPI    C1 7617  13.015   4.440  10.054 -0.0882 -0.0630  0.0099
  477loPI    C2 7618  13.098   4.447  10.445 -0.0991 -0.0290  0.0116
  477loPI    C3 7619  12.733   4.548  10.317 -0.1074 -0.0790 -0.0041
  477loPI   PO4 7620  13.122   4.554   9.913  0.1190  0.1947 -0.1782
  477loPI   GL1 7621  13.320   4.681   9.628 -0.0945 -0.2398 -0.0012
  477loPI   GL2 7622  13.140   4.899   9.536 -0.0916 -0.2472 -0.0175
  477loPI   C1A 7623  13.314   4.510   9.247 -0.0342  0.0807 -0.0680
  477loPI   C2A 7624  13.300   4.567   8.828  0.3108 -0.1440 -0.3301
  477loPI   C3A 7625  13.426   4.479   8.450 -0.2388 -0.3257 -0.0330
  477loPI   C4A 7626  13.587   4.355   8.115  0.0631  0.0117 -0.2168
  477loPI   C5A 7627  13.887   4.300   7.761  0.3706  0.0082  0.0366
  477loPI   C6A 7628  14.265   4.078   7.613 -0.0275 -0.0809  0.2432
  477loPI   C1B 7629  12.961   4.879   9.180 -0.1043 -0.0127 -0.1354
  477loPI   C2B 7630  12.952   4.948   8.736 -0.2123 -0.0315 -0.1227
  477loPI   C3B 7631  12.967   4.868   8.324  0.1721 -0.0213  0.0525
  477loPI   C4B 7632  12.848   4.884   7.939  0.0274  0.0669  0.2150
  478loPI    C1 7633  14.935   9.196  11.375 -0.0345  0.2158  0.0423
  478loPI    C2 7634  15.093   9.176  11.742 -0.1898  0.0793  0.1025
  478loPI    C3 7635  14.759   8.972  11.656 -0.2515  0.2488 -0.0652
  478loPI   PO4 7636  15.009   9.409  11.303  0.4455 -0.1726  0.0265
  478loPI   GL1 7637  15.078   9.561  10.811 -0.0915 -0.0458  0.0182
  478loPI   GL2 7638  14.754   9.674  10.697  0.1700  0.2749 -0.0151
  478loPI   C1A 7639  15.223   9.669  10.502 -0.0265 -0.0533  0.1874
  478loPI   C2A 7640  15.404   9.865  10.145 -0.1259  0.1090  0.3052
  478loPI   C3A 7641  15.528   9.957   9.764 -0.0212 -0.3289  0.0658
  478loPI   C4A 7642  15.550   9.951   9.402  0.7025  0.1534  0.1035
  478loPI   C5A 7643  15.541  10.000   8.969  0.0327 -0.2922 -0.0284
  478loPI   C6A 7644  15.828  10.176   8.540 -0.2902  0.3362 -0.1351
  478loPI   C1B 7645  14.762   9.657  10.222  0.0421 -0.3348  0.0864
  478loPI   C2B 7646  14.916   9.749   9.826 -0.1211  0.2744 -0.1008
  478loPI   C3B 7647  15.020   9.741   9.400 -0.0942  0.1134 -0.0445
  478loPI   C4B 7648  15.055   9.708   9.040 -0.1307  0.0361  0.1091
  479loPI    C1 7649  11.925   7.608   9.989  0.1527  0.1467  0.0252
  479loPI    C2 7650  11.917   7.361  10.303  0.1435  0.0986 -0.0128
  479loPI    C3 7651  11.993   7.750  10.357  0.0414  0.1088  0.0610
  479loPI   PO4 7652  11.672   7.468   9.863 -0.0796  0.2484 -0.1377
  479loPI   GL1 7653  11.515   7.423   9.434 -0.0398 -0.2429 -0.0263
  479loPI   GL2 7654  11.940   7.421   9.441  0.0360  0.0409 -0.0656
  479loPI   C1A 7655  11.487   7.635   9.152  0.0196  0.1985 -0.3812
  479loPI   C2A 7656  11.594   7.839   8.791  0.1441 -0.3715  0.1312
  479loPI   C3A 7657  11.806   7.899   8.446  0.1465 -0.1146  0.2299
  479loPI   C4A 7658  11.849   8.052   8.059 -0.0820 -0.4639  0.1320
  479loPI   C5A 7659  12.209   8.245   7.831  0.2045  0.0004  0.0262
  479loPI   C6A 7660  12.503   7.994   7.790 -0.0205 -0.2658 -0.1909
  479loPI   C1B 7661  11.825   7.211   9.045 -0.0824 -0.0878 -0.1096
  479loPI   C2B 7662  11.498   7.148   8.776 -0.0638 -0.0296 -0.0085
  479loPI   C3B 7663  11.272   7.125   8.493 -0.1128 -0.1749  0.0573
  479loPI   C4B 7664  11.310   6.792   8.207 -0.1546  0.3153 -0.1680
  480loPI    C1 7665   0.199  16.962  10.792  0.0706  0.4609 -0.1425
  480loPI    C2 7666  -0.040  17.172  11.034 -0.1296 -0.0490  0.1165
  480loPI    C3 7667   0.350  17.143  11.115 -0.1133  0.1573  0.1187
  480loPI   PO4 7668   0.055  16.727  10.802  0.2820 -0.1323 -0.1298
  480loPI   GL1 7669   0.172  16.404  10.500 -0.0368  0.0579  0.2519
  480loPI   GL2 7670  -0.090  16.388  10.369  0.1228 -0.1183  0.4363
  480loPI   C1A 7671   0.531  16.247  10.195  0.2307  0.1945 -0.1614
  480loPI   C2A 7672   0.491  16.205   9.761  0.0082 -0.3826  0.0694
  480loPI   C3A 7673   0.398  16.145   9.254  0.1580  0.0137  0.1063
  480loPI   C4A 7674   0.458  16.221   8.870  0.1718 -0.0572 -0.0077
  480loPI   C5A 7675   0.401  16.044   8.457  0.0927 -0.1716  0.0882
  480loPI   C6A 7676   0.047  15.981   8.208 -0.2751 -0.1246  0.0140
  480loPI   C1B 7677   0.080  16.361   9.994  0.1285  0.1110 -0.0654
  480loPI   C2B 7678   0.035  16.423   9.529 -0.1970  0.1713 -0.0612
  480loPI   C3B 7679   0.030  16.489   9.054  0.0346 -0.2006 -0.1365
  480loPI   C4B 7680  -0.003  16.361   8.725  0.1509  0.0816 -0.0340
  481loPI    C1 7681  15.260   1.227  10.623  0.6756 -0.1874  0.1927
  481loPI    C2 7682  15.068   1.054  10.929  0.3252  0.0317  0.1026
  481loPI    C3 7683  15.284   1.386  10.989  0.1804  0.1278  0.0986
  481loPI   PO4 7684  15.252   1.158  10.456 -0.3290  0.0045  0.0007
  481loPI   GL1 7685  15.324   1.270  10.070  0.0640 -0.1219  0.2115
  481loPI   GL2 7686  15.571   1.146   9.951  0.1310  0.3084  0.1716
  481loPI   C1A 7687  15.089   1.574   9.839  0.1018 -0.2907  0.2646
  481loPI   C2A 7688  15.109   1.588   9.409  0.0247  0.1756 -0.0227
  481loPI   C3A 7689  15.179   1.627   8.908  0.2038  0.0227 -0.1063
  481loPI   C4A 7690  15.159   1.640   8.504 -0.0912  0.1388 -0.1677
  481loPI   C5A 7691  15.142   1.489   8.058 -0.1554 -0.1266 -0.3743
  481loPI   C6A 7692  15.018   1.261   7.759 -0.0217 -0.1388 -0.1765
  481loPI   C1B 7693  15.467   1.223   9.535 -0.1787 -0.0151 -0.0596
  481loPI   C2B 7694  15.490   1.293   9.127  0.0682  0.1217 -0.1787
  481loPI   C3B 7695  15.577   1.320   8.703  0.0059 -0.0149  0.3305
  481loPI   C4B 7696  15.524   1.217   8.397 -0.3105  0.1799  0.4629
  482loPI    C1 7697  16.161  10.176  11.367  0.0767  0.1162  0.0162
  482loPI    C2 7698  16.474  10.126  11.612 -0.0109 -0.2195  0.0645
  482loPI    C3 7699  16.191  10.395  11.700  0.2100  0.0136  0.0728
  482loPI   PO4 7700  16.244  10.091  11.151 -0.1663  0.0058  0.1546
  482loPI   GL1 7701  16.378  10.234  10.772  0.2206  0.0846  0.1285
  482loPI   GL2 7702  16.156  10.504  10.825  0.0638 -0.0106  0.0136
  482loPI   C1A 7703  16.366  10.338  10.318 -0.1231  0.0413  0.2755
  482loPI   C2A 7704  16.402  10.220   9.930  0.3153  0.0896  0.4583
  482loPI   C3A 7705  16.489  10.137   9.495  0.0925  0.2164  0.0515
  482loPI   C4A 7706  16.427  10.273   9.150 -0.0732 -0.0426 -0.2032
  482loPI   C5A 7707  16.334  10.235   8.711  0.1332  0.0967  0.0565
  482loPI   C6A 7708  16.236  10.310   8.233 -0.0934  0.0173 -0.0932
  482loPI   C1B 7709  15.924  10.581  10.339  0.2403 -0.1427  0.1552
  482loPI   C2B 7710  16.071  10.594   9.952  0.0057  0.2211  0.0548
  482loPI   C3B 7711  16.138  10.559   9.471  0.0044  0.0613 -0.0450
  482loPI   C4B 7712  16.065  10.593   8.954  0.3334  0.0666 -0.0697
  483loPI    C1 7713   3.200   1.226  10.249 -0.0557 -0.4049  0.1515
  483loPI    C2 7714   3.254   1.289  10.640  0.1305 -0.0871  0.0782
  483loPI    C3 7715   3.562   1.325  10.387 -0.0447 -0.0272 -0.1302
  483loPI   PO4 7716   3.155   0.947  10.141 -0.1267 -0.1111 -0.2190
  483loPI   GL1 7717   3.213   0.686   9.830  0.1923  0.1081  0.1546
  483loPI   GL2 7718   3.181   0.402   9.729 -0.1896  0.1643 -0.1108
  483loPI   C1A 7719   3.150   0.911   9.464  0.2351  0.0235  0.0615
  483loPI   C2A 7720   3.207   0.848   9.128 -0.0575  0.4304 -0.2237
  483loPI   C3A 7721   3.256   0.767   8.697 -0.0478 -0.0213 -0.0866
  483loPI   C4A 7722   3.222   0.710   8.189  0.0421 -0.1913 -0.1478
  483loPI   C5A 7723   3.003   0.775   7.900 -0.0406  0.0971  0.1792
  483loPI   C6A 7724   3.082   0.811   7.519 -0.0002 -0.1808  0.0081
  483loPI   C1B 7725   3.065   0.424   9.344 -0.0630  0.0893  0.2147
  483loPI   C2B 7726   3.084   0.348   8.982 -0.0747 -0.4113 -0.1743
  483loPI   C3B 7727   3.164   0.196   8.596  0.1138  0.0578  0.2585
  483loPI   C4B 7728   3.134   0.243   8.177 -0.5775  0.2270  0.0051
  484loPI    C1 7729   7.116   9.055  10.211 -0.0371 -0.1478 -0.0688
  484loPI    C2 7730   7.038   9.418  10.061  0.2141 -0.1219 -0.1413
  484loPI    C3 7731   7.388   9.347  10.240  0.1449 -0.3148 -0.0800
  484loPI   PO4 7732   7.050   8.861  10.000  0.1311 -0.0958  0.2897
  484loPI   GL1 7733   7.067   8.770   9.718  0.2816  0.0908  0.0493
  484loPI   GL2 7734   6.991   8.420   9.678  0.0152 -0.2817  0.0482
  484loPI   C1A 7735   6.998   8.851   9.312  0.1702  0.1444  0.0584
  484loPI   C2A 7736   6.713   8.618   9.085  0.2618 -0.0210  0.0647
  484loPI   C3A 7737   6.769   8.375   8.730 -0.1086  0.1883  0.0501
  484loPI   C4A 7738   6.723   8.341   8.248 -0.0793  0.2106 -0.2770
  484loPI   C5A 7739   7.049   8.326   7.848  0.1108 -0.1309 -0.0135
  484loPI   C6A 7740   7.333   8.136   7.533  0.0009 -0.0639 -0.2236
  484loPI   C1B 7741   7.169   8.402   9.279 -0.2283 -0.0096 -0.1247
  484loPI   C2B 7742   7.209   8.524   8.818 -0.2116  0.1114 -0.1732
  484loPI   C3B 7743   7.468   8.772   8.542  0.1221  0.1873 -0.0743
  484loPI   C4B 7744   7.667   8.835   8.185 -0.1930  0.0664  0.0685
  485loPI    C1 7745  13.654  13.329  10.635  0.3627  0.0022 -0.0343
  485loPI    C2 7746  13.758  13.502  10.980  0.0378  0.0761  0.0300
  485loPI    C3 7747  13.990  13.545  10.657  0.1855  0.2648  0.1589
  485loPI   PO4 7748  13.412  13.433  10.548  0.0558  0.3892  0.2900
  485loPI   GL1 7749  13.321  13.590  10.166 -0.1529 -0.0100 -0.0315
  485loPI   GL2 7750  13.024  13.349  10.178  0.1776  0.0994  0.0076
  485loPI   C1A 7751  13.332  13.491   9.720 -0.0352 -0.1298  0.0589
  485loPI   C2A 7752  13.422  13.577   9.311  0.3208  0.1073  0.1262
  485loPI   C3A 7753  13.420  13.506   8.912 -0.0193  0.1114  0.2353
  485loPI   C4A 7754  13.342  13.443   8.521 -0.0517  0.2455  0.1831
  485loPI   C5A 7755  13.351  13.856   8.254 -0.1782 -0.0515  0.1336
  485loPI   C6A 7756  13.427  14.254   8.178 -0.0459  0.1099  0.1346
  485loPI   C1B 7757  12.889  13.281   9.787 -0.2761 -0.4253 -0.2768
  485loPI   C2B 7758  12.897  13.299   9.321 -0.1267  0.1409  0.2322
  485loPI   C3B 7759  12.897  13.312   8.938 -0.0901 -0.3297  0.0126
  485loPI   C4B 7760  12.796  13.425   8.601  0.2116 -0.2358 -0.1166
  486loPI    C1 7761   4.009  12.023  10.886  0.1340  0.0732 -0.0697
  486loPI    C2 7762   4.312  11.832  11.064  0.0239  0.0118  0.0531
  486loPI    C3 7763   4.031  12.012  11.285 -0.1116 -0.0619 -0.0577
  486loPI   PO4 7764   3.965  11.870  10.574 -0.3585  0.0283 -0.0385
  486loPI   GL1 7765   3.662  11.844  10.273  0.3096 -0.0409  0.1472
  486loPI   GL2 7766   3.482  11.751  10.507 -0.1116  0.5508  0.0797
  486loPI   C1A 7767   3.656  11.882   9.934  0.0147  0.1442 -0.0212
  486loPI   C2A 7768   3.644  11.848   9.492  0.0236  0.1037  0.0169
  486loPI   C3A 7769   3.696  11.950   9.111  0.3019  0.0671  0.0296
  486loPI   C4A 7770   3.667  12.160   8.708  0.0217 -0.0829 -0.1410
  486loPI   C5A 7771   3.597  12.071   8.337 -0.1615 -0.1149  0.0615
  486loPI   C6A 7772   3.736  11.717   8.039  0.0779  0.0962 -0.2393
  486loPI   C1B 7773   3.196  11.683  10.123 -0.3467  0.1173  0.0793
  486loPI   C2B 7774   3.207  11.645   9.675 -0.1883  0.0539 -0.2193
  486loPI   C3B 7775   3.212  11.725   9.165 -0.0723  0.2021  0.2131
  486loPI   C4B 7776   3.309  11.772   8.762 -0.1371  0.3187  0.0288
  487loPI    C1 7777   3.117  14.918  11.107 -0.3190 -0.2255 -0.5912
  487loPI    C2 7778   2.877  15.171  11.302  0.0011 -0.1432 -0.2958
  487loPI    C3 7779   2.847  14.778  11.367  0.1509 -0.1119 -0.0222
  487loPI   PO4 7780   3.115  15.044  10.865 -0.1612 -0.0603  0.1624
  487loPI   GL1 7781   3.180  15.074  10.426 -0.1679  0.1642 -0.2398
  487loPI   GL2 7782   3.161  15.431  10.257 -0.3338 -0.1090  0.0790
  487loPI   C1A 7783   2.919  15.099  10.047 -0.0431  0.1217  0.2859
  487loPI   C2A 7784   2.909  15.103   9.585  0.0678  0.2820 -0.2032
  487loPI   C3A 7785   2.880  15.068   9.178  0.2992  0.2158  0.2149
  487loPI   C4A 7786   2.876  15.161   8.729  0.1787  0.0307  0.1295
  487loPI   C5A 7787   2.706  15.454   8.358  0.0800 -0.2784  0.1975
  487loPI   C6A 7788   2.792  15.402   7.852 -0.0075  0.0498 -0.1144
  487loPI   C1B 7789   3.038  15.611   9.828 -0.0782  0.0940 -0.0947
  487loPI   C2B 7790   3.058  15.670   9.464 -0.0798 -0.0342 -0.0246
  487loPI   C3B 7791   3.081  15.631   9.007 -0.0669 -0.1255 -0.1666
  487loPI   C4B 7792   3.087  15.639   8.604  0.0103 -0.0051  0.2804
  488loPI    C1 7793  15.406  14.415  11.174  0.4378  0.2321  0.0110
  488loPI    C2 7794  15.162  14.445  11.489  0.2691  0.1193 -0.1068
  488loPI    C3 7795  15.373  14.110  11.431  0.1546  0.0652 -0.2161
  488loPI   PO4 7796  15.207  14.434  10.942 -0.1165  0.0787 -0.1274
  488loPI   GL1 7797  14.984  14.289  10.643  0.0582  0.2025 -0.0919
  488loPI   GL2 7798  15.240  14.084  10.539 -0.1636  0.2820  0.0977
  488loPI   C1A 7799  14.855  14.409  10.199  0.4138  0.0962 -0.1874
  488loPI   C2A 7800  14.931  14.470   9.792  0.0493 -0.1719 -0.0778
  488loPI   C3A 7801  14.871  14.528   9.433  0.0609 -0.1290 -0.0617
  488loPI   C4A 7802  15.051  14.377   9.000 -0.2012  0.1342 -0.0891
  488loPI   C5A 7803  15.034  14.561   8.571  0.2377  0.0561  0.2419
  488loPI   C6A 7804  15.035  14.817   8.239 -0.1651 -0.1838 -0.0412
  488loPI   C1B 7805  15.188  14.085  10.176  0.2332 -0.0491  0.0973
  488loPI   C2B 7806  15.323  14.103   9.788  0.0711  0.1932 -0.0411
  488loPI   C3B 7807  15.401  14.070   9.353  0.0156 -0.3637  0.3181
  488loPI   C4B 7808  15.455  14.071   8.892 -0.3871  0.3102 -0.1769
  489loPI    C1 7809   2.733  16.106  10.962 -0.1639  0.2580  0.1733
  489loPI    C2 7810   2.792  16.041  11.353 -0.1065 -0.0703  0.1130
  489loPI    C3 7811   3.105  16.085  11.108 -0.1427  0.1770  0.1084
  489loPI   PO4 7812   2.540  15.921  10.879  0.1072  0.0492 -0.0835
  489loPI   GL1 7813   2.611  15.670  10.518  0.1069  0.2445  0.0839
  489loPI   GL2 7814   2.716  15.365  10.521 -0.0781  0.1042 -0.2368
  489loPI   C1A 7815   2.735  15.925  10.209  0.2356  0.2356 -0.2365
  489loPI   C2A 7816   2.621  15.926   9.753 -0.1067  0.0719 -0.2355
  489loPI   C3A 7817   2.627  15.974   9.306 -0.1397 -0.1691  0.0768
  489loPI   C4A 7818   2.636  16.011   8.871  0.1421  0.1006  0.3342
  489loPI   C5A 7819   2.275  16.000   8.619  0.2209 -0.2171 -0.0926
  489loPI   C6A 7820   1.850  15.878   8.398 -0.3959  0.1371 -0.0392
  489loPI   C1B 7821   2.580  15.441  10.076 -0.0846  0.1625 -0.0819
  489loPI   C2B 7822   2.525  15.466   9.646  0.1532  0.1181  0.2742
  489loPI   C3B 7823   2.528  15.485   9.202 -0.1591  0.0336  0.0742
  489loPI   C4B 7824   2.529  15.526   8.813  0.1394 -0.1903  0.3014
  490loPI    C1 7825  10.848   3.298  10.382 -0.0863  0.1739  0.0304
  490loPI    C2 7826  11.169   3.519  10.473 -0.1319  0.1668  0.2120
  490loPI    C3 7827  11.003   3.283  10.751 -0.0010 -0.2026 -0.0162
  490loPI   PO4 7828  10.734   3.573  10.230 -0.2189 -0.1163  0.1729
  490loPI   GL1 7829  10.680   3.770   9.875  0.0933 -0.1108 -0.2605
  490loPI   GL2 7830  11.008   3.787   9.689 -0.0991 -0.1386 -0.0047
  490loPI   C1A 7831  10.520   3.797   9.507  0.1125  0.0590  0.0746
  490loPI   C2A 7832  10.565   3.738   9.098 -0.4262 -0.0035 -0.0364
  490loPI   C3A 7833  10.491   3.464   8.809  0.0296 -0.0351  0.1730
  490loPI   C4A 7834  10.555   3.390   8.390  0.0509 -0.0079  0.1230
  490loPI   C5A 7835  10.594   3.085   8.045 -0.0576  0.1196  0.2648
  490loPI   C6A 7836  10.576   2.834   7.579  0.1791 -0.0362  0.1426
  490loPI   C1B 7837  11.016   3.649   9.253  0.1247 -0.0807  0.2913
  490loPI   C2B 7838  11.020   3.514   8.823 -0.0300  0.1659 -0.2690
  490loPI   C3B 7839  11.077   3.569   8.432 -0.0060  0.4369  0.1717
  490loPI   C4B 7840  10.810   3.593   8.040 -0.1345 -0.0800  0.2040
  491loPI    C1 7841   6.029  16.751  10.799  0.0639  0.0002  0.2408
  491loPI    C2 7842   6.216  17.004  11.046  0.0341  0.0566  0.2058
  491loPI    C3 7843   5.818  17.018  11.010  0.0376  0.0426  0.1608
  491loPI   PO4 7844   6.247  16.714  10.608  0.2377  0.1169 -0.0054
  491loPI   GL1 7845   6.357  16.486  10.183 -0.1162 -0.1453  0.1910
  491loPI   GL2 7846   6.050  16.707  10.112  0.0357 -0.2720 -0.0632
  491loPI   C1A 7847   6.474  16.401   9.708  0.0713  0.3011 -0.2711
  491loPI   C2A 7848   6.393  16.263   9.174  0.0768 -0.1105 -0.3003
  491loPI   C3A 7849   6.467  16.115   8.718 -0.3009 -0.0535  0.0601
  491loPI   C4A 7850   6.511  16.105   8.257 -0.2265  0.0757 -0.0563
  491loPI   C5A 7851   6.750  16.064   7.965  0.2837 -0.0898  0.3729
  491loPI   C6A 7852   6.901  15.817   7.563  0.0357 -0.0187 -0.2886
  491loPI   C1B 7853   5.974  16.573   9.687 -0.0671 -0.0188 -0.1103
  491loPI   C2B 7854   6.004  16.586   9.157 -0.1496 -0.0699 -0.1282
  491loPI   C3B 7855   6.097  16.614   8.736 -0.0846  0.1658 -0.0750
  491loPI   C4B 7856   6.065  16.636   8.294  0.0924 -0.1480 -0.1429
  492loPI    C1 7857   5.152  13.279  10.722  0.2428 -0.1398 -0.2709
  492loPI    C2 7858   5.295  12.966  10.926  0.0926 -0.0543 -0.0312
  492loPI    C3 7859   5.175  13.295  11.121  0.2689  0.1627 -0.2822
  492loPI   PO4 7860   5.338  13.319  10.467  0.2225  0.0390 -0.1766
  492loPI   GL1 7861   5.535  13.491  10.166  0.2911  0.0429 -0.1702
  492loPI   GL2 7862   5.347  13.859  10.302 -0.0721  0.2024  0.1088
  492loPI   C1A 7863   5.342  13.432   9.796  0.2702  0.1273  0.3415
  492loPI   C2A 7864   5.307  13.487   9.294 -0.1282 -0.0281  0.0216
  492loPI   C3A 7865   5.353  13.464   8.902 -0.2306 -0.0957  0.0288
  492loPI   C4A 7866   5.342  13.508   8.432  0.0532 -0.2887 -0.1515
  492loPI   C5A 7867   5.684  13.470   8.015 -0.0232 -0.2458 -0.0061
  492loPI   C6A 7868   5.856  13.144   7.789 -0.0729 -0.4399  0.0325
  492loPI   C1B 7869   5.499  13.922   9.890  0.3705 -0.0369  0.1630
  492loPI   C2B 7870   5.404  13.905   9.546 -0.0240  0.1025 -0.0892
  492loPI   C3B 7871   5.414  13.981   9.127 -0.0282  0.2607  0.1752
  492loPI   C4B 7872   5.415  13.941   8.717 -0.2031  0.3702  0.0298
  493loPI    C1 7873   4.998   8.020  10.318  0.0491 -0.1420 -0.0750
  493loPI    C2 7874   4.816   7.951  10.667 -0.2665  0.0999 -0.1865
  493loPI    C3 7875   5.174   8.130  10.660 -0.2351  0.0481  0.0139
  493loPI   PO4 7876   4.867   7.916  10.086  0.1826 -0.3686  0.2405
  493loPI   GL1 7877   4.865   7.826   9.670  0.0247  0.1907  0.3313
  493loPI   GL2 7878   4.868   8.267   9.538 -0.1793 -0.2153 -0.0093
  493loPI   C1A 7879   4.776   7.939   9.233 -0.1242  0.1552 -0.1731
  493loPI   C2A 7880   4.656   7.879   8.732 -0.0660  0.0918 -0.1914
  493loPI   C3A 7881   4.611   7.910   8.284  0.3403 -0.0781  0.0403
  493loPI   C4A 7882   4.390   7.705   7.961  0.2730 -0.0036  0.0153
  493loPI   C5A 7883   3.941   7.714   7.925 -0.3003  0.0244 -0.2417
  493loPI   C6A 7884   3.550   7.781   7.677  0.2686 -0.1719 -0.0772
  493loPI   C1B 7885   4.959   8.401   9.074  0.2891 -0.0761 -0.1371
  493loPI   C2B 7886   4.912   8.272   8.635 -0.0106 -0.0475  0.1151
  493loPI   C3B 7887   4.886   8.293   8.265  0.0371 -0.1530 -0.1651
  493loPI   C4B 7888   4.565   8.265   7.912  0.2394 -0.1189 -0.3026
  494loPI    C1 7889   2.099   3.593  10.557 -0.2094  0.1249 -0.1032
  494loPI    C2 7890   2.053   3.885  10.827 -0.1056 -0.0517  0.1078
  494loPI    C3 7891   2.021   3.502  10.938 -0.4122 -0.1206 -0.2004
  494loPI   PO4 7892   1.975   3.664  10.361  0.2385 -0.1165 -0.1552
  494loPI   GL1 7893   2.123   3.628  10.018  0.0586  0.2669  0.1015
  494loPI   GL2 7894   1.834   3.357   9.864  0.0656 -0.0737 -0.5043
  494loPI   C1A 7895   1.880   3.868   9.664 -0.0072  0.2552  0.2230
  494loPI   C2A 7896   1.894   3.803   9.252  0.0350  0.1555  0.2400
  494loPI   C3A 7897   1.940   3.835   8.753  0.2450  0.0941  0.0583
  494loPI   C4A 7898   1.911   3.814   8.339  0.2531 -0.1519 -0.2995
  494loPI   C5A 7899   1.746   3.454   8.171  0.1302  0.0797 -0.2917
  494loPI   C6A 7900   1.635   3.103   8.045  0.1545 -0.2437 -0.1363
  494loPI   C1B 7901   2.059   3.346   9.399  0.2959 -0.2406 -0.0568
  494loPI   C2B 7902   1.864   3.227   9.051 -0.0148  0.0738 -0.1357
  494loPI   C3B 7903   1.887   3.242   8.722 -0.1645  0.3071  0.1427
  494loPI   C4B 7904   2.095   3.124   8.365  0.0749 -0.1296 -0.1038
  495loPI    C1 7905   6.423  15.093  10.643  0.1439 -0.1056 -0.1791
  495loPI    C2 7906   6.523  14.892  10.974  0.2035  0.0845 -0.0803
  495loPI    C3 7907   6.730  15.217  10.867 -0.1235  0.3131 -0.0323
  495loPI   PO4 7908   6.185  14.902  10.438  0.1518  0.1761  0.4700
  495loPI   GL1 7909   6.083  14.915  10.060  0.0769  0.1868 -0.0627
  495loPI   GL2 7910   6.130  14.503  10.007  0.0498  0.2224 -0.0241
  495loPI   C1A 7911   6.138  15.208   9.649  0.1205  0.0421  0.4056
  495loPI   C2A 7912   6.187  15.255   9.162  0.2171  0.1440 -0.0999
  495loPI   C3A 7913   6.202  15.145   8.704 -0.5330 -0.5846 -0.0727
  495loPI   C4A 7914   6.403  15.013   8.342 -0.0534  0.1911  0.2969
  495loPI   C5A 7915   6.491  15.351   8.074 -0.4197 -0.0674 -0.1837
  495loPI   C6A 7916   6.394  15.717   7.773  0.0933  0.0446  0.0608
  495loPI   C1B 7917   6.142  14.526   9.613 -0.1940  0.2557  0.3211
  495loPI   C2B 7918   6.095  14.665   9.143 -0.1113  0.0726  0.4674
  495loPI   C3B 7919   6.052  14.680   8.703 -0.2143 -0.2551 -0.1290
  495loPI   C4B 7920   5.891  14.624   8.219 -0.1682  0.1136  0.1008
  496loPI    C1 7921  16.616  17.926  10.869  0.0164 -0.1093  0.1070
  496loPI    C2 7922  16.344  17.643  10.945 -0.1406  0.0438  0.1224
  496loPI    C3 7923  16.607  17.749  11.227 -0.2312  0.0752  0.1957
  496loPI   PO4 7924  16.508  18.044  10.698  0.0584  0.3589 -0.0562
  496loPI   GL1 7925  16.398  18.223  10.309 -0.1520 -0.0581 -0.0496
  496loPI   GL2 7926  16.518  18.500  10.415  0.0096 -0.0776 -0.1938
  496loPI   C1A 7927  16.252  18.236   9.908 -0.0940 -0.0217 -0.1478
  496loPI   C2A 7928  16.189  18.281   9.481 -0.0868 -0.0363  0.1699
  496loPI   C3A 7929  16.186  18.302   9.048  0.1346 -0.1009 -0.0724
  496loPI   C4A 7930  16.310  18.172   8.640  0.0059 -0.1491 -0.2960
  496loPI   C5A 7931  16.065  18.051   8.248  0.1379 -0.0505 -0.0361
  496loPI   C6A 7932  15.719  17.829   7.995 -0.1529 -0.1165 -0.1263
  496loPI   C1B 7933  16.768  18.486  10.012 -0.1622  0.2801  0.0352
  496loPI   C2B 7934  16.727  18.472   9.586 -0.2230 -0.4450 -0.1022
  496loPI   C3B 7935  16.771  18.417   9.149 -0.0649 -0.0403 -0.0978
  496loPI   C4B 7936  16.703  18.542   8.648 -0.1464  0.2230 -0.1429
  497loPI    C1 7937  12.280  13.482  11.064  0.0808 -0.1687 -0.0168
  497loPI    C2 7938  12.193  13.779  11.318  0.1933 -0.1915  0.0489
  497loPI    C3 7939  12.176  13.399  11.441  0.0089 -0.2148 -0.0468
  497loPI   PO4 7940  12.518  13.540  10.921 -0.0856 -0.3828 -0.4271
  497loPI   GL1 7941  12.523  13.668  10.491  0.0076 -0.1926 -0.1200
  497loPI   GL2 7942  12.251  13.849  10.569 -0.1987 -0.1720 -0.1119
  497loPI   C1A 7943  12.504  13.539  10.071 -0.0132  0.0977 -0.1700
  497loPI   C2A 7944  12.590  13.608   9.558 -0.0569  0.1012 -0.2593
  497loPI   C3A 7945  12.521  13.623   9.092 -0.1142  0.0039 -0.2834
  497loPI   C4A 7946  12.503  13.831   8.692  0.2241  0.0711 -0.0807
  497loPI   C5A 7947  12.661  14.176   8.510  0.0021 -0.0920 -0.2450
  497loPI   C6A 7948  12.870  14.386   8.224 -0.1590  0.0440 -0.0156
  497loPI   C1B 7949  12.510  14.063  10.201 -0.0638  0.0319  0.1417
  497loPI   C2B 7950  12.656  14.232   9.761  0.1922 -0.2072 -0.2610
  497loPI   C3B 7951  12.546  14.068   9.326  0.0737  0.0909  0.1183
  497loPI   C4B 7952  12.710  14.279   8.989  0.1177 -0.0945 -0.0048
  498loPI    C1 7953  17.887  14.005  11.258  0.2040  0.0404 -0.0667
  498loPI    C2 7954  18.150  14.195  11.492  0.0978 -0.0785  0.1535
  498loPI    C3 7955  17.774  14.143  11.616  0.0107 -0.0494 -0.0916
  498loPI   PO4 7956  17.861  14.240  11.060 -0.4421 -0.0393 -0.1122
  498loPI   GL1 7957  18.021  14.284  10.560  0.0705  0.0108 -0.1593
  498loPI   GL2 7958  17.683  14.319  10.567  0.1475 -0.0386 -0.0086
  498loPI   C1A 7959  18.233  14.127  10.234  0.0940  0.1357 -0.1525
  498loPI   C2A 7960  18.253  14.208   9.836  0.2193 -0.0414  0.1206
  498loPI   C3A 7961  18.229  14.188   9.385  0.0316 -0.2743 -0.0450
  498loPI   C4A 7962  18.158  14.097   8.997  0.0769  0.1979 -0.2485
  498loPI   C5A 7963  18.155  14.162   8.630  0.0461  0.0519  0.0915
  498loPI   C6A 7964  18.550  14.316   8.345  0.5946 -0.1544 -0.1047
  498loPI   C1B 7965  17.827  14.522  10.188 -0.2169  0.0844 -0.1234
  498loPI   C2B 7966  17.781  14.511   9.667 -0.0148 -0.1973  0.3333
  498loPI   C3B 7967  17.838  14.468   9.206 -0.0881 -0.2218 -0.0042
  498loPI   C4B 7968  17.876  14.500   8.795 -0.2066  0.2157  0.0035
  499loPI    C1 7969  15.565   5.703  10.927  0.1391 -0.1127 -0.1500
  499loPI    C2 7970  15.886   5.463  10.937  0.1864 -0.0419  0.0740
  499loPI    C3 7971  15.575   5.392  11.178  0.1852  0.1000  0.1155
  499loPI   PO4 7972  15.396   5.705  10.693  0.0471 -0.0810 -0.2420
  499loPI   GL1 7973  15.425   5.857  10.285 -0.0709 -0.0560  0.1371
  499loPI   GL2 7974  15.345   6.123  10.086 -0.3706 -0.2206  0.1305
  499loPI   C1A 7975  15.417   5.647   9.854 -0.1538 -0.0029  0.1198
  499loPI   C2A 7976  15.503   5.596   9.460 -0.2301  0.0133  0.1754
  499loPI   C3A 7977  15.512   5.668   8.995 -0.0315  0.1909 -0.0796
  499loPI   C4A 7978  15.549   5.656   8.596  0.0282  0.1984  0.0199
  499loPI   C5A 7979  15.633   5.787   8.165 -0.0361 -0.1623  0.0191
  499loPI   C6A 7980  15.773   6.250   8.060 -0.0248 -0.3072  0.1785
  499loPI   C1B 7981  15.513   6.136   9.602 -0.1810 -0.0114  0.1288
  499loPI   C2B 7982  15.635   6.064   9.206 -0.1271 -0.0194  0.1644
  499loPI   C3B 7983  15.588   6.131   8.873 -0.5087  0.2400  0.2575
  499loPI   C4B 7984  15.601   6.166   8.527  0.2619  0.1511 -0.3055
  500loPI    C1 7985  16.884   6.102  10.917  0.3141 -0.0095 -0.0226
  500loPI    C2 7986  16.692   6.292  11.211  0.2901  0.0217 -0.0583
  500loPI    C3 7987  16.747   5.897  11.231  0.3037  0.0262 -0.0038
  500loPI   PO4 7988  16.704   6.295  10.696  0.3329 -0.0845  0.0629
  500loPI   GL1 7989  16.493   6.129  10.281 -0.0045  0.0460  0.0454
  500loPI   GL2 7990  16.864   6.104  10.218  0.1567 -0.1154  0.0380
  500loPI   C1A 7991  16.378   6.150   9.901 -0.3015  0.1718 -0.3897
  500loPI   C2A 7992  16.447   5.824   9.574 -0.0698  0.1636  0.0863
  500loPI   C3A 7993  16.489   5.877   9.090  0.2355  0.1885  0.1352
  500loPI   C4A 7994  16.577   5.938   8.717 -0.2055 -0.3153  0.2334
  500loPI   C5A 7995  16.557   5.894   8.275 -0.0363  0.2706 -0.0625
  500loPI   C6A 7996  16.748   5.950   7.958 -0.2510 -0.0989 -0.4152
  500loPI   C1B 7997  16.856   5.929   9.873 -0.0591  0.1767 -0.2886
  500loPI   C2B 7998  17.019   5.991   9.431  0.2220  0.2517 -0.1977
  500loPI   C3B 7999  17.004   6.038   8.975 -0.0594  0.0710  0.1444
  500loPI   C4B 8000  17.001   6.071   8.471 -0.3351 -0.2218  0.2077
  501loPI    C1 8001   6.967  17.287  10.791  0.1488 -0.0145 -0.0852
  501loPI    C2 8002   7.262  17.552  10.737  0.1582 -0.0210 -0.0657
  501loPI    C3 8003   7.034  17.571  11.064  0.1730 -0.0504 -0.0536
  501loPI   PO4 8004   6.879  17.254  10.478  0.2376  0.2050  0.0374
  501loPI   GL1 8005   6.929  17.158  10.097 -0.2274 -0.0926  0.1556
  501loPI   GL2 8006   7.164  17.094  10.060 -0.0887  0.2601  0.0472
  501loPI   C1A 8007   7.051  16.969   9.611  0.0313  0.0715 -0.2705
  501loPI   C2A 8008   7.003  16.941   9.252  0.0513  0.1872 -0.3591
  501loPI   C3A 8009   7.147  16.851   8.921  0.1116 -0.0449  0.2415
  501loPI   C4A 8010   7.129  16.737   8.470  0.0801  0.0991 -0.0149
  501loPI   C5A 8011   7.080  16.614   8.047  0.2780  0.2489 -0.0650
  501loPI   C6A 8012   6.884  16.605   7.790  0.2046  0.1525 -0.1995
  501loPI   C1B 8013   7.262  17.415   9.751 -0.1572  0.1422  0.0145
  501loPI   C2B 8014   7.205  17.481   9.324 -0.0805 -0.0355  0.1253
  501loPI   C3B 8015   7.197  17.357   8.936  0.2396 -0.0473  0.2636
  501loPI   C4B 8016   7.224  17.237   8.537  0.2784 -0.0190 -0.2364
  502loPI    C1 8017  17.541  10.682  11.481 -0.1683 -0.1679  0.0678
  502loPI    C2 8018  17.505  10.367  11.237  0.3073 -0.2593  0.1060
  502loPI    C3 8019  17.406  10.334  11.623 -0.1986 -0.1884 -0.0109
  502loPI   PO4 8020  17.389  10.851  11.229  0.0418 -0.2638 -0.0159
  502loPI   GL1 8021  17.155  10.737  10.891  0.1818 -0.0034 -0.3132
  502loPI   GL2 8022  17.099  10.470  10.915 -0.2029 -0.1008  0.0637
  502loPI   C1A 8023  17.084  10.864  10.482 -0.1129  0.1068  0.2090
  502loPI   C2A 8024  17.050  10.933  10.068  0.2687  0.2588 -0.0192
  502loPI   C3A 8025  17.039  10.816   9.659 -0.2213 -0.2760  0.1046
  502loPI   C4A 8026  17.052  10.931   9.267 -0.5051 -0.1395  0.1049
  502loPI   C5A 8027  17.354  10.955   8.927  0.0145 -0.0023 -0.3196
  502loPI   C6A 8028  17.293  10.938   8.484  0.1808 -0.0233  0.1790
  502loPI   C1B 8029  16.886  10.344  10.544 -0.0099 -0.2877 -0.0814
  502loPI   C2B 8030  16.886  10.409  10.094 -0.2677  0.3520  0.0002
  502loPI   C3B 8031  16.942  10.301   9.663  0.2001 -0.0677 -0.2104
  502loPI   C4B 8032  16.981  10.433   9.282 -0.0915  0.0277  0.3890
  503loPI    C1 8033   5.844  13.738  10.664  0.0469 -0.0642 -0.1312
  503loPI    C2 8034   5.460  13.763  10.773  0.1310 -0.0207  0.1651
  503loPI    C3 8035   5.631  14.064  10.573  0.0021 -0.0569 -0.0022
  503loPI   PO4 8036   5.858  13.517  10.517 -0.0720 -0.0039 -0.0873
  503loPI   GL1 8037   5.940  13.245  10.109 -0.3319  0.2640  0.0308
  503loPI   GL2 8038   5.768  12.996   9.968  0.2187 -0.1488  0.0566
  503loPI   C1A 8039   5.831  13.539   9.736  0.4581  0.0264 -0.0086
  503loPI   C2A 8040   5.828  13.684   9.377 -0.0817 -0.4453 -0.1844
  503loPI   C3A 8041   5.853  13.723   8.962  0.2477 -0.1415 -0.0656
  503loPI   C4A 8042   5.845  13.679   8.523  0.0552 -0.1658 -0.0776
  503loPI   C5A 8043   6.140  13.657   8.040 -0.0528 -0.3491  0.2630
  503loPI   C6A 8044   6.457  13.719   7.813 -0.1164 -0.0056  0.0953
  503loPI   C1B 8045   5.764  13.087   9.577  0.2944 -0.0881  0.0111
  503loPI   C2B 8046   5.645  13.067   9.114 -0.3196 -0.2916 -0.3187
  503loPI   C3B 8047   5.732  13.160   8.681 -0.1389  0.2800 -0.1861
  503loPI   C4B 8048   5.865  13.120   8.286  0.1733 -0.0863  0.0395
  504loPI    C1 8049   2.843   2.057  10.623  0.0906  0.2726  0.1849
  504loPI    C2 8050   2.533   2.263  10.770 -0.2432 -0.1011  0.0222
  504loPI    C3 8051   2.830   2.149  11.012 -0.3094  0.1213  0.2113
  504loPI   PO4 8052   2.733   2.075  10.356  0.1828 -0.0414  0.1301
  504loPI   GL1 8053   2.509   1.844   9.955 -0.1025 -0.0337 -0.1636
  504loPI   GL2 8054   2.261   1.757   9.982 -0.1287 -0.1368  0.1601
  504loPI   C1A 8055   2.509   1.711   9.535  0.1456  0.2369  0.1323
  504loPI   C2A 8056   2.474   1.586   9.150 -0.1121  0.3325 -0.2878
  504loPI   C3A 8057   2.552   1.583   8.852 -0.1940  0.2371  0.0875
  504loPI   C4A 8058   2.599   1.535   8.386  0.1314  0.2459 -0.3156
  504loPI   C5A 8059   2.371   1.547   8.052  0.1573 -0.0254  0.1867
  504loPI   C6A 8060   2.435   1.526   7.621  0.0079  0.1969  0.0812
  504loPI   C1B 8061   2.015   1.939   9.685  0.0409  0.3057  0.0812
  504loPI   C2B 8062   2.069   1.897   9.324  0.2826  0.5269 -0.0537
  504loPI   C3B 8063   2.096   1.857   8.916 -0.0545  0.4142  0.0758
  504loPI   C4B 8064   2.108   1.813   8.387  0.1713  0.3331  0.1086
  505loPI    C1 8065   5.184   3.396  10.361  0.2294 -0.0621  0.1087
  505loPI    C2 8066   4.960   3.234  10.649  0.0953 -0.2320 -0.0885
  505loPI    C3 8067   5.263   3.027  10.491  0.3029 -0.0582  0.0758
  505loPI   PO4 8068   4.933   3.619  10.279 -0.0493  0.0039 -0.2394
  505loPI   GL1 8069   4.658   3.664   9.892 -0.1338 -0.0608 -0.0334
  505loPI   GL2 8070   4.909   3.422   9.856  0.1403 -0.1357 -0.2471
  505loPI   C1A 8071   4.512   3.600   9.477  0.1287 -0.2119 -0.0471
  505loPI   C2A 8072   4.291   3.624   8.988 -0.0923 -0.5389 -0.0850
  505loPI   C3A 8073   4.239   3.783   8.617 -0.1147 -0.3823 -0.2363
  505loPI   C4A 8074   4.069   4.149   8.437 -0.3679 -0.3096 -0.0041
  505loPI   C5A 8075   3.861   4.222   8.118  0.1400  0.1715  0.0863
  505loPI   C6A 8076   3.845   4.186   7.705  0.3868  0.1886 -0.0322
  505loPI   C1B 8077   4.928   3.369   9.378 -0.0657 -0.0401  0.2337
  505loPI   C2B 8078   4.725   3.308   8.989 -0.0342 -0.2064 -0.1792
  505loPI   C3B 8079   4.577   3.434   8.587 -0.0195  0.0920 -0.2055
  505loPI   C4B 8080   4.497   3.663   8.247 -0.2607  0.3182  0.1089
  506loPI    C1 8081   1.446   1.559  10.793 -0.2377  0.3632 -0.1577
  506loPI    C2 8082   1.807   1.723  10.847 -0.0630 -0.0335 -0.0868
  506loPI    C3 8083   1.564   1.668  11.160 -0.0590 -0.0511 -0.0868
  506loPI   PO4 8084   1.452   1.328  10.688  0.1757  0.1027 -0.2176
  506loPI   GL1 8085   1.666   1.266  10.292 -0.2147  0.3982 -0.3808
  506loPI   GL2 8086   1.430   1.175  10.153 -0.0382 -0.0091 -0.1158
  506loPI   C1A 8087   1.921   1.399   9.910 -0.1737 -0.2419 -0.3689
  506loPI   C2A 8088   1.942   1.419   9.525  0.0616 -0.3133  0.1931
  506loPI   C3A 8089   1.972   1.442   9.121 -0.1054  0.2132 -0.0459
  506loPI   C4A 8090   2.028   1.367   8.741  0.1918 -0.4657 -0.2163
  506loPI   C5A 8091   1.978   1.270   8.287 -0.2519 -0.0200  0.0954
  506loPI   C6A 8092   1.783   1.462   7.894  0.0862 -0.4836  0.0585
  506loPI   C1B 8093   1.484   1.297   9.800 -0.0528 -0.0564  0.2878
  506loPI   C2B 8094   1.466   1.367   9.353  0.2000  0.0904  0.1285
  506loPI   C3B 8095   1.389   1.320   8.979 -0.0038  0.2075 -0.2959
  506loPI   C4B 8096   1.461   1.204   8.684  0.0677 -0.4015 -0.0809
  507loPI    C1 8097  17.585  11.485  11.688  0.1619 -0.1040 -0.0362
  507loPI    C2 8098  17.411  11.126  11.711  0.0243 -0.0508 -0.2175
  507loPI    C3 8099  17.210  11.452  11.825  0.1516 -0.0307 -0.0459
  507loPI   PO4 8100  17.642  11.466  11.419 -0.0218 -0.3244  0.1637
  507loPI   GL1 8101  17.516  11.352  11.046 -0.1975  0.3021  0.1003
  507loPI   GL2 8102  17.799  11.399  10.940  0.0062  0.1939  0.2655
  507loPI   C1A 8103  17.246  11.276  10.731 -0.3295  0.2390 -0.1558
  507loPI   C2A 8104  17.158  11.418  10.338  0.2297 -0.1449  0.0838
  507loPI   C3A 8105  17.144  11.480   9.960  0.0377 -0.0691  0.0552
  507loPI   C4A 8106  17.179  11.304   9.570  0.1883 -0.4025 -0.2203
  507loPI   C5A 8107  17.271  11.382   9.205 -0.1837  0.2347 -0.0012
  507loPI   C6A 8108  17.024  11.345   8.740 -0.2954  0.0925  0.0286
  507loPI   C1B 8109  17.963  11.237  10.596 -0.1196 -0.0733 -0.0450
  507loPI   C2B 8110  17.999  11.142  10.147 -0.4128  0.0384 -0.2074
  507loPI   C3B 8111  18.004  11.092   9.719 -0.2100  0.0628  0.5024
  507loPI   C4B 8112  18.063  11.124   9.348  0.2341 -0.1331 -0.0311
  508loPI    C1 8113  17.077  16.677  10.422 -0.0169 -0.0611  0.0302
  508loPI    C2 8114  17.162  16.704  10.812 -0.1492  0.1804  0.0440
  508loPI    C3 8115  16.812  16.551  10.694 -0.0525 -0.0205  0.0145
  508loPI   PO4 8116  17.304  16.711  10.309 -0.2302  0.2803  0.1738
  508loPI   GL1 8117  17.703  16.939  10.091  0.1069 -0.0474 -0.0192
  508loPI   GL2 8118  17.993  16.715  10.017  0.1556 -0.0210 -0.0510
  508loPI   C1A 8119  17.843  16.879   9.583  0.3518  0.0596 -0.1902
  508loPI   C2A 8120  17.892  16.736   9.222  0.3161  0.0062  0.1512
  508loPI   C3A 8121  17.817  16.827   8.735 -0.3524  0.0781  0.2653
  508loPI   C4A 8122  17.846  16.919   8.195  0.3402  0.0091 -0.1120
  508loPI   C5A 8123  17.669  16.816   7.843 -0.0787  0.2767 -0.1103
  508loPI   C6A 8124  17.294  16.625   7.583 -0.3401 -0.1244  0.2742
  508loPI   C1B 8125  18.310  16.878   9.806 -0.0556 -0.4386  0.1184
  508loPI   C2B 8126  18.392  16.995   9.438 -0.0999 -0.1101  0.0309
  508loPI   C3B 8127  18.221  17.018   8.985  0.3024 -0.2960  0.0357
  508loPI   C4B 8128  18.315  16.884   8.523  0.0024  0.0480 -0.1847
  509loPI    C1 8129  15.950  16.011  10.829  0.0047 -0.0615 -0.0844
  509loPI    C2 8130  15.957  15.949  11.224 -0.2887  0.1254 -0.0470
  509loPI    C3 8131  16.052  16.308  11.076 -0.2376  0.0729 -0.1430
  509loPI   PO4 8132  16.037  15.756  10.730 -0.2226 -0.2682  0.3224
  509loPI   GL1 8133  16.192  15.689  10.428  0.1577  0.0809  0.0033
  509loPI   GL2 8134  15.909  15.624  10.296 -0.0178  0.2705  0.2356
  509loPI   C1A 8135  16.264  15.644   9.893  0.0196 -0.0052 -0.3798
  509loPI   C2A 8136  16.245  15.832   9.464  0.0829 -0.0346 -0.0651
  509loPI   C3A 8137  16.183  15.822   8.995  0.1262 -0.0636  0.0075
  509loPI   C4A 8138  16.256  15.857   8.629 -0.1876  0.1374  0.1084
  509loPI   C5A 8139  16.085  15.979   8.229 -0.3972 -0.1869 -0.2114
  509loPI   C6A 8140  15.999  16.138   7.823 -0.1162  0.2312  0.2462
  509loPI   C1B 8141  15.763  15.705   9.951  0.0425  0.0682 -0.0246
  509loPI   C2B 8142  15.768  15.624   9.504  0.0002 -0.0263 -0.0237
  509loPI   C3B 8143  15.728  15.619   9.105 -0.0805  0.0695  0.0611
  509loPI   C4B 8144  15.763  15.744   8.575 -0.1917 -0.1400  0.0028
  510loPI    C1 8145   2.761  14.248  10.815  0.0362  0.1043  0.2099
  510loPI    C2 8146   3.005  14.406  11.090 -0.1200  0.1138  0.3452
  510loPI    C3 8147   2.707  14.625  10.938  0.0536  0.1566  0.0587
  510loPI   PO4 8148   2.966  14.091  10.624  0.0738 -0.0312  0.2309
  510loPI   GL1 8149   2.960  13.829  10.348 -0.0349  0.0863 -0.2595
  510loPI   GL2 8150   2.667  14.042  10.231  0.0194 -0.1221  0.1056
  510loPI   C1A 8151   3.068  13.637  10.029  0.0369 -0.1261  0.0281
  510loPI   C2A 8152   3.099  13.600   9.635 -0.0098 -0.4305  0.0832
  510loPI   C3A 8153   2.994  13.651   9.167  0.0896  0.0858 -0.0131
  510loPI   C4A 8154   3.022  13.692   8.734 -0.1495  0.2504  0.0005
  510loPI   C5A 8155   3.223  13.772   8.331 -0.1846 -0.1059  0.0019
  510loPI   C6A 8156   3.279  14.168   8.063 -0.1588 -0.0220 -0.1909
  510loPI   C1B 8157   2.513  14.163   9.933 -0.0156  0.0661 -0.2236
  510loPI   C2B 8158   2.619  14.162   9.501  0.2293  0.1854  0.0285
  510loPI   C3B 8159   2.669  14.050   9.039  0.3659  0.1201  0.1083
  510loPI   C4B 8160   2.717  14.107   8.590  0.0659 -0.2366 -0.1019
  511loPI    C1 8161   0.307  10.033  11.363  0.2333 -0.1060  0.0547
  511loPI    C2 8162   0.016   9.926  11.616  0.0270  0.1504 -0.0694
  511loPI    C3 8163   0.395   9.944  11.743 -0.0319 -0.0261  0.1375
  511loPI   PO4 8164   0.217   9.948  11.143 -0.2576  0.0893  0.3757
  511loPI   GL1 8165   0.225   9.796  10.683 -0.2440  0.0574  0.3384
  511loPI   GL2 8166  -0.037   9.720  10.550  0.2294 -0.1718 -0.1622
  511loPI   C1A 8167   0.380   9.893  10.223 -0.1194  0.0195 -0.1086
  511loPI   C2A 8168   0.511   9.889   9.745  0.1375 -0.1401  0.0127
  511loPI   C3A 8169   0.608  10.032   9.350  0.0692  0.3560 -0.0342
  511loPI   C4A 8170   0.601  10.006   8.845 -0.3398  0.1944  0.1719
  511loPI   C5A 8171   0.744   9.806   8.601  0.0067 -0.3736  0.2628
  511loPI   C6A 8172   0.810   9.715   8.205 -0.0208  0.0467  0.1290
  511loPI   C1B 8173  -0.068   9.771  10.064  0.0457 -0.2019 -0.2892
  511loPI   C2B 8174  -0.096   9.720   9.718  0.2678 -0.1392  0.1475
  511loPI   C3B 8175   0.067   9.892   9.397  0.0545  0.1653 -0.2494
  511loPI   C4B 8176   0.090   9.998   8.908  0.0381 -0.0023  0.0544
  512loPI    C1 8177   4.368  17.903  10.605 -0.1078 -0.0568 -0.0257
  512loPI    C2 8178   4.209  18.157  10.871  0.2010  0.2673 -0.1430
  512loPI    C3 8179   4.411  17.835  10.997 -0.1176  0.1224  0.0074
  512loPI   PO4 8180   4.213  17.852  10.423 -0.1580 -0.0728  0.1192
  512loPI   GL1 8181   3.968  17.807  10.133  0.0159  0.0050 -0.2992
  512loPI   GL2 8182   3.714  17.927  10.124  0.2570  0.0859  0.1433
  512loPI   C1A 8183   3.981  17.909   9.717 -0.1319 -0.2183  0.3543
  512loPI   C2A 8184   3.849  17.899   9.225 -0.2078 -0.1394  0.0898
  512loPI   C3A 8185   3.895  17.841   8.783  0.3441 -0.3027 -0.1934
  512loPI   C4A 8186   4.037  17.771   8.396 -0.2210 -0.2665 -0.2844
  512loPI   C5A 8187   4.245  17.710   8.090  0.0821  0.2169 -0.0374
  512loPI   C6A 8188   4.273  17.376   7.789 -0.2159 -0.1108 -0.1034
  512loPI   C1B 8189   3.477  17.827   9.720 -0.2822  0.1121  0.0701
  512loPI   C2B 8190   3.402  17.713   9.218 -0.2288 -0.1883 -0.2606
  512loPI   C3B 8191   3.396  17.640   8.678  0.0849 -0.1509 -0.0362
  512loPI   C4B 8192   3.196  17.476   8.247  0.0857 -0.1683  0.1950
  513loPI    C1 8193   2.158   8.934  10.963 -0.2286 -0.0804 -0.2468
  513loPI    C2 8194   2.048   8.676  11.248 -0.0379 -0.0307 -0.1262
  513loPI    C3 8195   2.435   8.719  11.155 -0.1052 -0.1158 -0.4606
  513loPI   PO4 8196   1.919   9.085  10.955  0.0303 -0.1589 -0.0860
  513loPI   GL1 8197   1.630   9.129  10.656 -0.2266  0.1447 -0.0186
  513loPI   GL2 8198   1.626   9.376  10.592  0.1416 -0.1593  0.3539
  513loPI   C1A 8199   1.617   8.951  10.301  0.2277  0.4106  0.2393
  513loPI   C2A 8200   1.628   8.852   9.843 -0.0043  0.1459 -0.0391
  513loPI   C3A 8201   1.651   8.867   9.412  0.0905 -0.0373 -0.0334
  513loPI   C4A 8202   1.713   8.867   8.994  0.0390 -0.4123 -0.1628
  513loPI   C5A 8203   1.592   8.851   8.584 -0.0029  0.2727  0.1612
  513loPI   C6A 8204   1.605   9.161   8.205  0.1842  0.1228  0.3609
  513loPI   C1B 8205   1.842   9.354  10.135 -0.0590 -0.0872 -0.1046
  513loPI   C2B 8206   1.772   9.281   9.759  0.3456  0.1180  0.0773
  513loPI   C3B 8207   1.752   9.372   9.352 -0.2053  0.0525  0.1215
  513loPI   C4B 8208   1.767   9.397   8.863  0.2490  0.0547  0.0308
  514loPI    C1 8209   6.222  16.130  10.792  0.0602 -0.2080  0.2627
  514loPI    C2 8210   5.973  16.336  11.027  0.0594 -0.1021  0.1701
  514loPI    C3 8211   6.361  16.431  11.016 -0.0098  0.1606 -0.1740
  514loPI   PO4 8212   6.032  15.921  10.605  0.0376  0.2633 -0.0131
  514loPI   GL1 8213   6.037  15.925  10.187  0.1684 -0.2277  0.0834
  514loPI   GL2 8214   5.958  15.639   9.929 -0.0137 -0.0212 -0.0576
  514loPI   C1A 8215   6.312  15.887   9.742  0.2650  0.1710  0.1612
  514loPI   C2A 8216   6.249  15.696   9.353  0.2418  0.3471 -0.1164
  514loPI   C3A 8217   6.183  15.719   8.960  0.0844 -0.1387 -0.0536
  514loPI   C4A 8218   6.239  15.710   8.512 -0.1207  0.4980  0.0115
  514loPI   C5A 8219   6.032  15.504   8.298  0.2872 -0.1631 -0.0497
  514loPI   C6A 8220   6.025  15.141   8.021  0.0173 -0.4732 -0.0498
  514loPI   C1B 8221   5.704  15.476   9.551 -0.0215 -0.2381 -0.1461
  514loPI   C2B 8222   5.743  15.572   9.185 -0.0057  0.4807 -0.1828
  514loPI   C3B 8223   5.747  15.408   8.700  0.0077  0.3297 -0.0987
  514loPI   C4B 8224   5.577  15.512   8.255 -0.1515  0.0108 -0.0710
  515loPI    C1 8225   3.892  16.888  11.149  0.0893 -0.0342  0.0902
  515loPI    C2 8226   3.904  16.602  11.428  0.1573 -0.0196  0.1025
  515loPI    C3 8227   4.016  16.975  11.519  0.0614  0.0130  0.0886
  515loPI   PO4 8228   3.730  16.699  10.933 -0.0339 -0.1198 -0.0310
  515loPI   GL1 8229   3.715  16.659  10.450  0.0680 -0.0970 -0.0973
  515loPI   GL2 8230   3.400  16.772  10.511 -0.4257 -0.2262 -0.3159
  515loPI   C1A 8231   3.814  16.863  10.123 -0.2933  0.1894  0.1373
  515loPI   C2A 8232   3.661  16.911   9.695 -0.0905  0.1056 -0.0015
  515loPI   C3A 8233   3.680  16.861   9.251  0.0859  0.0351  0.3486
  515loPI   C4A 8234   3.704  16.834   8.778  0.0148  0.3293  0.0216
  515loPI   C5A 8235   3.895  16.851   8.282  0.0492 -0.1805 -0.0221
  515loPI   C6A 8236   4.224  17.124   8.218  0.0964 -0.1140 -0.3999
  515loPI   C1B 8237   3.259  16.860  10.140 -0.1227 -0.1004 -0.0262
  515loPI   C2B 8238   3.182  16.737   9.695  0.0127  0.2666 -0.3687
  515loPI   C3B 8239   3.167  16.687   9.297 -0.0294 -0.0661  0.1567
  515loPI   C4B 8240   3.193  16.734   8.926  0.0293 -0.0273 -0.2440
  516loPI    C1 8241   1.977   4.840  10.485  0.1068 -0.1133 -0.0262
  516loPI    C2 8242   2.133   4.671  10.813 -0.3309 -0.2934  0.0962
  516loPI    C3 8243   2.151   5.068  10.764 -0.2498 -0.2665  0.3320
  516loPI   PO4 8244   2.089   4.649  10.319 -0.1589 -0.0709 -0.2386
  516loPI   GL1 8245   2.332   4.757   9.975  0.1172  0.0713 -0.2733
  516loPI   GL2 8246   2.601   4.961   9.920  0.1628 -0.3553 -0.1281
  516loPI   C1A 8247   2.217   4.685   9.515 -0.0853  0.0702 -0.1169
  516loPI   C2A 8248   2.203   4.703   9.078  0.1117  0.0499  0.1463
  516loPI   C3A 8249   2.269   4.696   8.703 -0.1122 -0.2837  0.4400
  516loPI   C4A 8250   2.016   4.880   8.353 -0.0725  0.0204  0.0680
  516loPI   C5A 8251   1.910   5.060   8.043  0.2854  0.2299 -0.3410
  516loPI   C6A 8252   1.661   5.379   7.742  0.0638  0.0932 -0.2230
  516loPI   C1B 8253   2.447   5.174   9.609  0.1179 -0.4272 -0.1367
  516loPI   C2B 8254   2.288   5.186   9.155  0.3700  0.1265 -0.0620
  516loPI   C3B 8255   2.259   5.261   8.705 -0.1833 -0.1262 -0.3737
  516loPI   C4B 8256   2.052   5.368   8.362 -0.0239  0.0575  0.0309
  517loPI    C1 8257  17.619   6.415  10.968  0.0485 -0.2004 -0.0641
  517loPI    C2 8258  17.929   6.590  11.150  0.0897 -0.0680 -0.2594
  517loPI    C3 8259  17.891   6.192  11.160 -0.1200 -0.0432  0.3694
  517loPI   PO4 8260  17.568   6.506  10.788  0.1278 -0.0268 -0.0014
  517loPI   GL1 8261  17.696   6.494  10.348  0.0250 -0.0599 -0.0395
  517loPI   GL2 8262  17.444   6.782  10.359 -0.2377 -0.2557 -0.1686
  517loPI   C1A 8263  17.590   6.689   9.878 -0.1007 -0.1660 -0.0283
  517loPI   C2A 8264  17.577   6.614   9.499 -0.1760 -0.0888 -0.0398
  517loPI   C3A 8265  17.575   6.778   9.030 -0.2001  0.0851  0.0155
  517loPI   C4A 8266  17.559   6.844   8.623  0.4841  0.0731  0.3276
  517loPI   C5A 8267  17.567   7.166   8.359 -0.1534 -0.0211 -0.0810
  517loPI   C6A 8268  17.498   7.318   7.966 -0.1292  0.1939  0.2511
  517loPI   C1B 8269  17.611   7.139  10.081  0.4849  0.0899 -0.2356
  517loPI   C2B 8270  17.751   7.132   9.712  0.1528 -0.1450  0.3099
  517loPI   C3B 8271  17.686   7.189   9.252  0.0949  0.1765 -0.2974
  517loPI   C4B 8272  17.757   7.355   8.856 -0.0944 -0.0705 -0.1845
  518loPI    C1 8273   3.036  12.355  10.773  0.0755 -0.2257  0.1587
  518loPI    C2 8274   2.937  12.388  11.159 -0.0772  0.0415  0.0994
  518loPI    C3 8275   3.238  12.148  11.049  0.1050  0.1245  0.4054
  518loPI   PO4 8276   2.848  12.492  10.674 -0.0976  0.1949 -0.1505
  518loPI   GL1 8277   2.734  12.670  10.292 -0.1393 -0.5627  0.0188
  518loPI   GL2 8278   2.446  12.528  10.277  0.1713  0.1191 -0.0559
  518loPI   C1A 8279   2.909  12.640   9.995  0.2415 -0.1179 -0.0019
  518loPI   C2A 8280   2.958  12.672   9.501 -0.0366  0.0566  0.0287
  518loPI   C3A 8281   2.884  12.671   9.138  0.3066 -0.0327 -0.1571
  518loPI   C4A 8282   2.807  12.618   8.739 -0.4616  0.4178  0.0490
  518loPI   C5A 8283   2.775  12.741   8.336  0.1642  0.2749  0.1195
  518loPI   C6A 8284   2.671  13.004   7.954 -0.1792 -0.1646 -0.1194
  518loPI   C1B 8285   2.373  12.528   9.877  0.1816 -0.0313  0.0645
  518loPI   C2B 8286   2.391  12.555   9.441  0.1624  0.1035 -0.2151
  518loPI   C3B 8287   2.400  12.418   8.982  0.1327  0.0072  0.2534
  518loPI   C4B 8288   2.256  12.591   8.591  0.0725  0.0695  0.1022
  519loPI    C1 8289   9.919   4.407  10.427 -0.1577 -0.1502  0.0377
  519loPI    C2 8290  10.055   4.531  10.782  0.0706 -0.2211 -0.0233
  519loPI    C3 8291   9.970   4.798  10.496  0.2159 -0.1824 -0.0317
  519loPI   PO4 8292  10.024   4.199  10.335 -0.3547  0.2766 -0.0356
  519loPI   GL1 8293   9.934   4.052   9.922 -0.0865  0.2179 -0.0569
  519loPI   GL2 8294  10.029   3.771   9.829 -0.1895 -0.2218  0.3944
  519loPI   C1A 8295  10.181   4.257   9.504 -0.0150 -0.0524 -0.2247
  519loPI   C2A 8296  10.373   4.203   9.215  0.0161  0.0115  0.0862
  519loPI   C3A 8297  10.360   4.138   8.856  0.0903 -0.1109 -0.1998
  519loPI   C4A 8298  10.292   4.229   8.424  0.0075 -0.0355  0.1607
  519loPI   C5A 8299  10.039   4.076   8.021 -0.5453  0.0578  0.1186
  519loPI   C6A 8300  10.057   3.836   7.548  0.1067 -0.0398 -0.0957
  519loPI   C1B 8301  10.056   3.694   9.328 -0.0114 -0.1512 -0.0243
  519loPI   C2B 8302  10.039   3.701   8.927  0.0429 -0.0147 -0.0899
  519loPI   C3B 8303  10.245   3.773   8.487  0.0218  0.0477  0.2268
  519loPI   C4B 8304  10.654   3.886   8.466 -0.3029 -0.1070 -0.1613
  520loPI    C1 8305   7.956  15.145  10.864 -0.1312 -0.0837 -0.1366
  520loPI    C2 8306   7.676  15.426  10.911  0.1900  0.2542 -0.2023
  520loPI    C3 8307   7.675  15.102  11.146 -0.2021  0.2913 -0.1461
  520loPI   PO4 8308   8.007  14.987  10.576 -0.2573 -0.3661  0.1061
  520loPI   GL1 8309   8.003  15.228  10.211  0.2536  0.0587 -0.0214
  520loPI   GL2 8310   8.257  15.478  10.286  0.0576  0.2530  0.0382
  520loPI   C1A 8311   8.026  15.358   9.855  0.1772 -0.1136  0.1133
  520loPI   C2A 8312   8.013  15.353   9.538  0.1706  0.2581  0.0903
  520loPI   C3A 8313   8.132  15.154   9.103  0.1738  0.0445 -0.0510
  520loPI   C4A 8314   8.128  15.211   8.668 -0.1945 -0.0444  0.2292
  520loPI   C5A 8315   8.005  15.283   8.207  0.0021  0.1865 -0.2466
  520loPI   C6A 8316   7.597  15.215   8.051  0.1687  0.0758 -0.0248
  520loPI   C1B 8317   8.477  15.450  10.007  0.0415 -0.1714  0.0260
  520loPI   C2B 8318   8.514  15.428   9.662 -0.0015  0.0714  0.3318
  520loPI   C3B 8319   8.445  15.474   9.287 -0.1551  0.1048  0.0345
  520loPI   C4B 8320   8.685  15.355   8.931 -0.1304 -0.1511  0.1900
  521loPI    C1 8321   3.671   4.982  10.135  0.3059 -0.1819 -0.1152
  521loPI    C2 8322   3.392   4.923  10.415  0.1046  0.0276 -0.2679
  521loPI    C3 8323   3.715   5.142  10.499 -0.1435  0.4188 -0.3083
  521loPI   PO4 8324   3.516   5.004   9.893 -0.2276 -0.1366  0.1533
  521loPI   GL1 8325   3.433   4.758   9.594 -0.1689 -0.1627 -0.1932
  521loPI   GL2 8326   3.206   4.978   9.466 -0.1160 -0.0614  0.0665
  521loPI   C1A 8327   3.615   4.652   9.161 -0.0478 -0.2012  0.0756
  521loPI   C2A 8328   3.634   4.901   8.690  0.1346  0.1107  0.1712
  521loPI   C3A 8329   3.588   5.003   8.254  0.0456  0.1555  0.1499
  521loPI   C4A 8330   3.678   4.986   7.808 -0.0735  0.0467 -0.1288
  521loPI   C5A 8331   3.471   5.206   7.532 -0.1429 -0.0421  0.3240
  521loPI   C6A 8332   3.507   5.528   7.290 -0.0489  0.0021  0.1659
  521loPI   C1B 8333   2.970   5.267   9.164  0.0633  0.0300 -0.0150
  521loPI   C2B 8334   2.679   5.433   8.813  0.0732 -0.2710  0.0907
  521loPI   C3B 8335   2.722   5.597   8.406  0.1029  0.1689 -0.1751
  521loPI   C4B 8336   2.777   5.522   7.897  0.6874 -0.2038 -0.0514
  522loPI    C1 8337  14.256   9.420  10.889  0.1374 -0.1610 -0.0139
  522loPI    C2 8338  14.156   9.569  11.247 -0.1366  0.0998 -0.1948
  522loPI    C3 8339  14.540   9.499  11.159 -0.0577  0.1403  0.1082
  522loPI   PO4 8340  14.178   9.570  10.687  0.2538 -0.1701 -0.2571
  522loPI   GL1 8341  14.310   9.723  10.425  0.1452 -0.2888  0.0542
  522loPI   GL2 8342  14.441  10.033  10.321 -0.2162  0.1323  0.1694
  522loPI   C1A 8343  14.313   9.636   9.944 -0.2679  0.1001 -0.0008
  522loPI   C2A 8344  14.499   9.625   9.563  0.3170  0.0070  0.1196
  522loPI   C3A 8345  14.549   9.662   9.150  0.0755 -0.1091  0.0640
  522loPI   C4A 8346  14.712   9.632   8.710  0.0052 -0.2628  0.1311
  522loPI   C5A 8347  14.681   9.299   8.451 -0.1654  0.1927 -0.1574
  522loPI   C6A 8348  14.477   9.229   8.005  0.2762 -0.2142  0.1104
  522loPI   C1B 8349  14.567  10.099   9.925  0.0581 -0.1012  0.0242
  522loPI   C2B 8350  14.604  10.093   9.426 -0.1669  0.1793  0.0887
  522loPI   C3B 8351  14.658  10.154   8.980  0.0171 -0.0850 -0.1759
  522loPI   C4B 8352  14.887  10.148   8.570 -0.2104 -0.1268 -0.0870
  523loPI    C1 8353  10.066   7.000  10.209  0.0493 -0.2055 -0.1159
  523loPI    C2 8354   9.712   6.861  10.085 -0.1185 -0.0592  0.1861
  523loPI    C3 8355   9.850   6.761  10.447  0.1342 -0.0865  0.0839
  523loPI   PO4 8356  10.046   7.323  10.175  0.1240 -0.3091 -0.0784
  523loPI   GL1 8357   9.870   7.389   9.736 -0.2845 -0.0949 -0.1501
  523loPI   GL2 8358   9.992   7.118   9.713 -0.0474  0.2225 -0.0959
  523loPI   C1A 8359   9.602   7.331   9.346 -0.0604  0.0626  0.1375
  523loPI   C2A 8360   9.645   7.259   8.935 -0.0367 -0.1624 -0.1824
  523loPI   C3A 8361   9.704   7.343   8.444 -0.0139  0.2188  0.3742
  523loPI   C4A 8362   9.483   7.381   8.084 -0.0715  0.0804  0.0652
  523loPI   C5A 8363   8.965   7.305   7.904  0.0772 -0.2855  0.0786
  523loPI   C6A 8364   8.887   6.839   7.941  0.1929 -0.0570  0.3655
  523loPI   C1B 8365   9.728   6.895   9.524 -0.1125 -0.0186 -0.0173
  523loPI   C2B 8366   9.621   6.850   9.133  0.1430  0.1348 -0.3209
  523loPI   C3B 8367   9.423   6.889   8.708 -0.1897  0.2823  0.3396
  523loPI   C4B 8368   9.166   6.906   8.305 -0.1202  0.0173 -0.0038
  524loPI    C1 8369   0.252   0.599  10.622 -0.2220 -0.0249 -0.0499
  524loPI    C2 8370  -0.049   0.617  10.885  0.0345  0.0922  0.2422
  524loPI    C3 8371   0.238   0.342  10.928  0.0078  0.0241  0.0034
  524loPI   PO4 8372   0.176   0.603  10.407  0.1382  0.1053 -0.2618
  524loPI   GL1 8373  -0.190   0.781  10.188  0.3181 -0.1669  0.3849
  524loPI   GL2 8374  -0.460   0.970  10.158  0.1968 -0.1201  0.1576
  524loPI   C1A 8375  -0.032   0.710   9.776 -0.0891  0.2158 -0.0303
  524loPI   C2A 8376  -0.047   0.707   9.346  0.0748 -0.0089 -0.0206
  524loPI   C3A 8377  -0.095   0.831   8.875  0.1359  0.1099 -0.3150
  524loPI   C4A 8378  -0.098   0.585   8.474 -0.0335 -0.1669 -0.0737
  524loPI   C5A 8379   0.028   0.484   8.079 -0.3625 -0.2511 -0.2903
  524loPI   C6A 8380   0.472   0.488   7.962 -0.2253  0.2146  0.0695
  524loPI   C1B 8381  -0.375   1.036   9.804 -0.2233  0.1674 -0.2821
  524loPI   C2B 8382  -0.417   1.083   9.402 -0.2405  0.3238  0.0659
  524loPI   C3B 8383  -0.456   1.171   8.977 -0.3886 -0.1980  0.0271
  524loPI   C4B 8384  -0.495   1.126   8.555  0.1145 -0.1581 -0.0562
  525loPI    C1 8385   2.261  14.291  11.212 -0.1482  0.2228 -0.2276
  525loPI    C2 8386   2.620  14.119  11.256 -0.2978 -0.0192  0.0887
  525loPI    C3 8387   2.517  14.430  11.486 -0.3070  0.0236  0.0269
  525loPI   PO4 8388   2.272  14.292  10.898 -0.1880 -0.1806 -0.4443
  525loPI   GL1 8389   2.260  14.534  10.622  0.1407 -0.0533 -0.0791
  525loPI   GL2 8390   2.229  14.144  10.402  0.4121 -0.0862  0.0493
  525loPI   C1A 8391   2.239  14.543  10.102 -0.0846 -0.0398  0.3655
  525loPI   C2A 8392   2.297  14.492   9.610  0.0326  0.2519 -0.0225
  525loPI   C3A 8393   2.309  14.505   9.275 -0.1933 -0.2708 -0.3052
  525loPI   C4A 8394   2.348  14.482   8.899 -0.1005  0.0179 -0.1263
  525loPI   C5A 8395   2.270  14.437   8.540 -0.2292 -0.1464  0.0885
  525loPI   C6A 8396   2.374  14.169   8.131  0.1364 -0.0784  0.2697
  525loPI   C1B 8397   2.130  13.837  10.125  0.0315  0.2951 -0.1470
  525loPI   C2B 8398   2.143  13.909   9.648  0.2335 -0.0647 -0.0473
  525loPI   C3B 8399   2.119  14.001   9.229  0.1289 -0.1979  0.0008
  525loPI   C4B 8400   2.271  13.921   8.700 -0.1024  0.2434  0.2506
  526loPI    C1 8401   9.883  14.727  11.019 -0.0157  0.0192  0.2293
  526loPI    C2 8402  10.246  14.652  10.867 -0.1644 -0.0387 -0.1080
  526loPI    C3 8403  10.204  14.914  11.167  0.1701 -0.1322  0.0249
  526loPI   PO4 8404   9.726  14.629  10.786  0.1897 -0.0260 -0.0255
  526loPI   GL1 8405   9.611  14.612  10.318  0.1381 -0.0527 -0.2331
  526loPI   GL2 8406   9.379  14.607  10.060  0.0967 -0.2170 -0.2725
  526loPI   C1A 8407   9.876  14.784   9.940  0.0248  0.0511  0.0575
  526loPI   C2A 8408   9.813  14.859   9.443 -0.1593 -0.0885 -0.0004
  526loPI   C3A 8409   9.910  14.939   8.948  0.0386 -0.0957  0.0850
  526loPI   C4A 8410   9.853  14.803   8.549  0.0956 -0.0860  0.2200
  526loPI   C5A 8411   9.943  14.870   8.116 -0.0711  0.0673  0.1799
  526loPI   C6A 8412   9.637  14.729   7.802 -0.0163 -0.1252 -0.1396
  526loPI   C1B 8413   9.365  14.624   9.598  0.3914  0.2443 -0.1791
  526loPI   C2B 8414   9.380  14.699   9.177 -0.2388  0.0804 -0.0551
  526loPI   C3B 8415   9.395  14.648   8.690 -0.0540  0.1490  0.0056
  526loPI   C4B 8416   9.482  14.562   8.267 -0.0531  0.1111 -0.2216
  527loPI    C1 8417   8.183   7.151  10.107  0.1155  0.0630 -0.1615
  527loPI    C2 8418   7.798   7.079  10.025 -0.0069  0.3445  0.1429
  527loPI    C3 8419   7.970   6.907  10.342  0.0634  0.3731  0.1205
  527loPI   PO4 8420   8.134   7.443  10.093 -0.0124  0.2220  0.1203
  527loPI   GL1 8421   8.224   7.725   9.753 -0.0274 -0.1470 -0.0480
  527loPI   GL2 8422   7.863   7.544   9.639 -0.1006  0.0956  0.0892
  527loPI   C1A 8423   8.079   8.023   9.388  0.3186  0.0940 -0.0113
  527loPI   C2A 8424   8.123   8.420   9.069 -0.2441 -0.0275 -0.0918
  527loPI   C3A 8425   8.292   8.466   8.678 -0.0649  0.1793 -0.0944
  527loPI   C4A 8426   8.151   8.458   8.243 -0.1314 -0.1990  0.0908
  527loPI   C5A 8427   8.057   8.169   7.817 -0.0917 -0.2147 -0.0351
  527loPI   C6A 8428   7.768   7.865   7.764 -0.0776  0.1221 -0.2169
  527loPI   C1B 8429   7.614   7.887   9.506  0.1626  0.0152  0.0920
  527loPI   C2B 8430   7.303   7.935   9.189  0.2923 -0.2087 -0.0426
  527loPI   C3B 8431   7.328   7.934   8.747  0.3533 -0.1446 -0.2860
  527loPI   C4B 8432   7.213   8.172   8.411  0.0356 -0.0184 -0.1986
  528loPI    C1 8433  12.635  12.305  10.869  0.0181 -0.1507 -0.1062
  528loPI    C2 8434  12.778  12.668  10.955 -0.0674 -0.1629  0.0928
  528loPI    C3 8435  12.407  12.568  11.065 -0.1586 -0.2021 -0.2407
  528loPI   PO4 8436  12.636  12.262  10.622 -0.0897  0.1400 -0.0204
  528loPI   GL1 8437  12.887  12.141  10.273 -0.0239 -0.1523 -0.2578
  528loPI   GL2 8438  12.708  12.228  10.015  0.1831  0.1169  0.4393
  528loPI   C1A 8439  13.199  12.407   9.906  0.2908  0.1242 -0.2666
  528loPI   C2A 8440  13.165  12.414   9.446 -0.3672 -0.0248 -0.0163
  528loPI   C3A 8441  13.135  12.436   8.977  0.1398  0.0726  0.3169
  528loPI   C4A 8442  13.300  12.644   8.573  0.3767 -0.2511  0.1581
  528loPI   C5A 8443  13.053  13.029   8.489  0.0560  0.1319 -0.2317
  528loPI   C6A 8444  12.896  13.321   8.166  0.0870 -0.2295  0.0481
  528loPI   C1B 8445  12.641  12.115   9.555 -0.0608 -0.0317  0.1649
  528loPI   C2B 8446  12.696  12.222   9.127  0.0374 -0.1778  0.3729
  528loPI   C3B 8447  12.644  12.261   8.656  0.1022  0.0534  0.1137
  528loPI   C4B 8448  12.847  12.564   8.324  0.2505 -0.0954  0.1762
  529loPI    C1 8449  14.195  16.219  10.941  0.0145 -0.0278 -0.0410
  529loPI    C2 8450  14.307  15.873  11.108 -0.1464 -0.1498 -0.1820
  529loPI    C3 8451  14.313  16.210  11.323  0.0025 -0.2406 -0.0409
  529loPI   PO4 8452  14.265  16.209  10.721 -0.0208 -0.2452  0.0510
  529loPI   GL1 8453  14.305  16.433  10.287  0.3990 -0.0264 -0.1690
  529loPI   GL2 8454  14.508  16.730  10.193  0.0804 -0.0188 -0.0242
  529loPI   C1A 8455  14.284  16.203   9.878 -0.0436  0.1601  0.0112
  529loPI   C2A 8456  14.319  16.192   9.515 -0.4804  0.1652 -0.1436
  529loPI   C3A 8457  14.384  16.212   9.067  0.2791  0.1627 -0.4365
  529loPI   C4A 8458  14.427  16.259   8.665 -0.0180  0.3474  0.2225
  529loPI   C5A 8459  14.572  16.343   8.291 -0.3393 -0.0837 -0.1434
  529loPI   C6A 8460  14.857  16.254   8.092 -0.1547  0.0068 -0.0729
  529loPI   C1B 8461  14.458  16.679   9.722 -0.0671  0.1456  0.1482
  529loPI   C2B 8462  14.477  16.626   9.279  0.1396  0.0404 -0.3333
  529loPI   C3B 8463  14.549  16.683   8.970  0.0859 -0.2543  0.1315
  529loPI   C4B 8464  14.588  16.770   8.517  0.0509  0.0123 -0.1206
  530loPI    C1 8465  12.540  13.167  10.530  0.1235  0.0032 -0.0446
  530loPI    C2 8466  12.393  13.010  10.867  0.2444  0.1491  0.0776
  530loPI    C3 8467  12.170  13.261  10.650  0.1577  0.0364  0.0354
  530loPI   PO4 8468  12.799  12.945  10.537  0.3157 -0.0280 -0.2314
  530loPI   GL1 8469  12.770  12.681  10.192 -0.1057  0.1868 -0.0250
  530loPI   GL2 8470  12.591  12.983  10.084 -0.2297 -0.0266  0.0239
  530loPI   C1A 8471  12.812  12.657   9.751 -0.1753 -0.1794 -0.0518
  530loPI   C2A 8472  12.770  12.776   9.287 -0.1993  0.0674  0.1199
  530loPI   C3A 8473  12.816  12.813   8.877  0.1015  0.0200 -0.1259
  530loPI   C4A 8474  12.572  12.947   8.436 -0.1595 -0.1368  0.0582
  530loPI   C5A 8475  12.541  12.908   8.019  0.0801 -0.1083 -0.0149
  530loPI   C6A 8476  12.242  12.718   7.766 -0.0144 -0.0742 -0.1020
  530loPI   C1B 8477  12.439  12.986   9.702 -0.3119 -0.1848 -0.1559
  530loPI   C2B 8478  12.439  13.178   9.294  0.1143  0.0798 -0.1187
  530loPI   C3B 8479  12.428  13.166   8.902  0.0069 -0.1096  0.2906
  530loPI   C4B 8480  12.302  13.370   8.624 -0.1810 -0.1147  0.3476
  531loPI    C1 8481   8.253   4.943  10.459  0.1954 -0.1848 -0.0684
  531loPI    C2 8482   8.400   5.182  10.743 -0.2454 -0.1062  0.1013
  531loPI    C3 8483   8.450   4.786  10.769 -0.0678 -0.0808  0.1557
  531loPI   PO4 8484   8.372   5.006  10.236  0.3454 -0.1463 -0.1156
  531loPI   GL1 8485   8.223   4.967   9.866 -0.2341  0.2119  0.0621
  531loPI   GL2 8486   8.418   4.894   9.603  0.1330  0.1169 -0.0192
  531loPI   C1A 8487   7.981   4.591   9.819  0.0922 -0.1639  0.0183
  531loPI   C2A 8488   8.120   4.219   9.608 -0.0928 -0.1428  0.1528
  531loPI   C3A 8489   8.039   4.130   9.237 -0.0629 -0.1707 -0.1351
  531loPI   C4A 8490   7.986   4.011   8.824  0.0416  0.0351 -0.0044
  531loPI   C5A 8491   7.815   4.105   8.538 -0.0934  0.3177 -0.1034
  531loPI   C6A 8492   7.606   4.131   8.228 -0.1028  0.2659  0.0080
  531loPI   C1B 8493   8.413   4.588   9.405 -0.0673  0.1320  0.1130
  531loPI   C2B 8494   8.346   4.545   8.994 -0.0047 -0.1073  0.3820
  531loPI   C3B 8495   8.235   4.444   8.616  0.1273 -0.0755 -0.2438
  531loPI   C4B 8496   8.189   4.406   8.171  0.2029 -0.2108  0.1789
  532loPI    C1 8497  10.559  17.328  10.730  0.2953  0.0557  0.1862
  532loPI    C2 8498  10.340  17.511  11.010 -0.0305 -0.0727  0.0200
  532loPI    C3 8499  10.287  17.121  10.937 -0.0470 -0.0104 -0.3136
  532loPI   PO4 8500  10.561  17.516  10.545 -0.3702  0.1010  0.0821
  532loPI   GL1 8501  10.383  17.706  10.169  0.1991 -0.0951  0.0653
  532loPI   GL2 8502  10.048  17.783  10.066 -0.1462  0.2552 -0.3338
  532loPI   C1A 8503  10.331  17.323   9.872  0.0755  0.3266  0.2360
  532loPI   C2A 8504  10.326  17.337   9.402 -0.1912  0.0401 -0.1640
  532loPI   C3A 8505  10.469  17.368   8.948  0.0833 -0.1847 -0.1515
  532loPI   C4A 8506  10.582  17.296   8.504  0.1742 -0.0233  0.2840
  532loPI   C5A 8507  10.558  17.425   8.129  0.0430 -0.1119 -0.0274
  532loPI   C6A 8508  10.685  17.385   7.706  0.0763 -0.2397  0.3679
  532loPI   C1B 8509  10.045  17.765   9.650  0.0311 -0.0212 -0.2902
  532loPI   C2B 8510  10.014  17.717   9.240  0.1844  0.1973 -0.1985
  532loPI   C3B 8511  10.081  17.746   8.850 -0.1689  0.1677  0.0909
  532loPI   C4B 8512  10.121  17.655   8.389 -0.1389 -0.0223 -0.0187
  533loPI    C1 8513  17.041  16.077  10.598 -0.2623  0.1078  0.0507
  533loPI    C2 8514  17.273  16.193  10.903 -0.1578 -0.0620  0.0365
  533loPI    C3 8515  16.878  16.161  10.953 -0.1774  0.2075  0.0668
  533loPI   PO4 8516  17.175  16.107  10.410 -0.1550 -0.2274 -0.0147
  533loPI   GL1 8517  17.486  16.178  10.121  0.0793  0.0016  0.0636
  533loPI   GL2 8518  17.232  16.212   9.948 -0.1288  0.0593 -0.2983
  533loPI   C1A 8519  17.676  16.421   9.856  0.1515  0.0395 -0.3201
  533loPI   C2A 8520  17.687  16.244   9.500 -0.1310 -0.1949 -0.1945
  533loPI   C3A 8521  17.737  16.283   9.104 -0.0379  0.2030 -0.1042
  533loPI   C4A 8522  17.656  16.338   8.698 -0.1275  0.2625 -0.0893
  533loPI   C5A 8523  17.938  16.428   8.369 -0.0618 -0.2298 -0.0431
  533loPI   C6A 8524  17.981  16.321   8.001  0.0439 -0.1066  0.0154
  533loPI   C1B 8525  17.167  16.092   9.582  0.1039  0.0948 -0.0488
  533loPI   C2B 8526  17.186  16.104   9.165 -0.2070  0.0959 -0.2371
  533loPI   C3B 8527  17.090  16.097   8.761 -0.0491  0.0037 -0.0213
  533loPI   C4B 8528  17.196  16.309   8.457  0.2514 -0.0413 -0.0607
  534loPI    C1 8529  14.431   5.598  10.378  0.2009 -0.1790 -0.1692
  534loPI    C2 8530  14.164   5.301  10.367 -0.0131  0.0063 -0.0604
  534loPI    C3 8531  14.166   5.558  10.674  0.2320  0.0619 -0.1062
  534loPI   PO4 8532  14.428   5.706  10.040  0.1564 -0.3803  0.2305
  534loPI   GL1 8533  14.408   5.829   9.660  0.0401  0.2667 -0.1514
  534loPI   GL2 8534  14.794   5.933   9.718 -0.1687 -0.1068 -0.0830
  534loPI   C1A 8535  14.640   5.835   9.299 -0.1642  0.2700 -0.0860
  534loPI   C2A 8536  14.586   5.736   8.836 -0.0481  0.1602 -0.1657
  534loPI   C3A 8537  14.668   5.901   8.485  0.0533 -0.3916 -0.0569
  534loPI   C4A 8538  14.782   6.035   7.998 -0.0314  0.1442 -0.0188
  534loPI   C5A 8539  15.030   6.009   7.586  0.2247 -0.1280  0.0792
  534loPI   C6A 8540  15.495   5.805   7.427 -0.0497 -0.0303  0.2422
  534loPI   C1B 8541  15.126   6.004   9.368  0.2299  0.2990 -0.0812
  534loPI   C2B 8542  15.122   6.011   8.980  0.0318  0.0380 -0.0231
  534loPI   C3B 8543  15.109   6.058   8.532 -0.1662 -0.0061 -0.4122
  534loPI   C4B 8544  15.264   6.144   8.075  0.0641 -0.2049  0.0881
  535loPI    C1 8545  14.547  10.269  11.271 -0.2696 -0.0452  0.1116
  535loPI    C2 8546  14.220  10.299  11.499 -0.1941 -0.1242  0.2318
  535loPI    C3 8547  14.395   9.943  11.447 -0.0736 -0.0675  0.2441
  535loPI   PO4 8548  14.449  10.432  11.070  0.3553  0.3731  0.1855
  535loPI   GL1 8549  14.241  10.442  10.623 -0.0790 -0.0139  0.1111
  535loPI   GL2 8550  14.045  10.333  10.488 -0.2624  0.0691 -0.1581
  535loPI   C1A 8551  14.539  10.491  10.176 -0.0129  0.1407 -0.0810
  535loPI   C2A 8552  14.655  10.545   9.711 -0.0744 -0.1483  0.3092
  535loPI   C3A 8553  14.858  10.637   9.308  0.1442 -0.2827 -0.0394
  535loPI   C4A 8554  14.760  10.629   8.888 -0.0224  0.2687 -0.0164
  535loPI   C5A 8555  14.755  10.634   8.476 -0.0146 -0.0634 -0.1565
  535loPI   C6A 8556  14.727  10.641   8.010 -0.1607  0.0906 -0.5897
  535loPI   C1B 8557  14.088  10.353  10.025 -0.1264 -0.0396 -0.0117
  535loPI   C2B 8558  14.198  10.403   9.616  0.1631  0.0447 -0.0281
  535loPI   C3B 8559  14.281  10.413   9.174  0.1792  0.1909 -0.2216
  535loPI   C4B 8560  14.291  10.473   8.746 -0.1213 -0.1014  0.2191
  536loPI    C1 8561  16.419  11.387  11.368 -0.0575 -0.0585  0.0416
  536loPI    C2 8562  16.390  11.720  11.588  0.0532 -0.0809  0.0907
  536loPI    C3 8563  16.516  11.380  11.756  0.1245 -0.1016 -0.0037
  536loPI   PO4 8564  16.554  11.389  11.195 -0.2809 -0.0343  0.1277
  536loPI   GL1 8565  16.762  11.572  10.816 -0.1569  0.0709  0.0440
  536loPI   GL2 8566  16.728  11.285  10.694  0.1392  0.3264  0.3570
  536loPI   C1A 8567  16.785  11.820  10.476  0.4009  0.1058  0.0801
  536loPI   C2A 8568  16.774  11.738  10.060 -0.3628 -0.1287 -0.0501
  536loPI   C3A 8569  16.893  11.809   9.624 -0.0062  0.0857  0.1028
  536loPI   C4A 8570  16.887  11.777   9.157  0.1288 -0.0660  0.1398
  536loPI   C5A 8571  16.707  11.791   8.805  0.1524  0.1955  0.0157
  536loPI   C6A 8572  16.564  11.296   8.571  0.0324  0.0938  0.0524
  536loPI   C1B 8573  16.681  11.302  10.333 -0.0142 -0.2633  0.3285
  536loPI   C2B 8574  16.705  11.265   9.912  0.1294  0.0041  0.2345
  536loPI   C3B 8575  16.689  11.160   9.501  0.0105  0.0451  0.0311
  536loPI   C4B 8576  16.648  11.313   9.078  0.2139 -0.2085  0.0693
  537loPI    C1 8577   5.154   2.566  10.812 -0.0083  0.0397 -0.2241
  537loPI    C2 8578   4.901   2.764  11.050  0.0034 -0.0609 -0.1275
  537loPI    C3 8579   5.284   2.876  11.029 -0.0514  0.1020 -0.2864
  537loPI   PO4 8580   5.037   2.594  10.559  0.2119  0.1528  0.0279
  537loPI   GL1 8581   5.089   2.583  10.099 -0.1461 -0.0872 -0.2207
  537loPI   GL2 8582   4.975   2.942  10.067 -0.3029  0.1327 -0.2087
  537loPI   C1A 8583   5.419   2.553   9.726 -0.1949  0.0246 -0.0257
  537loPI   C2A 8584   5.380   2.639   9.280 -0.2840  0.3578  0.0724
  537loPI   C3A 8585   5.382   2.659   8.866  0.1191 -0.2041 -0.1007
  537loPI   C4A 8586   5.259   2.628   8.473  0.1268  0.3424  0.0764
  537loPI   C5A 8587   5.060   2.980   8.196 -0.0760  0.0955  0.0354
  537loPI   C6A 8588   4.687   3.211   8.089 -0.2128  0.1837 -0.1708
  537loPI   C1B 8589   4.728   2.851   9.748  0.1108  0.1843  0.1748
  537loPI   C2B 8590   4.724   2.926   9.390 -0.2484  0.0372  0.3716
  537loPI   C3B 8591   4.673   2.840   8.915  0.0420  0.4568  0.0429
  537loPI   C4B 8592   4.755   2.915   8.549 -0.2388 -0.1463 -0.1040
  538loPI    C1 8593   6.297   1.404  10.462 -0.4101  0.2004 -0.1088
  538loPI    C2 8594   6.158   1.131  10.719 -0.0851  0.0837 -0.0529
  538loPI    C3 8595   6.192   1.513  10.832  0.0442  0.0350  0.0753
  538loPI   PO4 8596   6.372   1.289  10.266  0.2438 -0.2827  0.3132
  538loPI   GL1 8597   6.717   1.073  10.091  0.2639 -0.3049 -0.0955
  538loPI   GL2 8598   6.945   1.258   9.900  0.0632 -0.0145 -0.0653
  538loPI   C1A 8599   6.556   1.035   9.652  0.0905  0.2720 -0.2622
  538loPI   C2A 8600   6.609   0.913   9.212 -0.1233 -0.0425 -0.2771
  538loPI   C3A 8601   6.666   0.835   8.769  0.2881 -0.2344 -0.2935
  538loPI   C4A 8602   6.733   0.811   8.300 -0.2837  0.0712 -0.0022
  538loPI   C5A 8603   6.583   0.846   7.807 -0.1598  0.2932 -0.1782
  538loPI   C6A 8604   6.455   0.486   7.519  0.2704  0.3131 -0.2346
  538loPI   C1B 8605   7.062   0.996   9.590 -0.3241 -0.1151 -0.3166
  538loPI   C2B 8606   7.048   0.642   9.313 -0.3439  0.0447 -0.4813
  538loPI   C3B 8607   6.707   0.395   9.123  0.4147  0.0985 -0.0806
  538loPI   C4B 8608   6.398   0.453   8.813 -0.0309 -0.1048 -0.0539
  539loPI    C1 8609   3.732  13.292  11.003 -0.0837 -0.0952  0.1145
  539loPI    C2 8610   3.805  12.905  11.071  0.0946 -0.0719  0.0608
  539loPI    C3 8611   3.965  13.183  11.310 -0.1158 -0.0347  0.1605
  539loPI   PO4 8612   3.796  13.424  10.724 -0.1957 -0.1187  0.0890
  539loPI   GL1 8613   3.841  13.521  10.244 -0.2283 -0.0199  0.0513
  539loPI   GL2 8614   3.949  13.191  10.237  0.0829  0.2032  0.0963
  539loPI   C1A 8615   3.984  13.543   9.831  0.0932 -0.1409  0.4076
  539loPI   C2A 8616   3.938  13.531   9.370  0.0708  0.1434 -0.0801
  539loPI   C3A 8617   3.961  13.538   8.970  0.1012 -0.2815  0.0170
  539loPI   C4A 8618   3.959  13.587   8.519 -0.2921  0.0280 -0.3871
  539loPI   C5A 8619   3.780  13.453   8.180  0.1765 -0.0999 -0.0582
  539loPI   C6A 8620   3.530  13.046   8.227  0.0768  0.0897 -0.2488
  539loPI   C1B 8621   3.881  12.983   9.746  0.1171  0.1277  0.0855
  539loPI   C2B 8622   3.785  12.929   9.343 -0.3011  0.1125  0.1865
  539loPI   C3B 8623   3.801  13.040   8.943  0.1472  0.0241 -0.1079
  539loPI   C4B 8624   3.876  12.937   8.516  0.0879 -0.0401 -0.2525
  540loPI    C1 8625  16.335   1.598  10.708 -0.0687 -0.3490  0.0593
  540loPI    C2 8626  16.572   1.713  11.009  0.0710 -0.2167 -0.0990
  540loPI    C3 8627  16.526   1.324  10.928  0.0523 -0.2520  0.0763
  540loPI   PO4 8628  16.431   1.670  10.507 -0.3756 -0.0430  0.2724
  540loPI   GL1 8629  16.296   1.575  10.150  0.1968 -0.0542  0.0580
  540loPI   GL2 8630  16.061   1.860  10.021  0.0652 -0.1326  0.0545
  540loPI   C1A 8631  16.442   1.607   9.727  0.2261  0.2517 -0.2880
  540loPI   C2A 8632  16.515   1.630   9.328 -0.1736 -0.1702 -0.2800
  540loPI   C3A 8633  16.525   1.768   8.867  0.1584 -0.0301  0.0692
  540loPI   C4A 8634  16.454   1.673   8.438  0.0251  0.0799  0.1746
  540loPI   C5A 8635  16.429   1.472   8.019 -0.0579 -0.2737  0.0199
  540loPI   C6A 8636  16.547   1.389   7.580  0.1869 -0.0854  0.2811
  540loPI   C1B 8637  16.068   1.933   9.498  0.0844 -0.0764  0.3793
  540loPI   C2B 8638  16.093   1.980   9.054 -0.0811 -0.0521  0.3098
  540loPI   C3B 8639  16.157   2.091   8.608 -0.0690 -0.2090  0.0086
  540loPI   C4B 8640  16.025   1.954   8.174  0.0149  0.1953  0.3341
  541loPI    C1 8641  15.426   1.702  10.620  0.0032  0.0702  0.0578
  541loPI    C2 8642  15.156   1.926  10.812  0.0592 -0.0147  0.2369
  541loPI    C3 8643  15.498   1.825  10.993  0.0967 -0.1259  0.1055
  541loPI   PO4 8644  15.467   1.853  10.363 -0.0000  0.4453 -0.0430
  541loPI   GL1 8645  15.342   2.045   9.954  0.0380 -0.2902 -0.0693
  541loPI   GL2 8646  15.549   1.784   9.882 -0.1739 -0.1667 -0.1741
  541loPI   C1A 8647  15.167   2.012   9.564  0.0265  0.0138 -0.1789
  541loPI   C2A 8648  15.150   2.074   9.111  0.0523 -0.2611  0.0935
  541loPI   C3A 8649  15.226   2.152   8.701  0.3825 -0.1758 -0.2545
  541loPI   C4A 8650  15.244   2.135   8.246  0.3163 -0.2393  0.2329
  541loPI   C5A 8651  15.563   2.249   7.950  0.0784 -0.1552 -0.1091
  541loPI   C6A 8652  15.931   2.373   7.885  0.2726 -0.2477 -0.0230
  541loPI   C1B 8653  15.599   1.716   9.433 -0.1197 -0.2262  0.1282
  541loPI   C2B 8654  15.642   1.771   8.977 -0.2144 -0.2710  0.0546
  541loPI   C3B 8655  15.674   1.859   8.587  0.5047  0.1960  0.0681
  541loPI   C4B 8656  15.547   1.700   8.216 -0.3460  0.1794 -0.1607
  542loPI    C1 8657   7.978  16.336  10.978  0.1645  0.0187  0.1440
  542loPI    C2 8658   7.690  16.062  11.023 -0.0886  0.2287 -0.1599
  542loPI    C3 8659   7.683  16.398  11.241 -0.1257  0.2741 -0.2305
  542loPI   PO4 8660   7.992  16.358  10.666 -0.1451 -0.1690  0.3311
  542loPI   GL1 8661   7.969  16.559  10.278  0.4246 -0.5624 -0.1891
  542loPI   GL2 8662   8.279  16.665  10.223  0.2457 -0.0874 -0.0732
  542loPI   C1A 8663   7.698  16.307   9.976  0.2269 -0.0503  0.0033
  542loPI   C2A 8664   7.767  16.188   9.559  0.2479  0.1569 -0.0666
  542loPI   C3A 8665   7.832  16.150   9.138  0.1451 -0.1809 -0.0391
  542loPI   C4A 8666   7.820  16.149   8.766 -0.0883  0.2176  0.2968
  542loPI   C5A 8667   7.845  16.109   8.363 -0.2817 -0.0331 -0.3441
  542loPI   C6A 8668   7.850  16.051   7.890 -0.0299  0.1205  0.0728
  542loPI   C1B 8669   8.513  16.874   9.780 -0.3199 -0.0254 -0.2260
  542loPI   C2B 8670   8.472  16.876   9.338  0.2721  0.0802 -0.0052
  542loPI   C3B 8671   8.492  16.759   8.907 -0.1122  0.0638 -0.1304
  542loPI   C4B 8672   8.480  16.564   8.500 -0.1863 -0.2824 -0.2527
  543loPI    C1 8673   3.328  12.667  11.098  0.1684  0.1093  0.0384
  543loPI    C2 8674   3.016  12.913  11.053  0.1770  0.1165  0.0180
  543loPI    C3 8675   3.324  13.021  11.284  0.0349 -0.0129  0.2722
  543loPI   PO4 8676   3.438  12.640  10.839  0.1250  0.2877 -0.0783
  543loPI   GL1 8677   3.267  12.497  10.334  0.1518  0.0622 -0.0207
  543loPI   GL2 8678   3.195  12.736  10.403  0.4335  0.0258  0.0954
  543loPI   C1A 8679   3.256  12.257   9.956 -0.1514 -0.0694 -0.0279
  543loPI   C2A 8680   3.290  12.218   9.607  0.0881  0.2243 -0.1484
  543loPI   C3A 8681   3.305  12.270   9.300 -0.0310  0.1196  0.0549
  543loPI   C4A 8682   3.243  12.261   8.902  0.2561  0.1355 -0.1189
  543loPI   C5A 8683   3.275  12.522   8.404 -0.1028  0.1037  0.0132
  543loPI   C6A 8684   3.218  12.734   8.030  0.0540  0.0983  0.0997
  543loPI   C1B 8685   3.457  12.782   9.981  0.1986 -0.1344  0.0168
  543loPI   C2B 8686   3.416  12.772   9.564  0.2223 -0.0193  0.2380
  543loPI   C3B 8687   3.339  12.847   9.109 -0.0332 -0.1326  0.3101
  543loPI   C4B 8688   3.220  12.929   8.675 -0.4265  0.2873 -0.3304
  544loPI    C1 8689  15.083   4.209  10.547 -0.0178 -0.0073 -0.1718
  544loPI    C2 8690  14.828   3.904  10.594 -0.0863  0.1044  0.2188
  544loPI    C3 8691  15.219   3.849  10.656 -0.0537  0.0137 -0.0555
  544loPI   PO4 8692  15.072   4.300  10.344  0.2795 -0.1349  0.2034
  544loPI   GL1 8693  15.330   4.529  10.061  0.3386  0.0023  0.3172
  544loPI   GL2 8694  15.493   4.714  10.007 -0.3509  0.0474 -0.1190
  544loPI   C1A 8695  15.187   4.592   9.636  0.1670 -0.1282  0.0623
  544loPI   C2A 8696  15.245   4.683   9.236 -0.2037  0.0589  0.0257
  544loPI   C3A 8697  15.202   4.706   8.819  0.0452  0.0633  0.0369
  544loPI   C4A 8698  15.212   4.642   8.408 -0.2894  0.1997 -0.1822
  544loPI   C5A 8699  15.258   4.973   8.085  0.0554  0.0317  0.0536
  544loPI   C6A 8700  15.384   5.316   7.996 -0.1786 -0.1408  0.1011
  544loPI   C1B 8701  15.647   4.724   9.602 -0.0894  0.2552  0.0348
  544loPI   C2B 8702  15.816   4.718   9.141 -0.0799  0.0230 -0.1657
  544loPI   C3B 8703  15.815   4.779   8.878 -0.0721 -0.1467  0.3702
  544loPI   C4B 8704  15.849   4.800   8.510 -0.2424 -0.1818 -0.1235
  545loPI    C1 8705  10.740  14.587  11.012  0.1136 -0.2614 -0.4178
  545loPI    C2 8706  10.558  14.251  10.896 -0.0272 -0.2421 -0.2557
  545loPI    C3 8707  10.452  14.427  11.239 -0.0018  0.0048 -0.3730
  545loPI   PO4 8708  10.852  14.705  10.806 -0.0370 -0.1443  0.1656
  545loPI   GL1 8709  10.959  14.864  10.468 -0.1933  0.1426  0.1116
  545loPI   GL2 8710  11.263  15.093  10.353  0.0896  0.0414 -0.0836
  545loPI   C1A 8711  10.912  14.965  10.035 -0.0189  0.0488 -0.1469
  545loPI   C2A 8712  10.846  15.038   9.593  0.0049  0.2753 -0.2352
  545loPI   C3A 8713  10.942  15.090   9.133 -0.0606  0.2172 -0.0547
  545loPI   C4A 8714  10.891  15.200   8.652 -0.3950 -0.2135  0.0249
  545loPI   C5A 8715  10.854  15.038   8.191  0.1150  0.4144 -0.1990
  545loPI   C6A 8716  11.151  14.665   8.011  0.1115 -0.2417 -0.1953
  545loPI   C1B 8717  11.239  15.261   9.867 -0.0366 -0.0020 -0.1917
  545loPI   C2B 8718  11.403  15.342   9.478  0.0896  0.0833 -0.0961
  545loPI   C3B 8719  11.352  15.305   8.999  0.1407 -0.3298 -0.0106
  545loPI   C4B 8720  11.575  15.432   8.636 -0.3433  0.1021 -0.1684
  546loPI    C1 8721  14.417  16.776  10.945 -0.0555 -0.3180 -0.0166
  546loPI    C2 8722  14.164  16.692  11.243  0.1972  0.0210  0.3029
  546loPI    C3 8723  14.391  17.021  11.260  0.2747  0.0042 -0.2312
  546loPI   PO4 8724  14.229  16.729  10.698 -0.0842 -0.1921  0.1695
  546loPI   GL1 8725  14.017  16.900  10.381  0.2378  0.0770  0.1152
  546loPI   GL2 8726  14.080  17.148  10.270  0.1478 -0.1548 -0.1921
  546loPI   C1A 8727  13.899  16.662  10.083  0.1093  0.1772 -0.1912
  546loPI   C2A 8728  13.955  16.491   9.718 -0.5736 -0.0147  0.0402
  546loPI   C3A 8729  13.920  16.474   9.270  0.2603 -0.1112 -0.0652
  546loPI   C4A 8730  14.034  16.538   8.783  0.0459 -0.0807  0.3218
  546loPI   C5A 8731  14.003  16.337   8.364 -0.0262  0.0748 -0.3628
  546loPI   C6A 8732  13.716  16.088   7.991 -0.1928 -0.0767  0.2757
  546loPI   C1B 8733  14.166  17.031   9.870 -0.2245 -0.2322  0.2080
  546loPI   C2B 8734  14.148  17.037   9.499  0.0862  0.3242 -0.0451
  546loPI   C3B 8735  14.136  17.033   9.104  0.1473  0.4304  0.1117
  546loPI   C4B 8736  14.218  16.990   8.714 -0.1600 -0.0612 -0.3063
  547loPI    C1 8737  16.219   4.762  10.751 -0.0880  0.0109  0.1179
  547loPI    C2 8738  16.313   4.433  10.957 -0.1281 -0.2269 -0.2348
  547loPI    C3 8739  16.237   4.775  11.150  0.1656 -0.3568  0.1228
  547loPI   PO4 8740  16.479   4.664  10.480 -0.0607 -0.2958  0.0106
  547loPI   GL1 8741  16.456   4.966  10.062  0.3217 -0.0246 -0.0980
  547loPI   GL2 8742  16.054   4.876  10.166 -0.1391  0.2714  0.2120
  547loPI   C1A 8743  16.670   4.999   9.709 -0.1342 -0.0748  0.0906
  547loPI   C2A 8744  16.754   4.950   9.197 -0.0712  0.0303  0.0239
  547loPI   C3A 8745  16.758   5.036   8.830  0.0489 -0.2189 -0.1332
  547loPI   C4A 8746  16.837   5.082   8.401  0.3172 -0.0290 -0.1741
  547loPI   C5A 8747  16.970   4.985   7.993 -0.2260  0.0738  0.0093
  547loPI   C6A 8748  16.824   5.108   7.628  0.0643 -0.1834 -0.0438
  547loPI   C1B 8749  16.137   4.751   9.766  0.2346  0.0735 -0.0044
  547loPI   C2B 8750  16.271   4.855   9.357 -0.1809 -0.0060  0.0273
  547loPI   C3B 8751  16.291   4.845   8.988 -0.3121  0.0241  0.1248
  547loPI   C4B 8752  16.366   4.922   8.538  0.2399 -0.0322 -0.1413
  548loPI    C1 8753   6.089  13.034  10.760 -0.2160 -0.1001 -0.0022
  548loPI    C2 8754   6.206  13.368  10.947 -0.1353 -0.0816 -0.0846
  548loPI    C3 8755   6.233  13.014  11.132 -0.0324 -0.0665 -0.0702
  548loPI   PO4 8756   6.206  13.089  10.470  0.0617 -0.2597 -0.0452
  548loPI   GL1 8757   6.460  13.196  10.147  0.1798  0.2142 -0.1602
  548loPI   GL2 8758   6.749  13.130  10.017 -0.0723 -0.0796  0.0786
  548loPI   C1A 8759   6.280  13.181   9.776  0.0540  0.2784  0.0710
  548loPI   C2A 8760   6.178  13.275   9.319  0.1167  0.0230  0.0174
  548loPI   C3A 8761   6.208  13.339   8.870  0.1817 -0.1279  0.4806
  548loPI   C4A 8762   6.229  13.367   8.434 -0.0751 -0.0369  0.3809
  548loPI   C5A 8763   6.335  13.192   8.057  0.0897 -0.1231  0.2670
  548loPI   C6A 8764   6.659  13.188   7.776 -0.1497  0.2329 -0.1658
  548loPI   C1B 8765   6.824  13.306   9.598  0.1536 -0.1103  0.1938
  548loPI   C2B 8766   6.795  13.427   9.152 -0.0254 -0.3521 -0.0039
  548loPI   C3B 8767   6.744  13.482   8.756 -0.0618  0.3385  0.1420
  548loPI   C4B 8768   6.744  13.583   8.359  0.0992 -0.0644 -0.0856
  549loPI    C1 8769   3.974   0.581  10.487 -0.1757  0.0558  0.2171
  549loPI    C2 8770   3.623   0.432  10.607 -0.0953 -0.0944  0.2688
  549loPI    C3 8771   3.953   0.361  10.820 -0.0626  0.2001  0.3208
  549loPI   PO4 8772   3.949   0.523  10.252 -0.1438 -0.0814  0.3329
  549loPI   GL1 8773   4.184   0.599  10.026 -0.2084 -0.0330 -0.1440
  549loPI   GL2 8774   4.462   0.402  10.072 -0.1399 -0.0969 -0.1793
  549loPI   C1A 8775   4.136   0.625   9.617 -0.2137 -0.0487  0.5468
  549loPI   C2A 8776   4.177   0.591   9.147 -0.1768  0.0374 -0.1154
  549loPI   C3A 8777   4.123   0.548   8.755 -0.0276  0.0849  0.3337
  549loPI   C4A 8778   4.428   0.474   8.241 -0.3022  0.0901 -0.0607
  549loPI   C5A 8779   4.454   0.167   7.993 -0.0241 -0.3247 -0.0922
  549loPI   C6A 8780   4.320  -0.141   7.677  0.0350  0.0688  0.3178
  549loPI   C1B 8781   4.578   0.292   9.675 -0.2764  0.1081  0.0014
  549loPI   C2B 8782   4.556   0.340   9.260  0.3830  0.2187  0.2346
  549loPI   C3B 8783   4.508   0.205   8.820  0.3110  0.2442 -0.0009
  549loPI   C4B 8784   4.771   0.208   8.502  0.0129  0.0585 -0.0329
  550loPI    C1 8785   5.197  14.280  10.772 -0.1037 -0.1474 -0.2706
  550loPI    C2 8786   5.038  13.962  10.956 -0.0394  0.0310  0.1036
  550loPI    C3 8787   5.263  14.221  11.163  0.1601  0.1587 -0.2640
  550loPI   PO4 8788   5.128  14.301  10.516 -0.2911 -0.0898  0.0314
  550loPI   GL1 8789   5.334  14.345  10.205 -0.0962  0.0756  0.0531
  550loPI   GL2 8790   5.553  14.415   9.839  0.1141 -0.1062 -0.0902
  550loPI   C1A 8791   5.122  14.178   9.811 -0.0332 -0.0972 -0.1826
  550loPI   C2A 8792   5.085  14.327   9.393 -0.3930 -0.3497  0.2226
  550loPI   C3A 8793   5.020  14.357   8.975 -0.1010 -0.0451 -0.2171
  550loPI   C4A 8794   5.062  14.280   8.544 -0.0765  0.1411 -0.2112
  550loPI   C5A 8795   5.236  14.105   8.275  0.2719 -0.2274 -0.4049
  550loPI   C6A 8796   5.603  13.973   8.279 -0.0204  0.1973  0.1158
  550loPI   C1B 8797   5.564  14.388   9.428  0.0533 -0.0184  0.0124
  550loPI   C2B 8798   5.604  14.457   9.030  0.1541  0.0636 -0.2378
  550loPI   C3B 8799   5.566  14.474   8.529 -0.3470 -0.0446 -0.1676
  550loPI   C4B 8800   5.347  14.690   8.274 -0.0903  0.0085  0.2207
  551loPI    C1 8801  15.740  12.271  11.182  0.0132 -0.0943 -0.1592
  551loPI    C2 8802  16.115  12.285  11.045  0.0839 -0.2966  0.0074
  551loPI    C3 8803  16.046  12.215  11.432 -0.1218 -0.0403  0.0206
  551loPI   PO4 8804  15.652  12.108  10.958 -0.1303 -0.1805 -0.1433
  551loPI   GL1 8805  15.897  12.155  10.637 -0.0954 -0.0373  0.1641
  551loPI   GL2 8806  16.276  11.918  10.660 -0.0037  0.2484  0.0514
  551loPI   C1A 8807  15.977  12.369  10.194 -0.2369 -0.0174  0.2469
  551loPI   C2A 8808  16.073  12.402   9.816 -0.0081  0.3548  0.1112
  551loPI   C3A 8809  15.996  12.426   9.434 -0.0171 -0.2904  0.1947
  551loPI   C4A 8810  15.956  12.531   9.074  0.1206  0.1596  0.0824
  551loPI   C5A 8811  15.971  12.335   8.693  0.1792 -0.1477  0.3670
  551loPI   C6A 8812  15.886  11.959   8.591 -0.0098  0.4223  0.0540
  551loPI   C1B 8813  16.416  12.064  10.278  0.0562 -0.2221 -0.2775
  551loPI   C2B 8814  16.458  12.100   9.828  0.4196 -0.1744 -0.2620
  551loPI   C3B 8815  16.493  12.106   9.420 -0.0693 -0.2416 -0.2949
  551loPI   C4B 8816  16.416  12.221   8.992 -0.0901  0.3291 -0.4561
  552loPI    C1 8817   8.854  12.879  10.674  0.2064 -0.1551  0.0365
  552loPI    C2 8818   9.226  12.852  10.818  0.3041 -0.0398 -0.1902
  552loPI    C3 8819   8.920  12.920  11.066  0.4227 -0.2161  0.0074
  552loPI   PO4 8820   8.869  12.688  10.510  0.1537 -0.1909  0.1376
  552loPI   GL1 8821   8.776  12.648  10.152  0.0420  0.2201 -0.1089
  552loPI   GL2 8822   9.073  12.601  10.054 -0.3371 -0.1335  0.0220
  552loPI   C1A 8823   8.511  12.355   9.864 -0.1947  0.2092 -0.0199
  552loPI   C2A 8824   8.478  12.448   9.381  0.0467  0.1217 -0.0434
  552loPI   C3A 8825   8.467  12.474   8.913  0.0838  0.4068  0.0892
  552loPI   C4A 8826   8.384  12.444   8.467  0.4110 -0.0845 -0.0613
  552loPI   C5A 8827   8.452  12.695   8.060  0.3280 -0.1426 -0.2099
  552loPI   C6A 8828   8.369  12.944   7.673  0.1184  0.3276  0.3364
  552loPI   C1B 8829   8.890  12.558   9.647 -0.0993  0.2478  0.0912
  552loPI   C2B 8830   8.926  12.601   9.232 -0.0094  0.0384 -0.3980
  552loPI   C3B 8831   8.905  12.673   8.816 -0.0182  0.0564  0.0148
  552loPI   C4B 8832   8.851  12.692   8.375  0.2635  0.2210 -0.2914
  553loPI    C1 8833   9.171   9.140  10.612 -0.2190  0.0754  0.0618
  553loPI    C2 8834   9.502   8.966  10.752 -0.0498  0.1668 -0.2165
  553loPI    C3 8835   9.364   9.299  10.923  0.0383  0.1643 -0.1396
  553loPI   PO4 8836   9.099   8.847  10.483  0.1339  0.1056 -0.1568
  553loPI   GL1 8837   9.054   8.801   9.927 -0.0239 -0.4561 -0.3229
  553loPI   GL2 8838   9.059   9.050   9.871  0.0092 -0.2027 -0.0449
  553loPI   C1A 8839   9.025   8.593   9.618  0.3107 -0.4129  0.0024
  553loPI   C2A 8840   9.113   8.694   9.206  0.0918  0.2160 -0.1941
  553loPI   C3A 8841   9.170   8.701   8.936  0.0900 -0.0364 -0.0482
  553loPI   C4A 8842   9.268   8.738   8.536  0.3300 -0.1004  0.2092
  553loPI   C5A 8843   8.966   8.832   8.124  0.1436 -0.1821 -0.1874
  553loPI   C6A 8844   8.615   8.629   8.107  0.2700 -0.1084  0.0805
  553loPI   C1B 8845   9.055   9.164   9.527  0.0760 -0.1315  0.2710
  553loPI   C2B 8846   9.075   9.210   9.102 -0.0600  0.0207  0.0927
  553loPI   C3B 8847   9.126   9.196   8.648 -0.0743 -0.1055 -0.0411
  553loPI   C4B 8848   9.062   9.366   8.209 -0.1899 -0.2531 -0.0693
  554loPI    C1 8849  13.799  16.902  10.943  0.1171  0.0547  0.1766
  554loPI    C2 8850  13.578  16.872  11.275 -0.0654  0.2866  0.0783
  554loPI    C3 8851  13.868  17.147  11.251  0.1523  0.0671  0.1591
  554loPI   PO4 8852  13.580  16.849  10.771  0.1982  0.2751  0.0664
  554loPI   GL1 8853  13.448  16.723  10.327 -0.1635  0.0095 -0.1422
  554loPI   GL2 8854  13.606  16.972  10.177 -0.0931 -0.3046 -0.1049
  554loPI   C1A 8855  13.494  16.375   9.925  0.1367  0.0882 -0.1821
  554loPI   C2A 8856  13.430  16.416   9.473  0.0432  0.1004  0.1293
  554loPI   C3A 8857  13.503  16.319   9.055  0.3010  0.3423 -0.1811
  554loPI   C4A 8858  13.551  16.331   8.696 -0.2607 -0.0839 -0.1362
  554loPI   C5A 8859  13.405  16.341   8.280 -0.2154 -0.1037  0.3649
  554loPI   C6A 8860  13.260  16.795   8.073 -0.0678  0.2422  0.0304
  554loPI   C1B 8861  13.626  16.827   9.733  0.0988  0.0448  0.2393
  554loPI   C2B 8862  13.647  16.877   9.360 -0.0569  0.1927 -0.0212
  554loPI   C3B 8863  13.565  16.837   8.940 -0.0463  0.0589 -0.0813
  554loPI   C4B 8864  13.638  16.744   8.450 -0.1121  0.1942 -0.1304
  555loPI    C1 8865  17.718   9.345  11.468  0.3418 -0.1877  0.0890
  555loPI    C2 8866  18.022   9.460  11.701  0.2430  0.1289  0.0657
  555loPI    C3 8867  17.651   9.442  11.850  0.2367 -0.0352  0.0325
  555loPI   PO4 8868  17.638   9.482  11.220  0.2005 -0.1369 -0.0353
  555loPI   GL1 8869  17.756   9.482  10.809 -0.0682  0.2456  0.0280
  555loPI   GL2 8870  18.079   9.276  10.817 -0.1666 -0.0697 -0.5893
  555loPI   C1A 8871  17.760   9.612  10.298 -0.1925 -0.1454  0.0319
  555loPI   C2A 8872  17.687   9.637   9.880  0.0658 -0.0216 -0.1723
  555loPI   C3A 8873  17.691   9.611   9.411 -0.2563  0.0555  0.0948
  555loPI   C4A 8874  17.976   9.642   9.084  0.2243  0.3303  0.1313
  555loPI   C5A 8875  18.156   9.546   8.665  0.2631 -0.1884  0.0602
  555loPI   C6A 8876  18.230   9.427   8.310  0.1129  0.0696  0.0036
  555loPI   C1B 8877  18.041   9.197  10.443  0.0449 -0.3315  0.1131
  555loPI   C2B 8878  18.016   9.290   9.894  0.1905  0.0650  0.4722
  555loPI   C3B 8879  18.177   9.253   9.509  0.0464 -0.1045 -0.0739
  555loPI   C4B 8880  18.156   9.145   9.015 -0.0932  0.0565  0.3131
  556loPI    C1 8881   7.249   7.972  10.403  0.2157 -0.1194 -0.2464
  556loPI    C2 8882   7.420   8.126  10.731 -0.0258  0.0470 -0.1961
  556loPI    C3 8883   7.630   7.886  10.490  0.2383  0.1465 -0.0689
  556loPI   PO4 8884   6.962   8.136  10.467 -0.1022  0.2079 -0.1935
  556loPI   GL1 8885   6.715   8.266  10.111  0.2806 -0.0604  0.1986
  556loPI   GL2 8886   6.826   7.856  10.052 -0.3408 -0.0795 -0.1520
  556loPI   C1A 8887   6.424   8.301   9.842  0.0206  0.2621 -0.1099
  556loPI   C2A 8888   6.387   8.257   9.383 -0.2804  0.2477 -0.0259
  556loPI   C3A 8889   6.302   8.115   9.011  0.2225  0.0560  0.2440
  556loPI   C4A 8890   6.305   8.207   8.573 -0.1046  0.0087 -0.0763
  556loPI   C5A 8891   6.263   7.901   8.236  0.0572  0.2150 -0.1351
  556loPI   C6A 8892   6.515   7.627   8.045  0.2229  0.3188 -0.2219
  556loPI   C1B 8893   6.532   7.824   9.782  0.1099 -0.0711 -0.1054
  556loPI   C2B 8894   6.491   7.725   9.312 -0.4735  0.1528  0.1387
  556loPI   C3B 8895   6.404   7.548   8.981  0.0062 -0.0907 -0.1060
  556loPI   C4B 8896   6.426   7.526   8.526 -0.1451 -0.2351  0.2190
  557loPI    C1 8897   1.285   2.934  10.839  0.0409  0.2978 -0.0483
  557loPI    C2 8898   1.363   2.579  11.007  0.1340  0.3604  0.0418
  557loPI    C3 8899   1.033   2.781  11.111  0.1603  0.3712  0.1049
  557loPI   PO4 8900   1.423   2.896  10.616  0.0623 -0.0206  0.1206
  557loPI   GL1 8901   1.423   2.854  10.263  0.1668  0.2950  0.2938
  557loPI   GL2 8902   1.652   2.799   9.977  0.0479  0.0817  0.0699
  557loPI   C1A 8903   1.357   3.146   9.816 -0.4465 -0.0766 -0.1082
  557loPI   C2A 8904   1.482   3.100   9.354 -0.0610 -0.2379 -0.1317
  557loPI   C3A 8905   1.394   3.123   8.874 -0.1572 -0.2201  0.2490
  557loPI   C4A 8906   1.417   3.101   8.485 -0.0811 -0.2418 -0.0749
  557loPI   C5A 8907   1.112   3.095   8.179  0.2376 -0.0270  0.0185
  557loPI   C6A 8908   0.849   3.289   7.875  0.2403  0.0194 -0.0659
  557loPI   C1B 8909   1.531   2.685   9.596  0.0198 -0.3124 -0.0754
  557loPI   C2B 8910   1.478   2.696   9.129 -0.2978  0.0135 -0.1980
  557loPI   C3B 8911   1.325   2.614   8.762  0.6270  0.0455 -0.1396
  557loPI   C4B 8912   1.240   2.569   8.272 -0.1636 -0.0026 -0.0470
  558loPI    C1 8913  16.987  10.452  11.439 -0.0169 -0.1177 -0.1109
  558loPI    C2 8914  16.716  10.556  11.714  0.0107 -0.0772 -0.0987
  558loPI    C3 8915  17.103  10.639  11.773  0.0266 -0.1400 -0.1135
  558loPI   PO4 8916  16.939  10.184  11.343  0.0076 -0.0573 -0.2424
  558loPI   GL1 8917  16.785  10.028  10.977 -0.0452  0.1818 -0.0552
  558loPI   GL2 8918  17.178   9.985  10.994 -0.0190 -0.0339 -0.3733
  558loPI   C1A 8919  16.808   9.920  10.503  0.0805 -0.0890  0.2648
  558loPI   C2A 8920  16.859   9.816  10.022 -0.0018  0.1558  0.0664
  558loPI   C3A 8921  16.858   9.778   9.467  0.1409  0.0321 -0.2131
  558loPI   C4A 8922  17.013   9.982   9.115  0.0006  0.0820  0.0807
  558loPI   C5A 8923  16.866  10.291   8.820 -0.0176 -0.2700 -0.3112
  558loPI   C6A 8924  16.889  10.839   8.752  0.1182 -0.2300 -0.0101
  558loPI   C1B 8925  17.312   9.891  10.632  0.0415  0.0376 -0.0554
  558loPI   C2B 8926  17.337   9.925  10.270 -0.1749 -0.0048  0.2241
  558loPI   C3B 8927  17.363  10.027   9.862 -0.2378  0.0885  0.0143
  558loPI   C4B 8928  17.339   9.993   9.469 -0.0434  0.1818  0.0486
  559loPI    C1 8929   4.801   6.527  10.671 -0.1608 -0.0811 -0.0572
  559loPI    C2 8930   4.570   6.633  10.979 -0.1523  0.2042 -0.1457
  559loPI    C3 8931   4.968   6.653  11.012 -0.1435 -0.0454 -0.0787
  559loPI   PO4 8932   4.540   6.679  10.429  0.0420 -0.0701 -0.0546
  559loPI   GL1 8933   4.460   6.558  10.030 -0.0416  0.2964 -0.0574
  559loPI   GL2 8934   4.686   6.648   9.778  0.1715  0.0240  0.0248
  559loPI   C1A 8935   4.125   6.525   9.826 -0.1409 -0.1862  0.1927
  559loPI   C2A 8936   4.000   6.204   9.522 -0.0734  0.0315  0.4433
  559loPI   C3A 8937   3.893   6.213   9.017 -0.0981  0.0451  0.2877
  559loPI   C4A 8938   3.740   6.205   8.668  0.1798 -0.1173 -0.2250
  559loPI   C5A 8939   3.565   6.173   8.266 -0.3089 -0.1675  0.0728
  559loPI   C6A 8940   3.489   6.427   7.816 -0.1577 -0.3405  0.2298
  559loPI   C1B 8941   4.378   6.757   9.439 -0.1607  0.1698 -0.0801
  559loPI   C2B 8942   4.065   6.657   9.213  0.1283 -0.1097 -0.0339
  559loPI   C3B 8943   3.896   6.758   8.925  0.0597 -0.1470 -0.1875
  559loPI   C4B 8944   4.147   6.751   8.701  0.0370  0.2439 -0.0155
  560loPI    C1 8945   7.077  11.793  10.884 -0.0280  0.1322 -0.3161
  560loPI    C2 8946   6.731  11.697  11.060  0.1066 -0.0685 -0.1570
  560loPI    C3 8947   7.012  11.895  11.265  0.1214  0.0167 -0.2588
  560loPI   PO4 8948   6.962  11.850  10.651 -0.0589 -0.0022  0.1167
  560loPI   GL1 8949   6.763  11.932  10.223 -0.0263  0.0300  0.2405
  560loPI   GL2 8950   6.507  11.730  10.249 -0.1959  0.2048  0.0159
  560loPI   C1A 8951   7.031  11.935   9.862 -0.1514 -0.1277 -0.0006
  560loPI   C2A 8952   6.924  11.961   9.460 -0.2512  0.0167 -0.2099
  560loPI   C3A 8953   6.944  12.038   8.953  0.2560 -0.2802 -0.0115
  560loPI   C4A 8954   6.889  11.994   8.485 -0.0747  0.1496 -0.0757
  560loPI   C5A 8955   6.940  11.809   8.053 -0.0029  0.2858 -0.1657
  560loPI   C6A 8956   6.884  11.732   7.738 -0.3610  0.0007  0.3442
  560loPI   C1B 8957   6.489  11.768   9.768  0.0170 -0.0721 -0.1546
  560loPI   C2B 8958   6.495  11.817   9.317  0.1840 -0.0524 -0.1340
  560loPI   C3B 8959   6.345  11.963   8.982  0.4972  0.1541  0.1473
  560loPI   C4B 8960   6.322  11.982   8.495  0.1247  0.1518 -0.0550
  561loPI    C1 8961   6.804  17.708  10.614 -0.0989 -0.3311  0.3196
  561loPI    C2 8962   6.461  17.912  10.626 -0.0109 -0.1513 -0.0706
  561loPI    C3 8963   6.616  17.762  10.963 -0.2822  0.0797  0.1627
  561loPI   PO4 8964   6.797  17.713  10.331  0.0530  0.1470 -0.0292
  561loPI   GL1 8965   6.683  17.592  10.059 -0.0429  0.2165 -0.0365
  561loPI   GL2 8966   6.431  17.367   9.944 -0.0275 -0.0166  0.3800
  561loPI   C1A 8967   6.774  17.391   9.643 -0.0383 -0.0301  0.2723
  561loPI   C2A 8968   6.691  17.324   9.282 -0.0878  0.0251 -0.1353
  561loPI   C3A 8969   6.668  17.240   8.844  0.0409  0.2143 -0.0050
  561loPI   C4A 8970   6.746  17.054   8.462  0.1027  0.1338  0.0255
  561loPI   C5A 8971   6.913  17.107   8.052 -0.0311  0.0392  0.0511
  561loPI   C6A 8972   7.065  17.169   7.541  0.1473 -0.1812  0.0389
  561loPI   C1B 8973   6.520  16.981   9.652 -0.3429  0.2130 -0.1570
  561loPI   C2B 8974   6.491  16.795   9.273 -0.1183 -0.0947 -0.1404
  561loPI   C3B 8975   6.659  16.701   8.844  0.0282 -0.0825 -0.1930
  561loPI   C4B 8976   6.545  16.613   8.456  0.0657 -0.1129 -0.1705
  562loPI    C1 8977  15.676  16.442  10.754 -0.4044  0.0934 -0.1413
  562loPI    C2 8978  15.497  16.185  11.003  0.0157 -0.1759 -0.1062
  562loPI    C3 8979  15.563  16.563  11.118 -0.1193 -0.1989  0.0501
  562loPI   PO4 8980  15.564  16.420  10.536  0.0300 -0.1650 -0.0261
  562loPI   GL1 8981  15.690  16.205  10.148  0.1748 -0.0222 -0.1149
  562loPI   GL2 8982  15.941  16.191  10.320  0.0919 -0.0631 -0.1786
  562loPI   C1A 8983  15.706  16.151   9.731 -0.1619  0.1636  0.0789
  562loPI   C2A 8984  15.838  16.102   9.351  0.3425  0.0478  0.3764
  562loPI   C3A 8985  15.765  16.156   8.877 -0.1243  0.4342 -0.3307
  562loPI   C4A 8986  15.787  16.289   8.438  0.0193  0.1778  0.0810
  562loPI   C5A 8987  15.559  16.512   8.072 -0.2270 -0.0930 -0.1075
  562loPI   C6A 8988  15.536  16.644   7.695  0.1675 -0.0549 -0.0976
  562loPI   C1B 8989  16.193  16.088  10.057 -0.2816  0.0200  0.0648
  562loPI   C2B 8990  16.225  16.270   9.699  0.0033  0.3193  0.0842
  562loPI   C3B 8991  16.292  16.318   9.210 -0.3465 -0.0327  0.1597
  562loPI   C4B 8992  16.234  16.335   8.796  0.1361 -0.0193  0.0308
  563loPI    C1 8993  16.848   2.507  10.632  0.0181  0.0636  0.0230
  563loPI    C2 8994  16.502   2.603  10.458  0.0897  0.3780  0.0475
  563loPI    C3 8995  16.520   2.559  10.855 -0.0572 -0.2662 -0.0053
  563loPI   PO4 8996  17.035   2.359  10.396 -0.2319 -0.3335  0.1083
  563loPI   GL1 8997  17.049   2.266  10.086 -0.0641  0.0673  0.1991
  563loPI   GL2 8998  16.700   2.494   9.970  0.1412 -0.0396 -0.0702
  563loPI   C1A 8999  17.043   2.295   9.611  0.2278 -0.2803 -0.1328
  563loPI   C2A 9000  17.020   2.376   9.211  0.3366 -0.0236  0.1156
  563loPI   C3A 9001  17.119   2.309   8.748  0.3213 -0.0783 -0.1004
  563loPI   C4A 9002  17.398   2.186   8.357  0.0818 -0.1021 -0.2866
  563loPI   C5A 9003  17.203   2.005   8.040  0.4918 -0.0466  0.1696
  563loPI   C6A 9004  16.726   1.971   8.049 -0.0353  0.0153  0.4295
  563loPI   C1B 9005  16.661   2.664   9.532 -0.2139  0.2389 -0.0409
  563loPI   C2B 9006  16.629   2.698   9.105 -0.0641 -0.3216  0.1885
  563loPI   C3B 9007  16.749   2.686   8.646  0.3668 -0.1901  0.3341
  563loPI   C4B 9008  16.607   2.809   8.257  0.0632 -0.0826 -0.0882
  564loPI    C1 9009  13.798   5.037  10.567 -0.0456 -0.1219 -0.1243
  564loPI    C2 9010  13.437   4.986  10.732 -0.0067 -0.2079 -0.0655
  564loPI    C3 9011  13.694   5.248  10.891 -0.0002 -0.2310 -0.0381
  564loPI   PO4 9012  13.762   5.009  10.308  0.1424 -0.2805 -0.0318
  564loPI   GL1 9013  13.955   5.044   9.930  0.0528  0.0814 -0.0582
  564loPI   GL2 9014  13.827   4.776   9.755  0.0422  0.0636  0.3340
  564loPI   C1A 9015  14.069   5.101   9.501  0.2108  0.0488  0.1413
  564loPI   C2A 9016  13.982   5.058   9.039  0.0449 -0.2284  0.0639
  564loPI   C3A 9017  14.010   5.197   8.618 -0.0660  0.1091 -0.3880
  564loPI   C4A 9018  14.169   5.181   8.219 -0.1910  0.1734  0.0113
  564loPI   C5A 9019  14.410   5.072   7.985 -0.1458  0.0052  0.2228
  564loPI   C6A 9020  14.805   4.879   7.923  0.4353 -0.3854  0.1774
  564loPI   C1B 9021  13.790   4.627   9.276  0.0841  0.1237 -0.1597
  564loPI   C2B 9022  13.876   4.604   8.883  0.0266  0.1001  0.1789
  564loPI   C3B 9023  13.940   4.626   8.498  0.1441 -0.0626  0.0737
  564loPI   C4B 9024  13.969   4.698   8.130 -0.2345  0.0908 -0.1171
  565loPI    C1 9025  17.757   9.945  11.758  0.1854  0.0343 -0.1583
  565loPI    C2 9026  17.957  10.275  11.863  0.2418 -0.0565  0.0238
  565loPI    C3 9027  17.961   9.955  12.102 -0.2554 -0.0049  0.1107
  565loPI   PO4 9028  17.781   9.920  11.423  0.0659  0.4674 -0.0981
  565loPI   GL1 9029  17.706  10.006  11.007 -0.1648  0.1553  0.2250
  565loPI   GL2 9030  18.006  10.148  10.890 -0.1168  0.0700  0.1147
  565loPI   C1A 9031  17.518  10.323  10.741  0.1912  0.5712  0.1700
  565loPI   C2A 9032  17.421  10.428  10.408  0.1352  0.2122  0.2724
  565loPI   C3A 9033  17.447  10.569  10.020  0.2732  0.0616 -0.0376
  565loPI   C4A 9034  17.439  10.533   9.575 -0.1927  0.0495 -0.1837
  565loPI   C5A 9035  17.460  10.394   9.141  0.0895 -0.2113 -0.1283
  565loPI   C6A 9036  17.673  10.578   8.784 -0.0953 -0.0551  0.0978
  565loPI   C1B 9037  17.859  10.045  10.463 -0.1726 -0.1478 -0.1063
  565loPI   C2B 9038  17.786  10.106  10.091 -0.0077  0.0315  0.2225
  565loPI   C3B 9039  17.868  10.106   9.637  0.5921  0.0577  0.0406
  565loPI   C4B 9040  17.760  10.062   9.168  0.2091  0.2211  0.0972
  566loPI    C1 9041   3.348  17.275  10.573  0.1472  0.0062 -0.2262
  566loPI    C2 9042   3.699  17.158  10.724  0.0960 -0.1712 -0.2419
  566loPI    C3 9043   3.359  17.060  10.911  0.0560  0.0386 -0.2023
  566loPI   PO4 9044   3.301  17.522  10.571  0.0780  0.3016  0.0539
  566loPI   GL1 9045   3.239  17.727  10.269  0.1993  0.3686 -0.1488
  566loPI   GL2 9046   2.900  17.781  10.179 -0.0858  0.0244  0.0680
  566loPI   C1A 9047   3.407  17.377   9.936  0.0272 -0.1549  0.1140
  566loPI   C2A 9048   3.324  17.307   9.531  0.0671 -0.0530 -0.2468
  566loPI   C3A 9049   3.348  17.215   9.080 -0.1155  0.0448  0.0677
  566loPI   C4A 9050   3.261  17.108   8.654 -0.2401  0.2872  0.1679
  566loPI   C5A 9051   3.358  16.799   8.442  0.0697 -0.3138 -0.2356
  566loPI   C6A 9052   3.493  16.658   8.035  0.1552 -0.0047  0.2866
  566loPI   C1B 9053   2.968  17.705   9.807 -0.0866 -0.0965 -0.1125
  566loPI   C2B 9054   2.879  17.646   9.370 -0.0945  0.0557  0.0878
  566loPI   C3B 9055   2.981  17.599   8.926  0.1151 -0.2675  0.4354
  566loPI   C4B 9056   2.850  17.408   8.572 -0.0239 -0.1129  0.1755
  567loPI    C1 9057   0.626   1.415  10.610  0.0513 -0.0136  0.0785
  567loPI    C2 9058   0.986   1.407  10.437 -0.0267 -0.1486 -0.0803
  567loPI    C3 9059   0.955   1.377  10.835  0.1584  0.2338 -0.0319
  567loPI   PO4 9060   0.460   1.360  10.436  0.0734 -0.1146  0.2628
  567loPI   GL1 9061   0.478   1.278  10.026  0.0558 -0.0725 -0.1864
  567loPI   GL2 9062   0.082   1.271  10.127  0.0107  0.1885 -0.3980
  567loPI   C1A 9063   0.529   1.491   9.617  0.0719 -0.1469 -0.0560
  567loPI   C2A 9064   0.552   1.501   9.203 -0.0905 -0.3237 -0.0676
  567loPI   C3A 9065   0.511   1.473   8.754 -0.2745  0.0307  0.1239
  567loPI   C4A 9066   0.562   1.317   8.250  0.4328  0.1710 -0.0605
  567loPI   C5A 9067   0.296   1.175   7.870  0.0800 -0.0196  0.0170
  567loPI   C6A 9068   0.264   0.879   7.518  0.1219 -0.1216  0.3098
  567loPI   C1B 9069   0.048   1.189   9.557 -0.1509  0.0655 -0.2271
  567loPI   C2B 9070   0.045   1.216   9.134 -0.0918 -0.0990  0.0495
  567loPI   C3B 9071   0.011   1.347   8.663  0.4447  0.1242 -0.0759
  567loPI   C4B 9072  -0.068   1.040   8.297  0.2689  0.0378  0.0374
  568loPI    C1 9073  15.299  12.497  11.022  0.0962  0.0391  0.2305
  568loPI    C2 9074  14.998  12.609  11.261  0.0873  0.2861  0.1074
  568loPI    C3 9075  15.284  12.365  11.399 -0.0784  0.1847  0.2761
  568loPI   PO4 9076  15.278  12.699  10.837 -0.1230 -0.2774  0.2920
  568loPI   GL1 9077  15.357  12.767  10.382 -0.0317 -0.1705 -0.0199
  568loPI   GL2 9078  15.204  13.062  10.491  0.2118  0.0536  0.0405
  568loPI   C1A 9079  15.632  12.738  10.090 -0.0095  0.0301 -0.0470
  568loPI   C2A 9080  15.665  12.859   9.665 -0.4684 -0.0554 -0.0349
  568loPI   C3A 9081  15.570  12.851   9.200 -0.2780 -0.3932 -0.1260
  568loPI   C4A 9082  15.587  12.709   8.746  0.0165 -0.0414  0.0872
  568loPI   C5A 9083  15.371  12.810   8.398 -0.1033  0.3572 -0.0706
  568loPI   C6A 9084  15.189  13.161   8.236  0.3038 -0.0627  0.0876
  568loPI   C1B 9085  15.154  13.120  10.088  0.1516 -0.0588  0.0246
  568loPI   C2B 9086  15.149  13.165   9.662  0.2201 -0.2007  0.2369
  568loPI   C3B 9087  15.202  13.202   9.272  0.1503 -0.0913 -0.1411
  568loPI   C4B 9088  15.297  13.112   8.799  0.1783 -0.1311  0.0897
  569loPI    C1 9089   8.948   7.872  10.602  0.1291 -0.2201 -0.0120
  569loPI    C2 9090   8.561   7.958  10.655  0.2017  0.2465 -0.1931
  569loPI    C3 9091   8.722   7.642  10.839 -0.2198  0.1539  0.0304
  569loPI   PO4 9092   8.969   7.953  10.292 -0.1075  0.1791 -0.0643
  569loPI   GL1 9093   8.808   8.042   9.849 -0.4434  0.1915 -0.0266
  569loPI   GL2 9094   8.734   7.923   9.695  0.0648  0.1070 -0.0373
  569loPI   C1A 9095   9.047   8.126   9.326  0.0247 -0.0375 -0.2098
  569loPI   C2A 9096   9.251   8.212   8.932  0.1483 -0.2359  0.2869
  569loPI   C3A 9097   9.356   8.260   8.543 -0.0450  0.1655  0.0630
  569loPI   C4A 9098   9.464   8.128   8.051 -0.1218 -0.2286  0.3303
  569loPI   C5A 9099   9.547   7.776   7.719 -0.0022 -0.0473 -0.1588
  569loPI   C6A 9100   9.596   7.445   7.546 -0.1935 -0.4139  0.2267
  569loPI   C1B 9101   8.530   7.918   9.356 -0.0157  0.2931  0.0185
  569loPI   C2B 9102   8.442   8.014   8.975 -0.0624  0.0839 -0.2009
  569loPI   C3B 9103   8.212   7.936   8.617  0.2201 -0.0888  0.3976
  569loPI   C4B 9104   8.067   7.879   8.239  0.0510 -0.0908  0.2567
  570loPI    C1 9105  16.784   9.669  11.725  0.0871  0.0104  0.1523
  570loPI    C2 9106  17.101   9.476  11.874  0.1471 -0.1292 -0.1501
  570loPI    C3 9107  16.732   9.356  11.968  0.1845 -0.2868 -0.2017
  570loPI   PO4 9108  16.803   9.723  11.481  0.0395  0.0008  0.1803
  570loPI   GL1 9109  16.920   9.503  11.103  0.4744  0.0553  0.0517
  570loPI   GL2 9110  16.704   9.368  10.993 -0.2304  0.1654 -0.1489
  570loPI   C1A 9111  17.114   9.510  10.820  0.1265  0.1605  0.0042
  570loPI   C2A 9112  17.212   9.443  10.415  0.0198  0.0545  0.2660
  570loPI   C3A 9113  17.165   9.390   9.943 -0.0078  0.3351  0.0099
  570loPI   C4A 9114  17.248   9.435   9.598  0.4332 -0.1562  0.1733
  570loPI   C5A 9115  17.264   9.502   9.226  0.1234  0.1409  0.0013
  570loPI   C6A 9116  17.467   9.731   8.916 -0.0783  0.1863 -0.1889
  570loPI   C1B 9117  16.688   9.401  10.643 -0.0589  0.1207  0.1821
  570loPI   C2B 9118  16.729   9.381  10.177  0.0634 -0.0731 -0.1181
  570loPI   C3B 9119  16.584   9.376   9.759 -0.1008 -0.1260  0.1169
  570loPI   C4B 9120  16.811   9.223   9.480 -0.0480  0.1566  0.1117
  571loPI    C1 9121  12.210   0.627  10.863 -0.2849 -0.0402  0.0483
  571loPI    C2 9122  12.256   0.260  10.711 -0.5140 -0.1174  0.1607
  571loPI    C3 9123  12.273   0.316  11.106  0.0621  0.0800  0.1163
  571loPI   PO4 9124  12.241   0.792  10.548 -0.1165 -0.4422  0.0420
  571loPI   GL1 9125  12.366   0.967  10.167 -0.3183 -0.1392 -0.0617
  571loPI   GL2 9126  12.038   0.733  10.096  0.0803 -0.0112  0.0623
  571loPI   C1A 9127  12.368   1.034   9.795 -0.1200 -0.3168  0.0021
  571loPI   C2A 9128  12.341   1.053   9.419 -0.3784 -0.0419  0.3974
  571loPI   C3A 9129  12.220   1.117   8.993 -0.3555  0.0188 -0.2621
  571loPI   C4A 9130  12.209   1.071   8.487  0.1207  0.1493  0.0301
  571loPI   C5A 9131  11.930   0.912   8.224  0.3075 -0.1790 -0.0061
  571loPI   C6A 9132  11.571   0.634   8.079 -0.0255  0.1836  0.0560
  571loPI   C1B 9133  12.173   0.621   9.673 -0.1934 -0.0289  0.3356
  571loPI   C2B 9134  12.174   0.617   9.244  0.1879 -0.0184 -0.1712
  571loPI   C3B 9135  12.247   0.523   8.854  0.0245  0.1136  0.3874
  571loPI   C4B 9136  12.203   0.534   8.377  0.2464  0.0799 -0.0397
  572loPI    C1 9137  11.702  15.199  11.109  0.1185 -0.3544 -0.0772
  572loPI    C2 9138  11.975  15.175  11.400 -0.1677  0.2071  0.2544
  572loPI    C3 9139  11.616  15.003  11.447 -0.0391 -0.1400  0.0094
  572loPI   PO4 9140  11.703  15.126  10.758  0.0088  0.0605  0.0101
  572loPI   GL1 9141  12.099  15.062  10.618 -0.0210  0.3233  0.1017
  572loPI   GL2 9142  11.825  14.707  10.520  0.0416  0.0977  0.1930
  572loPI   C1A 9143  12.227  15.156  10.254 -0.0191  0.2057 -0.1880
  572loPI   C2A 9144  12.225  15.113   9.848 -0.0201  0.1208 -0.0714
  572loPI   C3A 9145  12.238  15.058   9.491  0.0251 -0.0069 -0.0258
  572loPI   C4A 9146  12.232  15.063   9.116  0.0948 -0.0637 -0.1508
  572loPI   C5A 9147  12.237  15.239   8.716  0.1572 -0.2109 -0.3098
  572loPI   C6A 9148  12.472  15.197   8.331 -0.2144 -0.0016 -0.0632
  572loPI   C1B 9149  11.869  14.753  10.032  0.1534  0.1188 -0.0670
  572loPI   C2B 9150  11.802  14.937   9.712 -0.2875  0.1649  0.2265
  572loPI   C3B 9151  11.762  14.959   9.279 -0.0842 -0.0199 -0.1972
  572loPI   C4B 9152  11.773  14.993   8.888  0.1686 -0.3070  0.2225
  573POPI    C1 9153   4.004  16.258  10.601  0.0249 -0.2703 -0.0318
  573POPI    C2 9154   4.251  16.091  10.867  0.0859 -0.3294 -0.1250
  573POPI    C3 9155   3.893  16.225  10.984  0.1508 -0.2669  0.0055
  573POPI   PO4 9156   4.156  16.392  10.448  0.2231 -0.1972  0.0797
  573POPI   GL1 9157   4.125  16.408  10.063 -0.2257 -0.0587 -0.2478
  573POPI   GL2 9158   4.188  16.025  10.121 -0.2723 -0.0952  0.0639
  573POPI   C1A 9159   4.137  16.503   9.682 -0.1364 -0.0922 -0.1072
  573POPI   D2A 9160   4.067  16.529   9.239 -0.0426 -0.2642  0.0953
  573POPI   C3A 9161   4.385  16.411   9.015 -0.1049 -0.0320 -0.0995
  573POPI   C4A 9162   4.407  16.143   8.608  0.1138 -0.1730  0.2403
  573POPI   C1B 9163   3.962  15.999   9.781  0.2448  0.0175 -0.2505
  573POPI   C2B 9164   3.973  16.078   9.333  0.1797  0.3303 -0.2539
  573POPI   C3B 9165   3.942  16.103   8.916 -0.2949  0.0264  0.0307
  573POPI   C4B 9166   4.046  16.477   8.656 -0.0341 -0.1444  0.1102
  574POPI    C1 9167   8.860   0.216  10.691  0.0088 -0.3149  0.1262
  574POPI    C2 9168   8.798  -0.083  10.432 -0.2675 -0.3511  0.2314
  574POPI    C3 9169   8.944  -0.161  10.796 -0.0024 -0.3149  0.1349
  574POPI   PO4 9170   8.997   0.361  10.607 -0.2520  0.1949  0.0934
  574POPI   GL1 9171   9.130   0.362  10.162 -0.1985  0.1178 -0.0272
  574POPI   GL2 9172   8.882   0.242  10.068  0.0493 -0.1651  0.2023
  574POPI   C1A 9173   9.306   0.296   9.732  0.0394 -0.0165 -0.2862
  574POPI   D2A 9174   9.333   0.208   9.336 -0.1100  0.2255 -0.0347
  574POPI   C3A 9175   9.327   0.216   8.869  0.2132  0.2349  0.0746
  574POPI   C4A 9176   9.290   0.045   8.454  0.1581 -0.0836  0.0743
  574POPI   C1B 9177   8.744   0.157   9.578  0.0353  0.1355 -0.0051
  574POPI   C2B 9178   8.841   0.099   9.122 -0.0824 -0.1609  0.1980
  574POPI   C3B 9179   8.877   0.031   8.764 -0.1765  0.2180 -0.0481
  574POPI   C4B 9180   8.794  -0.121   8.356  0.0319  0.4139  0.2132
  575POPI    C1 9181   4.650  14.670  10.805 -0.3034  0.0730  0.0239
  575POPI    C2 9182   4.756  14.378  11.057 -0.1697  0.3049  0.2414
  575POPI    C3 9183   4.550  14.693  11.191 -0.1522  0.4011  0.0470
  575POPI   PO4 9184   4.723  14.668  10.462  0.3399  0.1190  0.1015
  575POPI   GL1 9185   4.452  14.749  10.081 -0.0156  0.0544  0.0465
  575POPI   GL2 9186   4.256  14.472  10.162 -0.0494  0.3325 -0.2352
  575POPI   C1A 9187   4.125  14.647   9.727 -0.1870 -0.0051  0.0426
  575POPI   D2A 9188   4.087  14.436   9.320 -0.0497 -0.1214  0.0218
  575POPI   C3A 9189   4.175  14.588   8.997  0.3134  0.3238 -0.0821
  575POPI   C4A 9190   4.191  14.572   8.455 -0.0316  0.3696 -0.3142
  575POPI   C1B 9191   4.120  14.176   9.790  0.1037  0.1524  0.0480
  575POPI   C2B 9192   4.016  13.967   9.444  0.0684 -0.3326 -0.0034
  575POPI   C3B 9193   4.156  14.024   8.985 -0.0607  0.1458 -0.0384
  575POPI   C4B 9194   4.016  14.119   8.609  0.0980 -0.3228  0.0036
  576POPI    C1 9195  17.615  12.423  11.187 -0.0784 -0.0534 -0.2327
  576POPI    C2 9196  17.296  12.606  11.344 -0.0076 -0.0458 -0.0965
  576POPI    C3 9197  17.396  12.239  11.466  0.4921  0.2535  0.4498
  576POPI   PO4 9198  17.531  12.355  10.902  0.1793  0.1794  0.2036
  576POPI   GL1 9199  17.478  12.629  10.494  0.3214  0.0234 -0.0533
  576POPI   GL2 9200  17.334  12.376  10.391 -0.2624  0.0391  0.2437
  576POPI   C1A 9201  17.853  12.574  10.166 -0.1926 -0.0168 -0.3830
  576POPI   D2A 9202  18.039  12.476   9.712  0.0160  0.1066  0.0228
  576POPI   C3A 9203  17.963  12.554   9.244  0.1815 -0.0736  0.2941
  576POPI   C4A 9204  17.853  12.574   8.801 -0.3800  0.0054  0.0016
  576POPI   C1B 9205  17.406  12.423   9.922 -0.2649 -0.1390 -0.0902
  576POPI   C2B 9206  17.483  12.343   9.503 -0.3851 -0.1445 -0.0185
  576POPI   C3B 9207  17.450  12.482   9.013 -0.0014 -0.1473  0.1827
  576POPI   C4B 9208  17.450  12.404   8.529 -0.2001 -0.2885  0.0044
  577POPI    C1 9209   8.815   7.477   9.964  0.2693 -0.0799  0.2247
  577POPI    C2 9210   8.553   7.666  10.199  0.0160 -0.2808  0.1086
  577POPI    C3 9211   8.844   7.445  10.362 -0.0806 -0.3158  0.2356
  577POPI   PO4 9212   8.615   7.402   9.791  0.1803 -0.0597 -0.1032
  577POPI   GL1 9213   8.388   7.343   9.440 -0.0150 -0.5272  0.2475
  577POPI   GL2 9214   8.611   7.164   9.311 -0.1033 -0.1240  0.1937
  577POPI   C1A 9215   8.172   7.587   9.190 -0.1237 -0.2868 -0.1283
  577POPI   D2A 9216   7.836   7.669   9.049 -0.1288  0.0355  0.4315
  577POPI   C3A 9217   7.754   7.665   8.584  0.1448 -0.0382 -0.2917
  577POPI   C4A 9218   7.442   7.703   8.354 -0.2645 -0.3181  0.2333
  577POPI   C1B 9219   8.678   6.950   9.066 -0.0035  0.5967  0.0980
  577POPI   C2B 9220   8.548   6.826   8.692  0.2247  0.0555  0.4592
  577POPI   C3B 9221   8.429   6.926   8.185 -0.2531 -0.1572  0.0016
  577POPI   C4B 9222   8.488   7.157   7.803  0.2266 -0.0991 -0.1401
  578POPI    C1 9223  13.747   4.533  10.157 -0.0230  0.2571 -0.2228
  578POPI    C2 9224  13.581   4.530  10.521 -0.0280  0.0279 -0.2253
  578POPI    C3 9225  13.978   4.555  10.482 -0.0081 -0.2200 -0.1941
  578POPI   PO4 9226  13.616   4.339   9.911 -0.2972  0.1716  0.1993
  578POPI   GL1 9227  13.982   4.290   9.610  0.1585  0.4615 -0.1345
  578POPI   GL2 9228  13.777   4.113   9.513  0.2374  0.2545 -0.2208
  578POPI   C1A 9229  14.213   4.341   9.352 -0.2149 -0.0968  0.0317
  578POPI   D2A 9230  14.240   4.342   8.967  0.0249 -0.0153 -0.1806
  578POPI   C3A 9231  14.219   4.166   8.555  0.0949  0.1810  0.2768
  578POPI   C4A 9232  14.229   4.197   8.184  0.2546 -0.1089  0.0768
  578POPI   C1B 9233  13.732   4.159   9.157 -0.1436  0.1479  0.0918
  578POPI   C2B 9234  13.682   4.186   8.766 -0.5469  0.0476  0.0726
  578POPI   C3B 9235  13.707   3.977   8.424  0.0133 -0.0108 -0.5199
  578POPI   C4B 9236  13.910   3.844   8.048  0.2792 -0.2870  0.0122
  579POPI    C1 9237   7.798  11.116  10.525  0.0786 -0.0297  0.0111
  579POPI    C2 9238   8.115  11.183  10.290  0.3012  0.1698  0.3591
  579POPI    C3 9239   8.107  10.863  10.530  0.1455  0.0544  0.2033
  579POPI   PO4 9240   7.692  11.318  10.495 -0.2042  0.1599  0.1634
  579POPI   GL1 9241   7.618  11.593  10.080  0.1644  0.4728 -0.0640
  579POPI   GL2 9242   7.854  11.805  10.239 -0.1217  0.2348  0.0127
  579POPI   C1A 9243   7.394  11.616   9.656  0.0870  0.1201  0.1605
  579POPI   D2A 9244   7.268  11.701   9.279  0.0248  0.1326 -0.1253
  579POPI   C3A 9245   7.339  11.676   8.885 -0.0146  0.0473 -0.1565
  579POPI   C4A 9246   7.373  11.792   8.470  0.5119 -0.0524 -0.1842
  579POPI   C1B 9247   7.937  11.847   9.720  0.0320  0.0782  0.0477
  579POPI   C2B 9248   7.859  11.833   9.325  0.0194 -0.2802 -0.1115
  579POPI   C3B 9249   7.774  11.848   8.858 -0.1225 -0.0137  0.3510
  579POPI   C4B 9250   7.809  11.914   8.339 -0.2606  0.0197  0.3177
  580POPI    C1 9251  11.622   3.267  10.413 -0.0961 -0.0021 -0.2168
  580POPI    C2 9252  11.411   3.031  10.658  0.2837 -0.1914 -0.0621
  580POPI    C3 9253  11.572   3.370  10.796  0.2059 -0.1212 -0.1421
  580POPI   PO4 9254  11.842   3.069  10.281 -0.0170  0.1283 -0.0779
  580POPI   GL1 9255  11.734   2.846   9.916 -0.1512  0.1354  0.0631
  580POPI   GL2 9256  11.997   2.622  10.018  0.0420 -0.0037 -0.3747
  580POPI   C1A 9257  11.659   2.878   9.476  0.1031 -0.2572 -0.4512
  580POPI   D2A 9258  11.680   2.753   9.083 -0.2745 -0.0193 -0.1326
  580POPI   C3A 9259  11.768   2.863   8.691  0.0307  0.1259 -0.0870
  580POPI   C4A 9260  11.663   2.739   8.261  0.0900  0.0229 -0.0808
  580POPI   C1B 9261  12.025   2.549   9.512  0.1511 -0.1033 -0.1582
  580POPI   C2B 9262  12.091   2.437   9.175  0.0615 -0.4016 -0.1219
  580POPI   C3B 9263  12.089   2.486   8.756  0.1690  0.3979  0.1441
  580POPI   C4B 9264  12.092   2.360   8.334  0.0072 -0.0255 -0.1964
  581POPI    C1 9265   5.824   5.340   9.919  0.2980 -0.2592  0.0218
  581POPI    C2 9266   5.838   5.179  10.285  0.0157 -0.0859  0.1121
  581POPI    C3 9267   5.941   5.561  10.232 -0.1698 -0.0430  0.0524
  581POPI   PO4 9268   5.633   5.241   9.857  0.1274  0.0835 -0.0665
  581POPI   GL1 9269   5.556   5.152   9.439  0.2235 -0.0838  0.0210
  581POPI   GL2 9270   5.702   5.574   9.457 -0.0298  0.1604  0.0081
  581POPI   C1A 9271   5.422   5.294   9.137 -0.0022  0.0314 -0.1025
  581POPI   D2A 9272   5.431   5.412   8.767 -0.3920  0.1453  0.0439
  581POPI   C3A 9273   5.196   5.566   8.561 -0.3174  0.0327  0.1554
  581POPI   C4A 9274   4.887   5.413   8.240 -0.1561  0.1988 -0.1658
  581POPI   C1B 9275   5.854   5.650   9.046 -0.1345 -0.2338 -0.0943
  581POPI   C2B 9276   5.783   5.691   8.585  0.1975  0.2594 -0.2165
  581POPI   C3B 9277   5.860   6.032   8.406 -0.2587 -0.1153 -0.0763
  581POPI   C4B 9278   6.056   6.044   8.036 -0.2416  0.1855  0.1427
  582POPI    C1 9279  10.981   6.748  10.269 -0.1524 -0.1629  0.1050
  582POPI    C2 9280  11.245   6.886  10.535 -0.2293 -0.2109  0.2069
  582POPI    C3 9281  10.866   7.014  10.545 -0.1169  0.1769 -0.2006
  582POPI   PO4 9282  11.047   6.758  10.061  0.1294  0.2946 -0.1335
  582POPI   GL1 9283  11.083   6.580   9.700  0.1685 -0.1073 -0.0265
  582POPI   GL2 9284  11.246   6.438   9.418  0.0654  0.0392 -0.2530
  582POPI   C1A 9285  10.711   6.701   9.410 -0.5001  0.0547 -0.0999
  582POPI   D2A 9286  10.532   6.937   9.055 -0.0863 -0.2739 -0.0038
  582POPI   C3A 9287  10.533   7.052   8.636  0.2664 -0.0015  0.1782
  582POPI   C4A 9288  10.799   7.256   8.448 -0.0833  0.1203 -0.0416
  582POPI   C1B 9289  11.552   6.576   9.100  0.1877  0.2702 -0.2274
  582POPI   C2B 9290  11.729   6.626   8.754  0.1311  0.0165 -0.0632
  582POPI   C3B 9291  11.754   6.814   8.417  0.1200  0.2113  0.1486
  582POPI   C4B 9292  11.821   6.865   7.884 -0.0716 -0.1886  0.0742
  583POPI    C1 9293   8.089   2.346  10.565 -0.1943  0.1600 -0.3206
  583POPI    C2 9294   7.707   2.449  10.508 -0.2769  0.0761  0.0520
  583POPI    C3 9295   7.823   2.300  10.860  0.0601 -0.0907 -0.1246
  583POPI   PO4 9296   8.215   2.510  10.453  0.1651 -0.1875  0.1132
  583POPI   GL1 9297   8.121   2.534  10.062  0.0813  0.0254  0.0249
  583POPI   GL2 9298   8.371   2.521   9.996 -0.1248  0.0478 -0.0193
  583POPI   C1A 9299   8.303   2.925   9.798  0.2009 -0.0870  0.3357
  583POPI   D2A 9300   8.198   3.068   9.335 -0.0300  0.0232  0.1425
  583POPI   C3A 9301   8.163   3.082   8.922  0.0406  0.2757  0.1431
  583POPI   C4A 9302   8.227   3.056   8.442  0.1083 -0.2149 -0.0168
  583POPI   C1B 9303   8.291   2.442   9.540 -0.1099  0.0939 -0.1612
  583POPI   C2B 9304   8.276   2.571   9.044 -0.0086 -0.0230  0.0253
  583POPI   C3B 9305   8.279   2.557   8.644 -0.0956  0.2360 -0.2471
  583POPI   C4B 9306   8.493   2.590   8.272 -0.1174 -0.0348  0.0105
  584POPI    C1 9307  12.548   7.788  10.315 -0.0638 -0.0888  0.2728
  584POPI    C2 9308  12.348   7.803  10.661 -0.3097  0.3430  0.1199
  584POPI    C3 9309  12.713   7.966  10.633 -0.0757 -0.1307  0.3024
  584POPI   PO4 9310  12.404   7.837  10.064  0.2210  0.2727  0.1669
  584POPI   GL1 9311  12.124   7.884   9.587 -0.0733 -0.0883 -0.0192
  584POPI   GL2 9312  12.162   8.173   9.407 -0.0958  0.1247  0.0388
  584POPI   C1A 9313  12.498   7.683   9.342  0.4281  0.0838 -0.1141
  584POPI   D2A 9314  12.604   7.657   8.914  0.3056 -0.0709  0.1083
  584POPI   C3A 9315  12.449   7.956   8.620 -0.4689 -0.2243 -0.1532
  584POPI   C4A 9316  12.286   7.910   8.195 -0.1426  0.1174 -0.0762
  584POPI   C1B 9317  12.144   8.043   9.035  0.2315 -0.0293  0.1881
  584POPI   C2B 9318  12.044   7.581   8.769  0.5014  0.0555  0.4022
  584POPI   C3B 9319  11.753   7.391   8.380  0.0866 -0.1027 -0.2498
  584POPI   C4B 9320  11.508   7.231   8.068 -0.0925 -0.1858  0.1800
  585POPI    C1 9321   9.240   6.208  10.439  0.0177 -0.0156 -0.1274
  585POPI    C2 9322   8.945   5.940  10.475 -0.0128  0.0281 -0.0508
  585POPI    C3 9323   9.296   5.875  10.654 -0.0660  0.1042  0.0825
  585POPI   PO4 9324   9.250   6.223  10.088 -0.0022 -0.5381 -0.3085
  585POPI   GL1 9325   9.574   6.112   9.792 -0.0923  0.0291 -0.0724
  585POPI   GL2 9326   9.695   6.442   9.813 -0.1055 -0.1859  0.3947
  585POPI   C1A 9327   9.584   5.723   9.482 -0.0131 -0.4176  0.0889
  585POPI   D2A 9328   9.767   5.641   9.057  0.1276  0.1700 -0.0812
  585POPI   C3A 9329   9.885   5.655   8.689 -0.0245  0.1339 -0.0280
  585POPI   C4A 9330  10.010   5.839   8.287 -0.4596  0.0874  0.1858
  585POPI   C1B 9331   9.457   6.494   9.512 -0.2349  0.2849  0.0890
  585POPI   C2B 9332   9.259   6.523   9.093  0.1404 -0.0191 -0.0400
  585POPI   C3B 9333   8.965   6.564   8.700  0.0532  0.0783  0.1163
  585POPI   C4B 9334   8.742   6.497   8.359  0.0299  0.1394  0.0049
  586POPI    C1 9335  15.804  17.520  10.949  0.0014 -0.2579 -0.0750
  586POPI    C2 9336  15.671  17.443  11.318 -0.0098  0.1425  0.0081
  586POPI    C3 9337  16.033  17.317  11.206 -0.1383 -0.2698  0.0415
  586POPI   PO4 9338  15.631  17.328  10.744  0.2715  0.1804 -0.1036
  586POPI   GL1 9339  15.475  17.470  10.391  0.0428 -0.0179  0.1917
  586POPI   GL2 9340  15.356  17.257  10.191 -0.2318  0.2593  0.1764
  586POPI   C1A 9341  15.546  17.714  10.024  0.1002  0.3514  0.1245
  586POPI   D2A 9342  15.607  17.636   9.630 -0.0882  0.1206 -0.1084
  586POPI   C3A 9343  15.652  17.567   9.277  0.1978  0.1184  0.1176
  586POPI   C4A 9344  15.553  17.666   8.878  0.2307 -0.1070 -0.1515
  586POPI   C1B 9345  15.381  17.055   9.852 -0.1837 -0.1287  0.3011
  586POPI   C2B 9346  15.557  17.044   9.358  0.1719  0.1627 -0.2494
  586POPI   C3B 9347  15.525  17.034   8.987  0.0416 -0.3307  0.1735
  586POPI   C4B 9348  15.593  17.019   8.492 -0.0478  0.2569  0.0939
  587POPI    C1 9349   6.747  16.091  10.965 -0.1660  0.0407 -0.4258
  587POPI    C2 9350   6.810  15.768  11.192  0.1510  0.3180 -0.1068
  587POPI    C3 9351   6.471  15.977  11.231  0.1024  0.2305 -0.0573
  587POPI   PO4 9352   6.881  15.952  10.742 -0.1693  0.0146  0.0198
  587POPI   GL1 9353   6.985  16.040  10.390 -0.3476  0.3758 -0.2505
  587POPI   GL2 9354   7.192  16.250  10.254  0.1670  0.1897 -0.1872
  587POPI   C1A 9355   6.774  16.012   9.974  0.1920  0.1370 -0.0377
  587POPI   D2A 9356   6.704  15.993   9.441 -0.4584 -0.2150  0.1028
  587POPI   C3A 9357   6.839  15.817   9.070 -0.2326  0.0312 -0.0151
  587POPI   C4A 9358   6.957  15.748   8.630  0.0475 -0.0135  0.0589
  587POPI   C1B 9359   7.229  16.082   9.829 -0.5682 -0.0765  0.0222
  587POPI   C2B 9360   7.228  16.111   9.359 -0.1464  0.1662  0.0634
  587POPI   C3B 9361   7.390  15.980   9.065 -0.2982 -0.1727  0.0134
  587POPI   C4B 9362   7.408  15.912   8.690  0.1319  0.1881  0.2156
  588DPPI    C1 9363   8.126   4.160  10.111 -0.2319 -0.1968  0.0408
  588DPPI    C2 9364   8.063   4.393  10.430 -0.0524  0.0024 -0.0666
  588DPPI    C3 9365   8.319   4.508  10.146  0.1253 -0.3792 -0.0678
  588DPPI   PO4 9366   8.165   3.815  10.172 -0.2829  0.0122  0.0015
  588DPPI   GL1 9367   8.332   3.770   9.832 -0.3096 -0.0677  0.1084
  588DPPI   GL2 9368   8.721   3.735   9.836  0.0040 -0.0750  0.0814
  588DPPI   C1A 9369   8.227   3.561   9.516 -0.0028  0.0724  0.1897
  588DPPI   C2A 9370   8.047   3.616   9.112  0.1483 -0.1340 -0.1880
  588DPPI   C3A 9371   8.072   3.572   8.637  0.2927  0.3119  0.2864
  588DPPI   C4A 9372   8.006   3.714   8.229 -0.0862 -0.3063  0.0834
  588DPPI   C1B 9373   8.718   3.482   9.550  0.0657 -0.1941 -0.0119
  588DPPI   C2B 9374   8.622   3.409   9.141 -0.2472 -0.0942  0.0487
  588DPPI   C3B 9375   8.556   3.449   8.753 -0.0447 -0.1012  0.1840
  588DPPI   C4B 9376   8.459   3.520   8.372 -0.0282  0.0523 -0.1444
  589DPPI    C1 9377  11.438   9.736  10.199  0.0335 -0.0162 -0.2300
  589DPPI    C2 9378  11.690  10.034  10.111  0.2476 -0.1114  0.0457
  589DPPI    C3 9379  11.527  10.012  10.475 -0.0648 -0.1217 -0.0914
  589DPPI   PO4 9380  11.200   9.820   9.993  0.0489  0.1261  0.3190
  589DPPI   GL1 9381  11.160   9.748   9.681  0.0520 -0.0788  0.0466
  589DPPI   GL2 9382  11.212   9.439   9.542 -0.0706 -0.1645  0.1552
  589DPPI   C1A 9383  11.187   9.772   9.197 -0.3071  0.4178 -0.1193
  589DPPI   C2A 9384  11.250  10.115   8.881  0.0716 -0.1921 -0.3008
  589DPPI   C3A 9385  11.544  10.243   8.635  0.0452  0.0283 -0.1958
  589DPPI   C4A 9386  11.902  10.093   8.303  0.1836 -0.0621 -0.0543
  589DPPI   C1B 9387  11.378   9.290   9.090  0.1211 -0.4725  0.2224
  589DPPI   C2B 9388  11.432   9.308   8.655  0.2124  0.3757  0.0800
  589DPPI   C3B 9389  11.355   9.481   8.228  0.0972  0.0162  0.1262
  589DPPI   C4B 9390  11.364   9.709   7.781 -0.1098 -0.0467  0.0049
  590DPPI    C1 9391  15.403  11.337  11.231 -0.1092 -0.1519  0.1051
  590DPPI    C2 9392  15.248  11.499  11.563 -0.0282  0.0143  0.0631
  590DPPI    C3 9393  15.606  11.321  11.575 -0.0641 -0.0571  0.0833
  590DPPI   PO4 9394  15.377  11.377  10.997  0.0406  0.0295 -0.2421
  590DPPI   GL1 9395  15.276  11.326  10.557  0.0181  0.2104 -0.0489
  590DPPI   GL2 9396  15.345  11.664  10.524 -0.0399  0.1603 -0.1138
  590DPPI   C1A 9397  15.172  11.208  10.169 -0.0897  0.1355 -0.1040
  590DPPI   C2A 9398  15.290  11.249   9.774  0.3133  0.0609 -0.0442
  590DPPI   C3A 9399  15.384  11.279   9.391  0.2157  0.0548  0.0364
  590DPPI   C4A 9400  15.236  11.289   8.962  0.1522  0.1317 -0.2902
  590DPPI   C1B 9401  15.324  11.688  10.112  0.2702 -0.2727  0.1980
  590DPPI   C2B 9402  15.485  11.731   9.670  0.0007 -0.1240  0.1071
  590DPPI   C3B 9403  15.396  11.710   9.189  0.1574 -0.3132 -0.1335
  590DPPI   C4B 9404  15.324  11.765   8.741  0.0859  0.1786 -0.1730
  591DPPI    C1 9405  10.027   6.069  10.131  0.2550  0.1120  0.0926
  591DPPI    C2 9406   9.721   6.286  10.269 -0.0252 -0.1913 -0.0373
  591DPPI    C3 9407  10.084   6.326  10.431 -0.1091  0.2427  0.0548
  591DPPI   PO4 9408   9.945   5.819  10.093 -0.0391  0.1145  0.3096
  591DPPI   GL1 9409  10.012   5.678   9.703  0.0117 -0.0196 -0.0787
  591DPPI   GL2 9410   9.930   5.387   9.500 -0.0711 -0.0888  0.0229
  591DPPI   C1A 9411  10.245   5.759   9.348 -0.2133  0.2997  0.1929
  591DPPI   C2A 9412  10.221   5.978   8.900  0.3017  0.1346 -0.2929
  591DPPI   C3A 9413  10.127   6.232   8.595  0.2789  0.1176 -0.0580
  591DPPI   C4A 9414  10.037   6.390   8.250  0.2365 -0.0384  0.2754
  591DPPI   C1B 9415  10.164   5.315   9.137 -0.1345 -0.2188 -0.1599
  591DPPI   C2B 9416  10.115   5.238   8.783 -0.2436 -0.0858  0.2317
  591DPPI   C3B 9417  10.179   5.339   8.386 -0.1128  0.0076 -0.1915
  591DPPI   C4B 9418  10.473   5.576   8.084 -0.3971 -0.0956  0.0536
  592DPPI    C1 9419   5.169  15.329  10.299 -0.1045 -0.2078  0.1733
  592DPPI    C2 9420   4.864  15.565  10.402  0.0070  0.1310 -0.2421
  592DPPI    C3 9421   5.223  15.618  10.571 -0.0633 -0.0054 -0.0462
  592DPPI   PO4 9422   5.104  15.133  10.318 -0.1597 -0.1084 -0.0725
  592DPPI   GL1 9423   5.013  14.825  10.071  0.0177 -0.1230  0.2619
  592DPPI   GL2 9424   4.971  14.616  10.024  0.3149  0.0702  0.4062
  592DPPI   C1A 9425   5.277  14.750   9.613 -0.2156 -0.0343  0.1016
  592DPPI   C2A 9426   5.256  14.769   9.140 -0.0100  0.0033  0.0374
  592DPPI   C3A 9427   5.167  14.899   8.700 -0.1823 -0.0937  0.2551
  592DPPI   C4A 9428   5.173  15.135   8.277 -0.0796  0.2206  0.0843
  592DPPI   C1B 9429   4.802  14.796   9.617 -0.2761 -0.2821 -0.3094
  592DPPI   C2B 9430   4.760  14.867   9.247  0.2058 -0.3323  0.1482
  592DPPI   C3B 9431   4.612  14.778   8.840 -0.2887 -0.0928 -0.0250
  592DPPI   C4B 9432   4.700  14.748   8.428  0.2295  0.0560  0.2167
  593DPPI    C1 9433  12.261  15.593  11.232  0.0092  0.0164 -0.0409
  593DPPI    C2 9434  12.100  15.945  11.333 -0.2633 -0.0249 -0.3174
  593DPPI    C3 9435  12.469  15.851  11.456 -0.2768  0.2590 -0.0488
  593DPPI   PO4 9436  12.094  15.499  10.962 -0.3033  0.0381  0.3153
  593DPPI   GL1 9437  12.177  15.576  10.562 -0.0578 -0.1464 -0.0056
  593DPPI   GL2 9438  11.908  15.586  10.410  0.0196 -0.3079 -0.1977
  593DPPI   C1A 9439  12.310  15.612  10.129 -0.1618  0.0870  0.0520
  593DPPI   C2A 9440  12.372  15.626   9.791  0.0820  0.1694  0.2726
  593DPPI   C3A 9441  12.452  15.516   9.435  0.4504  0.3049 -0.1989
  593DPPI   C4A 9442  12.322  15.592   9.087 -0.0901 -0.1452  0.1459
  593DPPI   C1B 9443  11.730  15.282  10.118  0.2510 -0.1193  0.2339
  593DPPI   C2B 9444  11.831  15.436   9.800  0.0511  0.3812 -0.2052
  593DPPI   C3B 9445  11.915  15.437   9.449  0.0168 -0.0156  0.0707
  593DPPI   C4B 9446  11.821  15.487   9.095 -0.0599  0.4004  0.1482
  594DPPI    C1 9447  17.848  17.490  10.967 -0.0514 -0.1672  0.0723
  594DPPI    C2 9448  17.797  17.877  11.053 -0.1435 -0.1515 -0.0502
  594DPPI    C3 9449  17.669  17.597  11.309 -0.0536 -0.1015  0.0507
  594DPPI   PO4 9450  17.650  17.550  10.720  0.2397  0.3213  0.2502
  594DPPI   GL1 9451  17.875  17.668  10.328 -0.0168  0.1040 -0.1470
  594DPPI   GL2 9452  17.693  17.431  10.109  0.1673 -0.0950 -0.3276
  594DPPI   C1A 9453  17.893  17.942   9.915  0.1239 -0.2963  0.4048
  594DPPI   C2A 9454  17.977  17.931   9.459  0.4204 -0.1963 -0.1150
  594DPPI   C3A 9455  17.944  17.966   9.026 -0.1743 -0.2283  0.2167
  594DPPI   C4A 9456  17.924  17.915   8.638 -0.0206 -0.1628  0.1187
  594DPPI   C1B 9457  17.818  17.460   9.724 -0.3507 -0.1045  0.1157
  594DPPI   C2B 9458  17.915  17.315   9.277  0.5064 -0.0793  0.1287
  594DPPI   C3B 9459  17.867  17.394   8.817  0.0890  0.2552  0.3556
  594DPPI   C4B 9460  17.966  17.425   8.519  0.2028  0.0610 -0.1403
  595DPPI    C1 9461   2.844   8.716  10.889 -0.1398  0.1654  0.2819
  595DPPI    C2 9462   3.225   8.765  11.001 -0.0447 -0.0855  0.0776
  595DPPI    C3 9463   3.027   8.434  11.107 -0.0483 -0.1849 -0.2293
  595DPPI   PO4 9464   2.881   8.691  10.582  0.2419  0.0230 -0.1163
  595DPPI   GL1 9465   2.663   8.868  10.305 -0.0587 -0.2129  0.1370
  595DPPI   GL2 9466   2.773   9.098  10.223  0.0224 -0.3078  0.1346
  595DPPI   C1A 9467   2.565   8.617   9.966 -0.0903  0.0888 -0.2756
  595DPPI   C2A 9468   2.590   8.650   9.459  0.0143  0.0619 -0.1954
  595DPPI   C3A 9469   2.529   8.778   9.042 -0.2260  0.1886 -0.0894
  595DPPI   C4A 9470   2.623   8.691   8.609  0.2492 -0.3496  0.0936
  595DPPI   C1B 9471   2.735   9.050   9.794  0.1146  0.1435  0.1014
  595DPPI   C2B 9472   2.614   9.183   9.396 -0.3508 -0.1447  0.1815
  595DPPI   C3B 9473   2.634   9.263   8.927 -0.4320  0.3270 -0.1075
  595DPPI   C4B 9474   2.619   9.199   8.492 -0.1564  0.2058  0.0610
  596DPPI    C1 9475  10.893   2.734  10.580  0.2382  0.0138  0.2717
  596DPPI    C2 9476  10.561   2.522  10.645  0.1152  0.0607 -0.1696
  596DPPI    C3 9477  10.588   2.897  10.782  0.0007  0.0454 -0.1031
  596DPPI   PO4 9478  10.910   2.786  10.350 -0.1705 -0.0375  0.1451
  596DPPI   GL1 9479  10.876   2.733   9.920 -0.3067 -0.2585 -0.5071
  596DPPI   GL2 9480  11.143   2.810   9.678 -0.0996 -0.2137 -0.0310
  596DPPI   C1A 9481  10.792   2.565   9.545  0.0730 -0.2319  0.2809
  596DPPI   C2A 9482  10.750   2.525   9.180  0.1295 -0.0189  0.0837
  596DPPI   C3A 9483  10.791   2.517   8.720 -0.3706 -0.0574  0.2057
  596DPPI   C4A 9484  10.715   2.537   8.210  0.2324  0.2881  0.3115
  596DPPI   C1B 9485  11.185   2.711   9.227  0.0702  0.2093 -0.0343
  596DPPI   C2B 9486  11.274   2.657   8.828 -0.2832 -0.0299 -0.0343
  596DPPI   C3B 9487  11.216   2.540   8.387  0.1040  0.0840 -0.0085
  596DPPI   C4B 9488  11.223   2.498   7.974 -0.1405  0.0906 -0.1558
  597PYPI    C1 9489  18.206   7.812  11.341 -0.2257 -0.3269  0.1301
  597PYPI    C2 9490  18.594   7.802  11.437 -0.1814  0.1010  0.0153
  597PYPI    C3 9491  18.317   7.798  11.725 -0.0945 -0.1785  0.0986
  597PYPI   PO4 9492  18.199   7.745  11.130 -0.0498  0.1362  0.2263
  597PYPI   GL1 9493  18.089   7.803  10.684 -0.3464 -0.1515 -0.3289
  597PYPI   GL2 9494  18.298   8.099  10.591  0.1616  0.0447 -0.0191
  597PYPI   C1A 9495  18.251   7.727  10.248  0.1377 -0.1884 -0.1145
  597PYPI   C2A 9496  18.343   7.768   9.971  0.3282 -0.1021 -0.1165
  597PYPI   D3A 9497  18.284   7.950   9.667  0.2700  0.0369  0.0456
  597PYPI   C4A 9498  18.313   7.802   9.298 -0.2415  0.1836 -0.0767
  597PYPI   C1B 9499  18.453   8.202  10.257 -0.0441 -0.4321 -0.1189
  597PYPI   C2B 9500  18.399   8.410   9.826  0.0265  0.3146 -0.2011
  597PYPI   C3B 9501  18.449   8.425   9.379  0.0670 -0.3390  0.0433
  597PYPI   C4B 9502  18.359   8.269   8.941  0.1811  0.4091  0.2341
  598PYPI    C1 9503  13.553  10.828  11.162  0.2286  0.1436  0.1307
  598PYPI    C2 9504  13.630  11.192  11.308  0.1081  0.1403  0.2042
  598PYPI    C3 9505  13.387  10.944  11.507 -0.2563  0.2258 -0.1209
  598PYPI   PO4 9506  13.497  10.827  10.943  0.2224  0.1834  0.0341
  598PYPI   GL1 9507  13.772  10.899  10.524 -0.0746 -0.2046 -0.2048
  598PYPI   GL2 9508  13.477  10.830  10.453 -0.3574  0.0195  0.0055
  598PYPI   C1A 9509  13.809  11.262  10.229 -0.0918  0.1596 -0.2374
  598PYPI   C2A 9510  13.856  11.254   9.779 -0.0745  0.1604 -0.4686
  598PYPI   D3A 9511  14.013  11.218   9.418  0.1007 -0.0733  0.0453
  598PYPI   C4A 9512  13.674  11.264   9.178 -0.1869 -0.1231 -0.4355
  598PYPI   C1B 9513  13.734  10.809   9.986 -0.2668 -0.2592  0.0947
  598PYPI   C2B 9514  13.805  10.722   9.572 -0.2236  0.1783 -0.1392
  598PYPI   C3B 9515  13.917  10.765   9.163  0.1252  0.1240  0.1190
  598PYPI   C4B 9516  13.823  10.745   8.681 -0.0245 -0.2618  0.1443
  599PYPI    C1 9517   2.384  12.466  10.796 -0.1712  0.1549  0.0099
  599PYPI    C2 9518   2.250  12.838  10.856 -0.1448  0.1561  0.0623
  599PYPI    C3 9519   2.517  12.679  11.108 -0.3657  0.0002  0.2017
  599PYPI   PO4 9520   2.169  12.359  10.782 -0.2160 -0.2501 -0.1492
  599PYPI   GL1 9521   1.934  12.338  10.480 -0.0765 -0.1011  0.0203
  599PYPI   GL2 9522   1.804  12.037  10.449 -0.0897 -0.0895  0.0305
  599PYPI   C1A 9523   2.013  12.698  10.191 -0.3315 -0.0821  0.0645
  599PYPI   C2A 9524   1.972  12.880   9.901 -0.2382  0.3157 -0.2611
  599PYPI   D3A 9525   1.977  12.961   9.550 -0.2129  0.2672  0.1564
  599PYPI   C4A 9526   1.906  12.870   9.097  0.2077  0.1970 -0.0101
  599PYPI   C1B 9527   1.859  12.281   9.990  0.2942  0.2771 -0.4281
  599PYPI   C2B 9528   1.848  12.433   9.589 -0.3639 -0.1927 -0.0777
  599PYPI   C3B 9529   1.889  12.335   9.172 -0.0986  0.1631 -0.0175
  599PYPI   C4B 9530   1.853  12.330   8.704  0.2991  0.4283 -0.0171
  600PYPI    C1 9531  17.086   1.435  10.948 -0.0582 -0.0115  0.0012
  600PYPI    C2 9532  16.938   1.064  10.965 -0.1359  0.0144 -0.1006
  600PYPI    C3 9533  16.897   1.310  11.278 -0.4739  0.0827 -0.1943
  600PYPI   PO4 9534  16.994   1.462  10.673  0.2590 -0.3731  0.2493
  600PYPI   GL1 9535  17.114   1.667  10.302 -0.0549 -0.3123 -0.0489
  600PYPI   GL2 9536  16.810   1.560  10.150  0.0340 -0.4474  0.0646
  600PYPI   C1A 9537  17.050   1.863   9.844  0.0196 -0.1756 -0.2609
  600PYPI   C2A 9538  16.946   1.831   9.382  0.0640 -0.4164 -0.1852
  600PYPI   D3A 9539  16.984   1.943   8.985 -0.1682  0.2141  0.2696
  600PYPI   C4A 9540  16.980   1.783   8.562 -0.1550  0.1107  0.0842
  600PYPI   C1B 9541  16.937   1.307   9.836  0.0694  0.1872  0.1337
  600PYPI   C2B 9542  16.888   1.298   9.336  0.0116  0.0318  0.0897
  600PYPI   C3B 9543  16.767   1.375   8.917  0.2904 -0.0076 -0.3344
  600PYPI   C4B 9544  16.838   1.265   8.479 -0.2194 -0.1708 -0.3280
  601PYPI    C1 9545   4.739  15.147  10.664 -0.1523 -0.0803  0.0153
  601PYPI    C2 9546   4.862  15.439  10.908 -0.1865  0.0485 -0.1198
  601PYPI    C3 9547   4.774  15.078  11.056 -0.0347  0.0730  0.0326
  601PYPI   PO4 9548   4.563  15.121  10.493  0.0228  0.1039 -0.2227
  601PYPI   GL1 9549   4.259  15.218  10.155  0.1296  0.1397  0.1126
  601PYPI   GL2 9550   4.373  15.557  10.153  0.1598 -0.1715  0.1275
  601PYPI   C1A 9551   4.305  15.114   9.751 -0.0930  0.3154 -0.1734
  601PYPI   C2A 9552   4.193  14.986   9.230 -0.2247 -0.0191 -0.0212
  601PYPI   D3A 9553   4.318  15.195   8.890  0.3171  0.3050 -0.1552
  601PYPI   C4A 9554   4.319  15.030   8.430 -0.0543  0.1231  0.0083
  601PYPI   C1B 9555   4.435  15.600   9.699  0.1463  0.1267  0.0182
  601PYPI   C2B 9556   4.548  15.418   9.378 -0.0825 -0.3068  0.2774
  601PYPI   C3B 9557   4.797  15.282   9.009 -0.2512  0.1856  0.1039
  601PYPI   C4B 9558   4.736  15.249   8.544 -0.0139 -0.1156 -0.1303
  602PYPI    C1 9559   7.718   3.493  10.442  0.0932  0.3465 -0.1936
  602PYPI    C2 9560   8.107   3.503  10.533  0.0039  0.0323  0.2497
  602PYPI    C3 9561   7.842   3.695  10.764 -0.0982  0.3380 -0.1129
  602PYPI   PO4 9562   7.690   3.302  10.371  0.3010 -0.0927  0.0121
  602PYPI   GL1 9563   7.554   3.173   9.979 -0.0991  0.0526  0.0853
  602PYPI   GL2 9564   7.568   2.788  10.027 -0.1030 -0.0295  0.0066
  602PYPI   C1A 9565   7.839   3.218   9.663  0.2931 -0.0022 -0.1591
  602PYPI   C2A 9566   7.749   3.227   9.275 -0.0097 -0.1799  0.0746
  602PYPI   D3A 9567   7.643   3.324   8.952 -0.0880  0.3122 -0.0924
  602PYPI   C4A 9568   7.758   3.131   8.604 -0.1516  0.0211 -0.2194
  602PYPI   C1B 9569   7.732   2.737   9.659 -0.0520  0.1343  0.0632
  602PYPI   C2B 9570   7.828   2.750   9.243 -0.0373  0.2629  0.1229
  602PYPI   C3B 9571   7.797   2.691   8.827 -0.0799  0.0443  0.0707
  602PYPI   C4B 9572   7.558   2.482   8.596  0.2411  0.2613  0.0684
  603ERGO   ROH 9573   6.666  14.712  10.250  0.2280 -0.3347 -0.1027
  603ERGO    R1 9574   6.549  14.704   9.992  0.2139 -0.2459 -0.0997
  603ERGO    R2 9575   6.513  14.931   9.837  0.0540 -0.1669  0.0462
  603ERGO    R3 9576   6.652  14.787   9.653  0.1366  0.0390 -0.0554
  603ERGO    R4 9577   6.505  14.985   9.496  0.0172  0.0546  0.0807
  603ERGO    R5 9578   6.504  14.769   9.467  0.1456  0.0742 -0.0638
  603ERGO    C1 9579   6.630  14.881   9.125  0.0733  0.3769  0.0055
  603ERGO    C2 9580   6.695  14.825   8.748  0.0591 -0.2605  0.1997
  604ERGO   ROH 9581  10.211   4.924   9.541  0.1516  0.1437  0.0335
  604ERGO    R1 9582  10.322   4.804   9.311  0.1045  0.2154 -0.0268
  604ERGO    R2 9583  10.181   4.627   9.153  0.1325  0.1238  0.0515
  604ERGO    R3 9584  10.250   4.799   8.954 -0.0867  0.1684  0.0115
  604ERGO    R4 9585  10.116   4.577   8.817  0.1650 -0.0226  0.0660
  604ERGO    R5 9586  10.314   4.657   8.772  0.0692  0.2051  0.0358
  604ERGO    C1 9587  10.143   4.710   8.435 -0.0219 -0.0660  0.0369
  604ERGO    C2 9588  10.086   4.595   8.106 -0.0771 -0.2069 -0.0003
  605ERGO   ROH 9589  12.820  15.383  10.335  0.2097 -0.1470 -0.2144
  605ERGO    R1 9590  12.864  15.264  10.083  0.0220 -0.1161 -0.2610
  605ERGO    R2 9591  12.657  15.180   9.920 -0.1010  0.1105 -0.2091
  605ERGO    R3 9592  12.780  15.338   9.736 -0.0259  0.0481 -0.2182
  605ERGO    R4 9593  12.687  15.106   9.583 -0.1527  0.0760 -0.2078
  605ERGO    R5 9594  12.890  15.185   9.589 -0.1046 -0.0210 -0.2158
  605ERGO    C1 9595  12.819  15.212   9.216 -0.1124 -0.0025 -0.2156
  605ERGO    C2 9596  12.713  15.179   8.880 -0.0218  0.0433  0.0921
  606ERGO   ROH 9597   9.731  11.710   7.784  0.2536 -0.0225  0.1304
  606ERGO    R1 9598   9.508  11.582   7.665  0.0983  0.1521  0.2277
  606ERGO    R2 9599   9.531  11.348   7.520 -0.0791  0.3807 -0.1833
  606ERGO    R3 9600   9.343  11.259   7.694  0.1657  0.0891 -0.0583
  606ERGO    R4 9601   9.343  11.061   7.478 -0.0521  0.3851 -0.3420
  606ERGO    R5 9602   9.170  11.169   7.555  0.0108  0.2378  0.0324
  606ERGO    C1 9603   9.056  10.810   7.617  0.1935  0.1140 -0.3170
  606ERGO    C2 9604   8.805  10.696   7.703  0.3128  0.1771 -0.0879
  607ERGO   ROH 9605  16.038  17.595  10.022  0.1181  0.0773  0.0272
  607ERGO    R1 9606  16.080  17.764   9.799 -0.0037  0.0918  0.0145
  607ERGO    R2 9607  16.260  17.703   9.598  0.0940  0.2402  0.0536
  607ERGO    R3 9608  16.043  17.738   9.438  0.0861  0.0107  0.0116
  607ERGO    R4 9609  16.268  17.705   9.252  0.1139  0.0156  0.0514
  607ERGO    R5 9610  16.125  17.869   9.255  0.0218 -0.0648 -0.0698
  607ERGO    C1 9611  16.069  17.739   8.901  0.1178 -0.3309  0.0106
  607ERGO    C2 9612  16.056  17.645   8.553  0.4031 -0.0393  0.0386
  608ERGO   ROH 9613  12.416  11.891  10.314  0.1726 -0.2438  0.0467
  608ERGO    R1 9614  12.525  11.705  10.130  0.2310 -0.0982 -0.0678
  608ERGO    R2 9615  12.387  11.619   9.906  0.1856 -0.1384 -0.0224
  608ERGO    R3 9616  12.611  11.702   9.777  0.0537  0.0835 -0.1151
  608ERGO    R4 9617  12.433  11.606   9.564  0.1972 -0.4546 -0.0119
  608ERGO    R5 9618  12.639  11.544   9.599  0.3078 -0.0812  0.0632
  608ERGO    C1 9619  12.671  11.676   9.243  0.0801 -0.4303 -0.0927
  608ERGO    C2 9620  12.632  11.757   8.850  0.1926 -0.3305  0.0715
  609ERGO   ROH 9621   8.976  15.730   6.644  0.1772  0.0674  0.0738
  609ERGO    R1 9622   8.735  15.693   6.787  0.1335  0.0827  0.0049
  609ERGO    R2 9623   8.632  15.443   6.843  0.1312  0.0878  0.0254
  609ERGO    R3 9624   8.634  15.535   7.099  0.0442  0.1425  0.0067
  609ERGO    R4 9625   8.385  15.381   7.077  0.0934  0.0664 -0.0203
  609ERGO    R5 9626   8.405  15.588   7.145  0.0180  0.0865 -0.0588
  609ERGO    C1 9627   8.243  15.432   7.453 -0.0103  0.1053 -0.0644
  609ERGO    C2 9628   8.043  15.113   7.688  0.0239  0.2539  0.1867
  610ERGO   ROH 9629  11.308  10.647   9.695  0.0492  0.1273 -0.1616
  610ERGO    R1 9630  11.361  10.782   9.452  0.0538  0.0744 -0.1901
  610ERGO    R2 9631  11.553  10.696   9.272  0.0925  0.0634 -0.1447
  610ERGO    R3 9632  11.345  10.703   9.097  0.1119 -0.0208 -0.1717
  610ERGO    R4 9633  11.584  10.694   8.928  0.1275 -0.1229 -0.1418
  610ERGO    R5 9634  11.423  10.841   8.918  0.1363 -0.1214 -0.2378
  610ERGO    C1 9635  11.407  10.700   8.563  0.1661 -0.3106 -0.1654
  610ERGO    C2 9636  11.262  10.502   8.346 -0.3330  0.0314  0.0423
  611ERGO   ROH 9637   2.815   8.281  10.252 -0.5372 -0.0124 -0.1975
  611ERGO    R1 9638   2.958   8.242  10.010 -0.2532  0.0910 -0.0522
  611ERGO    R2 9639   2.853   8.100   9.797  0.0816 -0.0096 -0.1589
  611ERGO    R3 9640   2.911   8.327   9.659  0.0354  0.0332 -0.1065
  611ERGO    R4 9641   2.846   8.130   9.453  0.1608  0.0503 -0.1551
  611ERGO    R5 9642   3.026   8.251   9.464  0.1117  0.1114 -0.0889
  611ERGO    C1 9643   2.896   8.361   9.123  0.1636  0.1251 -0.1035
  611ERGO    C2 9644   2.965   8.359   8.795 -0.1447 -0.2037 -0.3030
  612ERGO   ROH 9645   1.687   0.516   9.919 -0.4542  0.0102 -0.0368
  612ERGO    R1 9646   1.677   0.399   9.661 -0.3411 -0.0667 -0.0064
  612ERGO    R2 9647   1.479   0.459   9.478 -0.1977 -0.0379 -0.1500
  612ERGO    R3 9648   1.690   0.516   9.317 -0.0705 -0.1827 -0.0389
  612ERGO    R4 9649   1.504   0.366   9.146 -0.1512  0.0540 -0.1729
  612ERGO    R5 9650   1.715   0.320   9.180 -0.2040 -0.1631 -0.0970
  612ERGO    C1 9651   1.717   0.366   8.801 -0.0047 -0.0284 -0.0818
  612ERGO    C2 9652   1.797   0.298   8.350  0.3463 -0.0705  0.1893
  613ERGO   ROH 9653   6.249  15.024   6.241  0.5593 -0.2707  0.0140
  613ERGO    R1 9654   6.277  14.971   6.518  0.3736  0.0461  0.0968
  613ERGO    R2 9655   6.220  15.160   6.712 -0.2969  0.0980 -0.1330
  613ERGO    R3 9656   6.059  14.964   6.809  0.0490 -0.2046 -0.1429
  613ERGO    R4 9657   6.199  15.070   7.045 -0.3515  0.2672 -0.0888
  613ERGO    R5 9658   6.189  14.861   6.982  0.1569  0.1884  0.0273
  613ERGO    C1 9659   6.036  14.834   7.331 -0.0585  0.0817 -0.0724
  613ERGO    C2 9660   5.919  14.669   7.617  0.0551  0.2141  0.0278
  614ERGO   ROH 9661   0.436   3.429  10.045  0.0732 -0.0413 -0.0238
  614ERGO    R1 9662   0.425   3.600   9.820 -0.0099  0.0220  0.0261
  614ERGO    R2 9663   0.648   3.657   9.666 -0.0436  0.1426  0.0138
  614ERGO    R3 9664   0.490   3.570   9.463 -0.0397  0.1454  0.0112
  614ERGO    R4 9665   0.662   3.773   9.341 -0.0011  0.0996  0.0011
  614ERGO    R5 9666   0.444   3.767   9.334  0.0020  0.1338 -0.0163
  614ERGO    C1 9667   0.522   3.759   8.960  0.0272  0.0771 -0.0086
  614ERGO    C2 9668   0.429   3.890   8.628  0.3354 -0.2194 -0.1221
  615ERGO   ROH 9669  16.177  13.748  10.277  0.0254 -0.2872 -0.0072
  615ERGO    R1 9670  16.205  13.865  10.021 -0.0888 -0.1695  0.0321
  615ERGO    R2 9671  16.452  13.908   9.903 -0.1296  0.0494  0.0141
  615ERGO    R3 9672  16.343  13.765   9.699 -0.0576  0.0463 -0.0216
  615ERGO    R4 9673  16.449  14.007   9.572 -0.0818  0.0703  0.0203
  615ERGO    R5 9674  16.246  13.931   9.556 -0.0592  0.0336 -0.0297
  615ERGO    C1 9675  16.345  13.931   9.188  0.0136  0.0796 -0.0096
  615ERGO    C2 9676  16.332  13.952   8.908  0.4123 -0.1829  0.0302
  616ERGO   ROH 9677   4.430  12.931  10.250  0.0682 -0.1722 -0.1458
  616ERGO    R1 9678   4.317  12.990   9.998 -0.0179 -0.0876 -0.0879
  616ERGO    R2 9679   4.360  13.229   9.867 -0.0135 -0.0677 -0.0500
  616ERGO    R3 9680   4.439  13.067   9.664 -0.1312 -0.0401 -0.1191
  616ERGO    R4 9681   4.341  13.308   9.531 -0.0334  0.0543 -0.0207
  616ERGO    R5 9682   4.278  13.104   9.492 -0.1435  0.0989 -0.0787
  616ERGO    C1 9683   4.403  13.202   9.145 -0.1555  0.1512 -0.0685
  616ERGO    C2 9684   4.331  13.233   8.763  0.2392 -0.2095 -0.1953
  617ERGO   ROH 9685  11.302  15.567  10.403  0.2802 -0.1166  0.0689
  617ERGO    R1 9686  11.310  15.743  10.181 -0.0489 -0.1581  0.0216
  617ERGO    R2 9687  11.544  15.803  10.046 -0.1624  0.2269 -0.0050
  617ERGO    R3 9688  11.402  15.720   9.829 -0.0291 -0.0843  0.0202
  617ERGO    R4 9689  11.635  15.856   9.717 -0.1165  0.0515 -0.0226
  617ERGO    R5 9690  11.426  15.896   9.670 -0.1506 -0.1808 -0.1149
  617ERGO    C1 9691  11.554  15.809   9.322  0.0354 -0.3427 -0.0092
  617ERGO    C2 9692  11.444  15.794   9.066  0.0212  0.1350 -0.0062
  618ERGO   ROH 9693  17.729  13.841  10.286 -0.0080  0.3401  0.0057
  618ERGO    R1 9694  17.776  13.979  10.044  0.1968  0.1988 -0.0392
  618ERGO    R2 9695  17.911  13.865   9.831  0.0126 -0.0801 -0.0206
  618ERGO    R3 9696  17.688  13.936   9.694  0.1066  0.2287 -0.0187
  618ERGO    R4 9697  17.878  13.850   9.488 -0.1070 -0.3035 -0.0000
  618ERGO    R5 9698  17.771  14.040   9.495  0.2524 -0.0923 -0.1276
  618ERGO    C1 9699  17.650  13.908   9.158 -0.0883 -0.1434  0.0135
  618ERGO    C2 9700  17.681  13.961   8.839 -0.1310  0.0937  0.0841
  619ERGO   ROH 9701  15.885  12.322   6.799 -0.1762  0.2358  0.0529
  619ERGO    R1 9702  15.921  12.485   7.028 -0.0031  0.1156  0.1151
  619ERGO    R2 9703  16.015  12.385   7.268 -0.0080 -0.0550  0.0585
  619ERGO    R3 9704  16.199  12.583   7.241  0.1238 -0.1753  0.0833
  619ERGO    R4 9705  16.220  12.501   7.522 -0.0526 -0.0857  0.1070
  619ERGO    R5 9706  16.189  12.703   7.448  0.1060 -0.0993  0.0297
  619ERGO    C1 9707  16.512  12.753   7.644  0.0450 -0.2165  0.1586
  619ERGO    C2 9708  16.704  12.731   7.843 -0.1371  0.1640  0.1156
  620ERGO   ROH 9709   9.077   7.577   9.577 -0.1857 -0.0731 -0.0647
  620ERGO    R1 9710   9.102   7.585   9.295 -0.0735 -0.0012 -0.0537
  620ERGO    R2 9711   8.885   7.553   9.126 -0.0063  0.0371 -0.1490
  620ERGO    R3 9712   8.971   7.791   9.025  0.0298  0.0647 -0.0540
  620ERGO    R4 9713   8.766   7.699   8.836  0.2253  0.0266 -0.2512
  620ERGO    R5 9714   8.970   7.758   8.788  0.2573  0.0801 -0.0584
  620ERGO    C1 9715   8.777   8.007   8.572  0.3940  0.0464 -0.2216
  620ERGO    C2 9716   8.523   8.172   8.360  0.3223  0.0532  0.0118
  621ERGO   ROH 9717   0.619   7.114  10.435  0.0583  0.1399  0.0897
  621ERGO    R1 9718   0.462   7.242  10.237 -0.0019 -0.0525  0.0124
  621ERGO    R2 9719   0.558   7.449  10.081 -0.1860  0.0833  0.0806
  621ERGO    R3 9720   0.479   7.289   9.877  0.1331 -0.0092  0.0231
  621ERGO    R4 9721   0.539   7.546   9.750  0.0115  0.0382  0.0544
  621ERGO    R5 9722   0.354   7.433   9.733  0.1237 -0.1325 -0.0965
  621ERGO    C1 9723   0.454   7.451   9.365  0.4261 -0.0749 -0.0148
  621ERGO    C2 9724   0.435   7.585   9.053 -0.2026  0.2599  0.2020
  622ERGO   ROH 9725  11.713   3.516   6.461 -0.2285  0.1667  0.0541
  622ERGO    R1 9726  11.971   3.570   6.565 -0.1382  0.0576 -0.1107
  622ERGO    R2 9727  12.071   3.826   6.586 -0.1378  0.0345  0.0954
  622ERGO    R3 9728  12.109   3.756   6.846  0.1073 -0.2603 -0.0122
  622ERGO    R4 9729  12.299   3.975   6.800 -0.2583  0.1256  0.1623
  622ERGO    R5 9730  12.345   3.778   6.880  0.1039  0.0755 -0.1214
  622ERGO    C1 9731  12.466   3.996   7.169 -0.0983 -0.0982  0.1003
  622ERGO    C2 9732  12.641   4.039   7.403 -0.0216  0.1714 -0.2611
  623ERGO   ROH 9733   9.377  15.596   6.474  0.0696 -0.1267  0.0160
  623ERGO    R1 9734   9.438  15.456   6.712  0.1212 -0.1184  0.0082
  623ERGO    R2 9735   9.688  15.464   6.830  0.0945  0.0401  0.0598
  623ERGO    R3 9736   9.547  15.541   7.049 -0.0047 -0.0887  0.0415
  623ERGO    R4 9737   9.775  15.391   7.156  0.1205  0.1228  0.0711
  623ERGO    R5 9738   9.564  15.355   7.199  0.1480 -0.0717  0.0447
  623ERGO    C1 9739   9.693  15.421   7.552  0.0424  0.0501  0.0605
  623ERGO    C2 9740   9.729  15.330   7.832 -0.1528  0.1453 -0.0029
  624ERGO   ROH 9741  17.662   8.501   6.702 -0.1825  0.3472  0.1800
  624ERGO    R1 9742  17.629   8.274   6.868 -0.0872  0.1598 -0.0490
  624ERGO    R2 9743  17.568   8.294   7.137  0.2647 -0.1315  0.0665
  624ERGO    R3 9744  17.362   8.131   7.069  0.0904  0.0642  0.1190
  624ERGO    R4 9745  17.419   8.066   7.349  0.0732  0.0245  0.1016
  624ERGO    R5 9746  17.408   7.925   7.182 -0.0965  0.0257  0.1187
  624ERGO    C1 9747  17.138   7.779   7.408 -0.2022  0.2991  0.1714
  624ERGO    C2 9748  17.139   7.468   7.483  0.2053  0.4346 -0.1392
  625ERGO   ROH 9749   7.448   9.295   9.789  0.0812  0.1223 -0.1810
  625ERGO    R1 9750   7.244   9.266   9.595  0.1529 -0.1492 -0.2181
  625ERGO    R2 9751   7.084   9.477   9.515 -0.2465 -0.4074 -0.0907
  625ERGO    R3 9752   7.170   9.406   9.267 -0.0899 -0.0784 -0.1391
  625ERGO    R4 9753   6.955   9.599   9.219 -0.4743 -0.4259 -0.0029
  625ERGO    R5 9754   6.971   9.398   9.135 -0.0896 -0.3596 -0.1469
  625ERGO    C1 9755   6.960   9.602   8.813 -0.4600 -0.1277  0.0027
  625ERGO    C2 9756   6.927   9.627   8.392  0.2333  0.1090  0.2127
  626ERGO   ROH 9757  16.436  11.034   7.100  0.0771 -0.0229 -0.2258
  626ERGO    R1 9758  16.541  11.036   7.363  0.0906  0.0276 -0.2325
  626ERGO    R2 9759  16.741  11.209   7.442 -0.0037  0.1354 -0.2404
  626ERGO    R3 9760  16.563  11.274   7.637 -0.0266  0.0309 -0.2245
  626ERGO    R4 9761  16.826  11.317   7.760 -0.0363  0.1418 -0.2328
  626ERGO    R5 9762  16.664  11.194   7.839  0.0227  0.0549 -0.2373
  626ERGO    C1 9763  16.709  11.440   8.127 -0.0767  0.0473 -0.2134
  626ERGO    C2 9764  16.806  11.701   8.322 -0.2375 -0.0116 -0.1068
  627ERGO   ROH 9765   8.403  10.046   9.541  0.0412 -0.0169  0.2220
  627ERGO    R1 9766   8.501  10.050   9.276  0.0005  0.2745  0.2089
  627ERGO    R2 9767   8.442   9.851   9.092  0.4745  0.1432  0.1901
  627ERGO    R3 9768   8.358  10.061   8.941 -0.0828 -0.0335  0.2304
  627ERGO    R4 9769   8.432   9.855   8.747  0.3385  0.1425  0.1923
  627ERGO    R5 9770   8.504  10.060   8.752 -0.1415  0.3249  0.1750
  627ERGO    C1 9771   8.348  10.053   8.404 -0.2640 -0.0238  0.2314
  627ERGO    C2 9772   8.356   9.995   8.105  0.1163  0.2379  0.1857
  628ERGO   ROH 9773   2.675   7.483  10.170  0.0982 -0.1499  0.0659
  628ERGO    R1 9774   2.487   7.530   9.964  0.0970 -0.2003  0.0555
  628ERGO    R2 9775   2.500   7.749   9.796 -0.0658 -0.0885  0.1834
  628ERGO    R3 9776   2.494   7.560   9.602  0.1447  0.0145  0.0738
  628ERGO    R4 9777   2.418   7.808   9.466  0.0193  0.0310  0.1825
  628ERGO    R5 9778   2.307   7.620   9.465  0.1547 -0.0474  0.0355
  628ERGO    C1 9779   2.364   7.664   9.091  0.2664  0.1971  0.0790
  628ERGO    C2 9780   2.356   7.648   8.840  0.0463  0.0621 -0.2021
  629ERGO   ROH 9781   1.159   2.191  10.003  0.0280 -0.0257 -0.1947
  629ERGO    R1 9782   1.162   2.307   9.744 -0.0484 -0.0594 -0.2102
  629ERGO    R2 9783   1.335   2.222   9.546  0.0047  0.0273 -0.1954
  629ERGO    R3 9784   1.106   2.193   9.403  0.0254 -0.1419 -0.1966
  629ERGO    R4 9785   1.318   2.209   9.201  0.0086  0.2016 -0.2036
  629ERGO    R5 9786   1.138   2.332   9.211 -0.1296  0.0058 -0.1230
  629ERGO    C1 9787   1.093   2.174   8.866  0.0303  0.1443 -0.2094
  629ERGO    C2 9788   1.011   2.129   8.590  0.0003 -0.0857  0.1231
  630ERGO   ROH 9789   9.557   0.687   6.390  0.0608  0.3577 -0.0258
  630ERGO    R1 9790   9.464   0.650   6.654  0.0306  0.1089 -0.0703
  630ERGO    R2 9791   9.580   0.470   6.829  0.2223  0.1886 -0.1228
  630ERGO    R3 9792   9.598   0.689   6.990 -0.1252  0.1401 -0.0086
  630ERGO    R4 9793   9.683   0.465   7.159  0.1462  0.1545 -0.0991
  630ERGO    R5 9794   9.527   0.611   7.205 -0.0777 -0.0773 -0.0634
  630ERGO    C1 9795   9.759   0.667   7.502 -0.2244  0.0891  0.0220
  630ERGO    C2 9796   9.997   0.666   7.580  0.0658 -0.3248  0.2248
  631ERGO   ROH 9797  17.013  17.505   9.964  0.3477 -0.0396  0.0138
  631ERGO    R1 9798  16.899  17.563   9.712  0.2014  0.0924  0.1103
  631ERGO    R2 9799  17.034  17.704   9.516  0.1594  0.0213  0.0403
  631ERGO    R3 9800  16.973  17.487   9.364 -0.1223  0.0989  0.0342
  631ERGO    R4 9801  17.037  17.699   9.171  0.3200 -0.0012  0.0404
  631ERGO    R5 9802  16.855  17.578   9.176  0.1088  0.2869 -0.0326
  631ERGO    C1 9803  16.982  17.492   8.826  0.1488  0.0583  0.0348
  631ERGO    C2 9804  17.003  17.392   8.574 -0.0156 -0.0805 -0.3763
  632ERGO   ROH 9805   1.651  14.511  10.554  0.1764  0.1481 -0.0604
  632ERGO    R1 9806   1.805  14.410  10.339  0.0699  0.1183 -0.1219
  632ERGO    R2 9807   1.707  14.221  10.162 -0.0316  0.1301 -0.0701
  632ERGO    R3 9808   1.780  14.405   9.976 -0.0813  0.1071 -0.1141
  632ERGO    R4 9809   1.737  14.159   9.823  0.2263 -0.0221 -0.0233
  632ERGO    R5 9810   1.916  14.283   9.821  0.1255  0.1404  0.0280
  632ERGO    C1 9811   1.822  14.296   9.451  0.3298 -0.1323 -0.0374
  632ERGO    C2 9812   1.854  14.347   9.018 -0.2636 -0.0685  0.0118
  633ERGO   ROH 9813   5.140  16.350   9.954  0.3646  0.1137 -0.0656
  633ERGO    R1 9814   5.065  16.244   9.703  0.2415 -0.0184  0.0250
  633ERGO    R2 9815   4.891  16.375   9.532  0.1077 -0.1378  0.0660
  633ERGO    R3 9816   5.095  16.344   9.354  0.0114 -0.1673 -0.0395
  633ERGO    R4 9817   4.853  16.359   9.189 -0.0893 -0.2877  0.0930
  633ERGO    R5 9818   5.004  16.202   9.184 -0.0583 -0.2575  0.0711
  633ERGO    C1 9819   5.022  16.322   8.822 -0.2944 -0.4028  0.0097
  633ERGO    C2 9820   4.819  16.403   8.598 -0.2937  0.1674  0.1907
  634PSPI    C1 9821   3.245  14.189   6.108 -0.0176  0.0114 -0.2215
  634PSPI    C2 9822   3.329  14.096   5.728 -0.1026 -0.0460 -0.2265
  634PSPI    C3 9823   3.041  14.361   5.810  0.0775  0.1471 -0.2091
  634PSPI   PO4 9824   3.446  14.194   6.247 -0.0315 -0.1955 -0.0937
  634PSPI   GL1 9825   3.624  14.282   6.596 -0.1114 -0.0682  0.2442
  634PSPI   GL2 9826   3.496  14.615   6.695  0.0684 -0.3081  0.2665
  634PSPI   C1A 9827   3.298  14.354   7.016  0.1797  0.1193  0.0096
  634PSPI   C2A 9828   3.167  14.738   7.305  0.0403  0.1635  0.0660
  634PSPI   C3A 9829   3.061  14.721   7.752  0.1384 -0.0026 -0.0474
  634PSPI   C4A 9830   3.423  14.606   7.982  0.0382  0.0348  0.0600
  634PSPI   C1B 9831   3.632  14.640   7.126 -0.0240 -0.1812 -0.0266
  634PSPI   C2B 9832   3.622  14.777   7.601  0.0291  0.1340 -0.3633
  634PSPI   C3B 9833   3.912  14.881   7.879 -0.0175  0.2329 -0.4145
  634PSPI   C4B 9834   4.218  15.117   7.691  0.2933  0.0533 -0.0851
  635PSPI    C1 9835   3.810   5.937   5.530  0.1896 -0.1139 -0.2189
  635PSPI    C2 9836   3.939   5.763   5.866  0.0782  0.0528 -0.0878
  635PSPI    C3 9837   3.894   5.546   5.533 -0.0149 -0.1587  0.0601
  635PSPI   PO4 9838   3.559   6.165   5.611 -0.1718  0.1062  0.1379
  635PSPI   GL1 9839   3.295   6.127   5.923 -0.2686 -0.0385 -0.0299
  635PSPI   GL2 9840   3.056   6.001   5.973 -0.0592 -0.3646 -0.0661
  635PSPI   C1A 9841   3.450   5.958   6.280  0.1047  0.1501  0.0775
  635PSPI   C2A 9842   3.417   6.044   6.619 -0.0927  0.1285  0.0448
  635PSPI   C3A 9843   3.465   5.967   7.091 -0.2014 -0.0481 -0.1915
  635PSPI   C4A 9844   3.901   5.869   7.336  0.0737 -0.1826  0.2299
  635PSPI   C1B 9845   2.951   5.605   6.191 -0.1356 -0.1572  0.2778
  635PSPI   C2B 9846   2.923   5.208   6.381  0.1398  0.0659  0.0256
  635PSPI   C3B 9847   3.245   4.987   6.572 -0.1513  0.1659 -0.2810
  635PSPI   C4B 9848   3.624   5.016   6.564  0.3276 -0.2830  0.0286
  636PSPI    C1 9849  15.726  16.475   5.539 -0.3296  0.0547 -0.0199
  636PSPI    C2 9850  15.598  16.837   5.429 -0.0271  0.1516 -0.0614
  636PSPI    C3 9851  15.807  16.612   5.172 -0.2470 -0.0703 -0.0491
  636PSPI   PO4 9852  15.574  16.460   5.782  0.0205  0.2140  0.0137
  636PSPI   GL1 9853  15.329  16.331   6.219  0.2268  0.1835  0.1198
  636PSPI   GL2 9854  15.349  16.016   6.120  0.0363 -0.2032 -0.0049
  636PSPI   C1A 9855  15.528  16.558   6.498 -0.1226 -0.0314 -0.2210
  636PSPI   C2A 9856  15.622  16.970   6.630 -0.0060 -0.0747  0.0308
  636PSPI   C3A 9857  15.693  17.249   6.983  0.0358 -0.0324 -0.4020
  636PSPI   C4A 9858  15.669  17.309   7.520 -0.1837  0.0785  0.1419
  636PSPI   C1B 9859  15.324  15.962   6.573  0.0125 -0.0233  0.1447
  636PSPI   C2B 9860  15.621  16.168   6.808  0.0637 -0.1875 -0.1063
  636PSPI   C3B 9861  15.813  16.446   6.937 -0.0483  0.2855 -0.1052
  636PSPI   C4B 9862  15.817  16.825   7.312 -0.2532  0.0244  0.0819
  637PSPI    C1 9863   5.688  12.057   5.561 -0.1451  0.0496  0.1440
  637PSPI    C2 9864   5.477  11.926   5.246 -0.2167  0.1336  0.1567
  637PSPI    C3 9865   5.877  11.912   5.239 -0.2120  0.3049 -0.0133
  637PSPI   PO4 9866   5.557  12.068   5.919  0.3043 -0.3303  0.1059
  637PSPI   GL1 9867   5.721  11.997   6.269 -0.1562  0.1580  0.0888
  637PSPI   GL2 9868   5.671  11.797   6.539  0.1154 -0.2086 -0.1833
  637PSPI   C1A 9869   5.531  12.424   6.494  0.0724 -0.2863 -0.3144
  637PSPI   C2A 9870   5.163  12.484   6.679  0.3006 -0.1670  0.2893
  637PSPI   C3A 9871   5.055  12.552   7.047  0.1193 -0.0156  0.0538
  637PSPI   C4A 9872   5.016  12.195   7.322  0.0023 -0.0729  0.0532
  637PSPI   C1B 9873   5.941  12.054   6.744  0.2766  0.0875  0.3105
  637PSPI   C2B 9874   6.074  12.086   7.180 -0.0501  0.2181  0.1687
  637PSPI   C3B 9875   6.092  12.378   7.646 -0.3409  0.0510 -0.0644
  637PSPI   C4B 9876   6.278  12.729   7.874  0.0320 -0.2651 -0.1839
  638PSPI    C1 9877  12.403   5.155   5.533 -0.1364 -0.2120  0.2306
  638PSPI    C2 9878  12.138   5.261   5.813 -0.2215  0.1858  0.0068
  638PSPI    C3 9879  12.011   5.132   5.456 -0.1144 -0.3881  0.1663
  638PSPI   PO4 9880  12.635   5.096   5.627  0.3069 -0.1028 -0.3011
  638PSPI   GL1 9881  12.829   5.202   6.119 -0.1427 -0.3668 -0.1193
  638PSPI   GL2 9882  12.529   5.035   6.199  0.1397  0.0429 -0.0836
  638PSPI   C1A 9883  13.116   5.168   6.517 -0.0778  0.2034 -0.0734
  638PSPI   C2A 9884  12.899   5.065   6.921  0.0167  0.0409 -0.0531
  638PSPI   C3A 9885  12.638   5.004   7.312 -0.0532 -0.0248  0.0105
  638PSPI   C4A 9886  12.392   4.992   7.668  0.2212  0.2720 -0.0993
  638PSPI   C1B 9887  12.554   5.295   6.602  0.0946  0.1662  0.2668
  638PSPI   C2B 9888  12.414   5.341   7.023  0.1300  0.0078 -0.1844
  638PSPI   C3B 9889  12.059   5.419   7.294 -0.3870  0.1341  0.0262
  638PSPI   C4B 9890  11.906   5.647   7.689  0.3326 -0.3064  0.2194
  639PSPI    C1 9891   6.750   9.011   5.655  0.0467  0.1125  0.3248
  639PSPI    C2 9892   6.435   8.771   5.602  0.0356  0.1542  0.1986
  639PSPI    C3 9893   6.791   8.672   5.448  0.0318  0.2166  0.1494
  639PSPI   PO4 9894   6.793   9.072   5.958 -0.1877  0.1521  0.1103
  639PSPI   GL1 9895   6.603   9.205   6.357 -0.0029 -0.0681  0.1703
  639PSPI   GL2 9896   6.254   9.329   6.388  0.1349 -0.0464 -0.4557
  639PSPI   C1A 9897   6.810   9.085   6.765  0.1777  0.0251  0.0332
  639PSPI   C2A 9898   6.687   8.989   7.182  0.0142  0.0558  0.2506
  639PSPI   C3A 9899   6.454   8.672   7.481 -0.2058  0.1223  0.0096
  639PSPI   C4A 9900   6.478   8.304   7.756  0.0901  0.0244  0.3106
  639PSPI   C1B 9901   6.307   9.223   6.739 -0.0926 -0.0881  0.1959
  639PSPI   C2B 9902   6.206   9.206   7.093 -0.2495 -0.1576  0.2486
  639PSPI   C3B 9903   6.130   9.074   7.456 -0.2744  0.0061 -0.0086
  639PSPI   C4B 9904   5.749   9.050   7.691  0.2181 -0.2060 -0.1313
  640PSPI    C1 9905   0.109   8.590   6.229 -0.1946  0.1099 -0.0254
  640PSPI    C2 9906   0.187   8.336   5.930 -0.0995 -0.0744  0.1540
  640PSPI    C3 9907  -0.185   8.473   5.985 -0.1226 -0.0615 -0.0310
  640PSPI   PO4 9908   0.201   8.503   6.444 -0.1671 -0.4458  0.3536
  640PSPI   GL1 9909   0.313   8.160   6.732 -0.0379 -0.1292  0.3541
  640PSPI   GL2 9910  -0.066   8.260   6.795  0.1706  0.2129 -0.1732
  640PSPI   C1A 9911   0.249   8.476   7.119  0.1356 -0.1206  0.1967
  640PSPI   C2A 9912  -0.046   8.581   7.458 -0.0447 -0.3393  0.1075
  640PSPI   C3A 9913  -0.047   8.533   7.891 -0.1987  0.3324 -0.2775
  640PSPI   C4A 9914  -0.050   8.516   8.315 -0.1788  0.2131 -0.2139
  640PSPI   C1B 9915  -0.214   8.097   7.215 -0.1993 -0.4804 -0.0735
  640PSPI   C2B 9916  -0.371   8.174   7.642 -0.1877 -0.3464 -0.2476
  640PSPI   C3B 9917  -0.098   8.047   7.996  0.2144  0.0978 -0.0729
  640PSPI   C4B 9918   0.083   7.907   8.352 -0.3387  0.1121  0.0186
  641PSPI    C1 9919   3.446   8.677   6.173  0.1141  0.0887  0.2746
  641PSPI    C2 9920   3.820   8.596   6.058 -0.0134  0.1180 -0.1801
  641PSPI    C3 9921   3.654   8.948   5.965 -0.0758  0.2022  0.2297
  641PSPI   PO4 9922   3.294   8.483   6.169  0.2953 -0.3234 -0.1425
  641PSPI   GL1 9923   3.125   8.338   6.574 -0.0345 -0.0927 -0.3101
  641PSPI   GL2 9924   2.806   8.213   6.667  0.2048 -0.0083 -0.0798
  641PSPI   C1A 9925   3.221   8.302   6.984 -0.1822  0.2018 -0.0872
  641PSPI   C2A 9926   3.347   8.342   7.475  0.3284 -0.3618  0.3504
  641PSPI   C3A 9927   3.409   8.233   7.893  0.0749  0.3982 -0.0761
  641PSPI   C4A 9928   3.652   8.042   8.235  0.2201 -0.0513 -0.2621
  641PSPI   C1B 9929   2.823   8.620   6.966  0.1850 -0.3207  0.0519
  641PSPI   C2B 9930   2.953   8.711   7.359  0.1450  0.0693 -0.4336
  641PSPI   C3B 9931   2.940   9.003   7.802 -0.0426  0.0286  0.0080
  641PSPI   C4B 9932   3.003   9.263   8.199  0.1999  0.0837 -0.3464
  642PSPI    C1 9933  12.648   4.154   5.515 -0.0243  0.2359  0.0911
  642PSPI    C2 9934  12.644   4.517   5.346 -0.0279  0.1966  0.0062
  642PSPI    C3 9935  12.544   4.195   5.131  0.1565  0.1231  0.0292
  642PSPI   PO4 9936  12.500   4.204   5.806 -0.0203 -0.3014 -0.1535
  642PSPI   GL1 9937  12.492   4.202   6.205  0.1413 -0.1568  0.2061
  642PSPI   GL2 9938  12.284   4.361   6.413 -0.3243  0.1152 -0.0991
  642PSPI   C1A 9939  12.687   3.911   6.500 -0.0468  0.0467 -0.0366
  642PSPI   C2A 9940  12.866   3.681   6.960 -0.0850 -0.1600 -0.1074
  642PSPI   C3A 9941  12.863   3.516   7.365 -0.0614  0.0912  0.1485
  642PSPI   C4A 9942  12.669   3.495   7.736 -0.2638  0.1803  0.3258
  642PSPI   C1B 9943  12.664   4.306   6.767  0.1446  0.3632 -0.1970
  642PSPI   C2B 9944  12.623   4.510   7.245 -0.1383 -0.0936  0.2961
  642PSPI   C3B 9945  12.779   4.464   7.693 -0.1010  0.2908  0.1354
  642PSPI   C4B 9946  13.213   4.442   7.693 -0.1398  0.0375  0.2746
  643PSPI    C1 9947   8.370   4.168   5.757 -0.0818  0.0126  0.1439
  643PSPI    C2 9948   8.069   4.003   5.963 -0.2438 -0.0692 -0.1513
  643PSPI    C3 9949   8.011   4.123   5.586  0.0259  0.1530 -0.1257
  643PSPI   PO4 9950   8.599   4.321   5.945 -0.0931  0.0356 -0.2618
  643PSPI   GL1 9951   8.872   4.407   6.235  0.0290  0.2136  0.1801
  643PSPI   GL2 9952   8.923   4.062   6.351 -0.1895 -0.0366 -0.2623
  643PSPI   C1A 9953   8.658   4.651   6.537  0.1440 -0.1273  0.1286
  643PSPI   C2A 9954   8.598   4.749   7.016 -0.2417 -0.0639  0.0192
  643PSPI   C3A 9955   8.427   4.792   7.424 -0.0770 -0.1117 -0.1840
  643PSPI   C4A 9956   8.325   4.790   7.807 -0.1257 -0.1027 -0.0570
  643PSPI   C1B 9957   8.624   4.151   6.666 -0.4247  0.2382 -0.2162
  643PSPI   C2B 9958   8.308   3.916   6.954 -0.0945 -0.2537 -0.1628
  643PSPI   C3B 9959   7.840   3.827   7.077  0.0044  0.3967  0.2333
  643PSPI   C4B 9960   7.665   3.682   7.391 -0.1076  0.0659 -0.0266
  644PSPI    C1 9961  10.448  16.993   5.346 -0.1684  0.0665 -0.1633
  644PSPI    C2 9962  10.478  16.668   5.114 -0.0347 -0.0938  0.0739
  644PSPI    C3 9963  10.118  16.810   5.214 -0.0935 -0.0462 -0.1967
  644PSPI   PO4 9964  10.677  16.961   5.499 -0.2125 -0.1140  0.0678
  644PSPI   GL1 9965  10.799  16.953   5.868 -0.1411 -0.2225 -0.4029
  644PSPI   GL2 9966  10.619  16.725   6.053  0.1642 -0.2891  0.3414
  644PSPI   C1A 9967  11.096  16.908   6.145 -0.3409 -0.0817 -0.1029
  644PSPI   C2A 9968  11.057  16.679   6.463 -0.2563  0.2343  0.1677
  644PSPI   C3A 9969  10.979  16.658   6.822  0.3516  0.2230 -0.0386
  644PSPI   C4A 9970  10.959  16.845   7.203 -0.1888  0.2442 -0.4523
  644PSPI   C1B 9971  10.559  16.979   6.378  0.0772 -0.0284  0.2325
  644PSPI   C2B 9972  10.641  17.125   6.819  0.3678  0.2575  0.0570
  644PSPI   C3B 9973  10.713  17.331   7.181  0.0388 -0.3857 -0.0058
  644PSPI   C4B 9974  10.994  17.666   7.407 -0.1610  0.2465 -0.0711
  645PSPI    C1 9975   9.995  12.483   5.691  0.0585 -0.1615 -0.2935
  645PSPI    C2 9976   9.670  12.355   5.496 -0.0971 -0.0801 -0.0918
  645PSPI    C3 9977   9.921  12.611   5.319 -0.2590  0.0260 -0.1704
  645PSPI   PO4 9978   9.965  12.481   5.952  0.4774 -0.0277  0.1000
  645PSPI   GL1 9979   9.992  12.632   6.306 -0.3373  0.2572  0.2068
  645PSPI   GL2 9980   9.934  12.915   6.320 -0.1779  0.0125 -0.1616
  645PSPI   C1A 9981   9.888  12.480   6.721  0.0193 -0.0256 -0.2162
  645PSPI   C2A 9982   9.975  12.343   7.121 -0.0504  0.2571 -0.2737
  645PSPI   C3A 9983  10.052  12.231   7.529 -0.2305  0.0682  0.2851
  645PSPI   C4A 9984  10.001  12.240   8.060 -0.1291 -0.1088 -0.2293
  645PSPI   C1B 9985  10.138  12.936   6.634  0.0928 -0.1495 -0.5029
  645PSPI   C2B 9986  10.315  12.710   6.968  0.0024  0.3417 -0.1779
  645PSPI   C3B 9987  10.418  12.530   7.337  0.0849  0.1386  0.2225
  645PSPI   C4B 9988  10.557  12.156   7.591  0.2415  0.0175  0.2510
  646PSPI    C1 9989   3.268  15.851   5.975  0.2314 -0.2977 -0.1553
  646PSPI    C2 9990   3.095  16.140   5.760  0.2602 -0.1281  0.0461
  646PSPI    C3 9991   3.080  15.761   5.634 -0.1408 -0.0990 -0.0085
  646PSPI   PO4 9992   3.212  15.900   6.247  0.0050 -0.0291  0.2836
  646PSPI   GL1 9993   3.309  15.736   6.688  0.1320 -0.0187  0.2523
  646PSPI   GL2 9994   3.615  15.522   6.681  0.0151  0.0694  0.1638
  646PSPI   C1A 9995   3.044  15.705   6.935 -0.1518 -0.1248 -0.0848
  646PSPI   C2A 9996   2.778  15.703   7.296 -0.0033  0.2487  0.0398
  646PSPI   C3A 9997   2.804  15.963   7.697 -0.2870 -0.0634 -0.1021
  646PSPI   C4A 9998   2.736  15.902   8.170  0.0113 -0.3295  0.1234
  646PSPI   C1B 9999   3.511  15.237   6.899 -0.1423  0.0280  0.3508
  646PSPI   C2B10000   3.571  15.134   7.225  0.0359 -0.1222 -0.0477
  646PSPI   C3B10001   3.735  15.308   7.595 -0.0290 -0.0395 -0.0464
  646PSPI   C4B10002   3.743  15.722   7.873  0.2258  0.0645  0.0424
  647PSPI    C110003   0.928   9.108   6.042  0.0886 -0.1402 -0.4398
  647PSPI    C210004   0.924   9.506   6.008 -0.0417 -0.1047 -0.0597
  647PSPI    C310005   1.231   9.296   5.861  0.1626  0.1597 -0.0193
  647PSPI   PO410006   0.802   9.071   6.282  0.3315  0.1523 -0.0360
  647PSPI   GL110007   0.655   8.871   6.685  0.0457  0.1442  0.0456
  647PSPI   GL210008   0.952   8.787   6.685 -0.1524 -0.0530 -0.0444
  647PSPI   C1A10009   0.608   8.915   7.078 -0.2356  0.0730 -0.2504
  647PSPI   C2A10010   0.637   8.898   7.499  0.1586 -0.0725 -0.3917
  647PSPI   C3A10011   0.816   9.071   7.781 -0.2544 -0.5763  0.0538
  647PSPI   C4A10012   1.140   9.019   7.981 -0.3221 -0.1496 -0.1885
  647PSPI   C1B10013   1.095   8.809   7.122  0.1160 -0.1372  0.1561
  647PSPI   C2B10014   1.223   9.093   7.520  0.2284 -0.2910 -0.0776
  647PSPI   C3B10015   1.392   9.388   7.782  0.2470  0.2742  0.1856
  647PSPI   C4B10016   1.280   9.525   8.219 -0.0768  0.3095  0.0079
  648PSPI    C110017   6.673   5.923   5.601 -0.1023 -0.0575  0.2607
  648PSPI    C210018   6.583   6.151   5.284 -0.0606  0.0996  0.3607
  648PSPI    C310019   6.924   5.942   5.290 -0.2694 -0.2608  0.1102
  648PSPI   PO410020   6.390   5.864   5.667  0.0159 -0.3222 -0.0619
  648PSPI   GL110021   6.149   6.068   6.041 -0.1258  0.2421 -0.1083
  648PSPI   GL210022   6.175   5.774   6.115  0.0677  0.1039  0.1620
  648PSPI   C1A10023   6.451   6.300   6.272  0.0291 -0.2589  0.0234
  648PSPI   C2A10024   6.712   6.397   6.525 -0.0141 -0.0443  0.1795
  648PSPI   C3A10025   6.651   6.520   6.945  0.2360 -0.0705  0.1314
  648PSPI   C4A10026   6.599   6.736   7.389 -0.0335  0.0396 -0.0943
  648PSPI   C1B10027   6.181   5.897   6.509  0.1147  0.0079 -0.1549
  648PSPI   C2B10028   6.357   6.032   6.945 -0.1651 -0.1309  0.1946
  648PSPI   C3B10029   6.391   5.729   7.323 -0.0569  0.0698  0.1162
  648PSPI   C4B10030   6.437   5.866   7.782  0.0298  0.0241  0.1578
  649PSPI    C110031   9.698   7.640   5.388  0.0866  0.1429  0.3068
  649PSPI    C210032   9.434   7.794   5.131  0.0801 -0.1151  0.1565
  649PSPI    C310033   9.763   7.613   4.995  0.2034 -0.0292  0.3372
  649PSPI   PO410034   9.541   7.491   5.593 -0.0522 -0.1851 -0.2334
  649PSPI   GL110035   9.587   7.702   5.954 -0.1135 -0.1860  0.1925
  649PSPI   GL210036   9.822   7.488   6.148  0.1023  0.1089 -0.0625
  649PSPI   C1A10037   9.407   7.804   6.340 -0.2111  0.1152 -0.0498
  649PSPI   C2A10038   9.317   7.817   6.709 -0.1666  0.2062 -0.2033
  649PSPI   C3A10039   9.371   7.929   7.120  0.2043 -0.0390 -0.2010
  649PSPI   C4A10040   9.144   7.875   7.468  0.3148 -0.0678 -0.0271
  649PSPI   C1B10041   9.859   7.844   6.456  0.0830  0.0758  0.0452
  649PSPI   C2B10042   9.825   7.933   6.829  0.0063  0.4142  0.2924
  649PSPI   C3B10043   9.808   8.046   7.270 -0.0321  0.1071  0.2989
  649PSPI   C4B10044   9.649   8.219   7.626  0.5324 -0.0273  0.4469
  650PSPI    C110045   0.302   9.719   6.431  0.0793 -0.2062 -0.0607
  650PSPI    C210046   0.600   9.841   6.194 -0.0223  0.0185 -0.0744
  650PSPI    C310047   0.517   9.451   6.225  0.0844 -0.0236 -0.2970
  650PSPI   PO410048   0.272   9.784   6.682  0.0861  0.0898  0.1164
  650PSPI   GL110049   0.472   9.441   6.991  0.2300  0.0024  0.0263
  650PSPI   GL210050   0.534   9.774   7.078 -0.1792  0.1823  0.2759
  650PSPI   C1A10051   0.440   9.331   7.378  0.0740  0.0498  0.1465
  650PSPI   C2A10052   0.427   9.390   7.791 -0.2381  0.2794  0.1465
  650PSPI   C3A10053   0.269   9.654   7.995 -0.1096 -0.2247  0.0655
  650PSPI   C4A10054   0.245   9.903   8.462 -0.0401 -0.0878  0.2504
  650PSPI   C1B10055   0.520   9.846   7.462 -0.1080 -0.2619  0.1480
  650PSPI   C2B10056   0.615   9.991   7.847  0.5387  0.0887  0.0802
  650PSPI   C3B10057   0.613  10.216   8.201  0.0003 -0.2808 -0.3433
  650PSPI   C4B10058   0.824  10.377   8.498 -0.0003 -0.2889 -0.0584
  651PSPI    C110059   7.663  13.194   5.948  0.0120 -0.0460 -0.0834
  651PSPI    C210060   7.738  13.208   5.555  0.1688 -0.1063 -0.0564
  651PSPI    C310061   7.755  13.542   5.774  0.3407 -0.1154 -0.0546
  651PSPI   PO410062   7.722  12.891   5.959 -0.1212  0.1995  0.0283
  651PSPI   GL110063   7.919  12.687   6.338  0.0793 -0.1525 -0.2803
  651PSPI   GL210064   8.092  12.897   6.418  0.2775  0.4786  0.0254
  651PSPI   C1A10065   7.853  12.427   6.657  0.1689  0.1775 -0.0714
  651PSPI   C2A10066   7.722  12.454   7.083 -0.0238 -0.2909 -0.0216
  651PSPI   C3A10067   7.538  12.455   7.459  0.0505  0.0624 -0.0153
  651PSPI   C4A10068   7.170  12.278   7.534 -0.2057  0.0151 -0.1259
  651PSPI   C1B10069   8.160  12.870   6.807  0.0985  0.0315 -0.0171
  651PSPI   C2B10070   7.941  12.898   7.154  0.2891 -0.1662 -0.1401
  651PSPI   C3B10071   7.803  13.090   7.510  0.0030 -0.0215  0.2620
  651PSPI   C4B10072   7.773  13.109   7.896  0.0639  0.0474 -0.1768
  652PSPI    C110073   5.846   2.734   5.632 -0.1156 -0.0575 -0.0589
  652PSPI    C210074   5.910   2.344   5.570  0.3882  0.0291 -0.1248
  652PSPI    C310075   5.557   2.469   5.709  0.1302 -0.4216 -0.3533
  652PSPI   PO410076   6.098   2.878   5.830  0.1783  0.1942  0.1172
  652PSPI   GL110077   6.168   3.046   6.325  0.0718 -0.1477 -0.0176
  652PSPI   GL210078   5.910   3.044   6.534 -0.0819 -0.2280 -0.2018
  652PSPI   C1A10079   6.413   3.307   6.599  0.1701  0.1255  0.1248
  652PSPI   C2A10080   6.174   3.468   6.805 -0.0742 -0.4904 -0.0809
  652PSPI   C3A10081   6.182   3.777   7.138  0.0670  0.1001  0.0057
  652PSPI   C4A10082   6.055   3.969   7.561 -0.1458 -0.0428 -0.1550
  652PSPI   C1B10083   5.603   3.215   6.848 -0.0923  0.1811  0.1241
  652PSPI   C2B10084   5.252   3.261   7.148 -0.0774  0.2412  0.0598
  652PSPI   C3B10085   5.308   3.644   7.419 -0.0371 -0.2956  0.1983
  652PSPI   C4B10086   5.665   3.750   7.679  0.0687 -0.1166  0.1520
  653PSPI    C110087  13.485  10.203   5.623  0.1101  0.0441  0.0370
  653PSPI    C210088  13.840  10.108   5.782  0.2516  0.1087 -0.2338
  653PSPI    C310089  13.820  10.258   5.412 -0.0396  0.3360 -0.1301
  653PSPI   PO410090  13.305   9.928   5.864  0.0628 -0.0781  0.2515
  653PSPI   GL110091  13.244   9.688   6.285 -0.2067 -0.2782 -0.0060
  653PSPI   GL210092  13.122  10.017   6.371 -0.2833 -0.1063 -0.0878
  653PSPI   C1A10093  13.003   9.534   6.611 -0.1146  0.4234 -0.0911
  653PSPI   C2A10094  12.783   9.461   6.964  0.2825  0.0893  0.1928
  653PSPI   C3A10095  12.573   9.026   6.928  0.1045 -0.3355  0.0150
  653PSPI   C4A10096  12.162   8.985   7.153 -0.0319 -0.0220 -0.0396
  653PSPI   C1B10097  13.084  10.196   6.831  0.0727 -0.1683  0.3307
  653PSPI   C2B10098  12.944  10.337   7.323  0.2251  0.0601  0.3380
  653PSPI   C3B10099  12.499  10.551   7.610 -0.0291  0.0209 -0.2766
  653PSPI   C4B10100  12.241  10.949   7.708  0.0048 -0.0587  0.1182
  654POPI    C110101  13.327   0.961   5.606  0.0652 -0.0569  0.0303
  654POPI    C210102  13.689   0.984   5.437  0.0679 -0.1377  0.0249
  654POPI    C310103  13.535   0.627   5.533 -0.1423 -0.1261 -0.2589
  654POPI   PO410104  13.308   1.188   5.834  0.0338 -0.0525 -0.2003
  654POPI   GL110105  13.217   1.059   6.330  0.2313 -0.0211  0.1922
  654POPI   GL210106  13.545   1.257   6.287 -0.0811  0.3500  0.1814
  654POPI   C1A10107  13.092   0.944   6.654  0.3334 -0.3242 -0.0521
  654POPI   D2A10108  13.004   0.695   7.011  0.0390  0.2492  0.0335
  654POPI   C3A10109  12.953   0.271   7.213 -0.0005  0.3449  0.1432
  654POPI   C4A10110  12.746   0.081   7.619  0.0660  0.0697  0.3882
  654POPI   C1B10111  13.298   1.398   6.663 -0.1140  0.1168  0.1484
  654POPI   C2B10112  13.319   1.465   7.110  0.0170  0.0547  0.0381
  654POPI   C3B10113  13.592   1.633   7.460  0.1224 -0.0939  0.1352
  654POPI   C4B10114  13.691   1.820   7.756 -0.2235  0.2258  0.1768
  655POPI    C110115   6.576  16.482   5.993 -0.4644  0.4490  0.4022
  655POPI    C210116   6.464  16.275   5.670 -0.1529  0.0323  0.5516
  655POPI    C310117   6.432  16.673   5.674 -0.1846  0.0414  0.0191
  655POPI   PO410118   6.832  16.414   6.028  0.1366 -0.1449 -0.1208
  655POPI   GL110119   6.951  16.093   6.256 -0.2905 -0.1537  0.3276
  655POPI   GL210120   7.036  15.835   6.137 -0.1838  0.1795 -0.2463
  655POPI   C1A10121   7.385  16.136   6.576 -0.0528 -0.1114 -0.1180
  655POPI   D2A10122   7.291  16.219   7.091  0.2398  0.4528 -0.1871
  655POPI   C3A10123   7.508  16.455   7.388  0.2076  0.0857 -0.2402
  655POPI   C4A10124   7.855  16.309   7.441 -0.1954 -0.0056  0.0845
  655POPI   C1B10125   7.040  15.757   6.632 -0.2340  0.1812  0.1476
  655POPI   C2B10126   6.832  15.857   7.004  0.2426  0.1769  0.0178
  655POPI   C3B10127   6.515  15.969   7.195 -0.1713  0.0256  0.2088
  655POPI   C4B10128   6.095  15.993   7.423 -0.2270  0.0086 -0.1422
  656POPI    C110129  12.851  12.586   5.899 -0.2680  0.0884  0.1902
  656POPI    C210130  12.783  12.541   5.508  0.5048 -0.0409  0.0562
  656POPI    C310131  12.671  12.877   5.692 -0.3141 -0.1779 -0.1537
  656POPI   PO410132  12.692  12.379   6.021  0.2745  0.2409  0.0661
  656POPI   GL110133  12.783  12.381   6.392 -0.0263  0.0562  0.2187
  656POPI   GL210134  13.078  12.253   6.457 -0.0883 -0.1058  0.0776
  656POPI   C1A10135  12.731  12.500   6.812  0.0289  0.3937 -0.0962
  656POPI   D2A10136  12.738  12.546   7.262 -0.0018 -0.0563  0.0655
  656POPI   C3A10137  12.792  12.538   7.660 -0.0137 -0.3036  0.0550
  656POPI   C4A10138  12.522  12.238   7.961  0.2311  0.1179  0.2044
  656POPI   C1B10139  12.993  11.977   6.610  0.1977 -0.3261 -0.1137
  656POPI   C2B10140  12.960  11.528   6.710 -0.1133 -0.0859  0.2557
  656POPI   C3B10141  13.292  11.235   6.702  0.0833 -0.1192  0.0986
  656POPI   C4B10142  13.099  10.850   6.871 -0.1333  0.3611  0.1781
  657POPI    C110143   7.541   3.902   5.789 -0.0823  0.0646  0.2645
  657POPI    C210144   7.176   3.740   5.769 -0.0273 -0.0089 -0.3073
  657POPI    C310145   7.254   4.082   5.578  0.1329  0.1585  0.0475
  657POPI   PO410146   7.597   3.816   6.039 -0.3513  0.0863  0.2245
  657POPI   GL110147   7.681   4.051   6.439  0.1289  0.2940  0.1593
  657POPI   GL210148   7.443   3.845   6.584 -0.0374 -0.1293 -0.0311
  657POPI   C1A10149   7.480   4.127   6.956 -0.2389 -0.2550  0.0026
  657POPI   D2A10150   7.078   3.908   7.154  0.0549 -0.1719 -0.1631
  657POPI   C3A10151   7.075   3.809   7.592  0.2630 -0.1961  0.0347
  657POPI   C4A10152   7.316   3.472   7.761  0.0233  0.0494  0.1386
  657POPI   C1B10153   7.340   3.488   6.904  0.0792 -0.0659 -0.0040
  657POPI   C2B10154   7.191   3.434   7.281 -0.0134 -0.3198  0.2481
  657POPI   C3B10155   6.938   3.103   7.514  0.0713  0.0611  0.0997
  657POPI   C4B10156   6.561   3.017   7.672  0.3762  0.0052  0.3178
  658POPI    C110157  15.250   2.629   5.345 -0.1130 -0.1401  0.1064
  658POPI    C210158  14.898   2.643   5.156 -0.0934 -0.0835  0.0739
  658POPI    C310159  15.232   2.747   4.963 -0.0501 -0.2034  0.0836
  658POPI   PO410160  15.133   2.683   5.597  0.0866 -0.2643  0.0566
  658POPI   GL110161  15.236   2.443   5.947  0.1135  0.2934  0.1577
  658POPI   GL210162  15.491   2.526   6.141 -0.2217 -0.3622 -0.3111
  658POPI   C1A10163  14.969   2.303   6.204  0.1031 -0.1771  0.2385
  658POPI   D2A10164  14.542   2.260   6.263  0.1425  0.2149  0.0043
  658POPI   C3A10165  14.263   2.753   6.249  0.0611 -0.3601  0.1233
  658POPI   C4A10166  13.924   3.112   6.249 -0.0732 -0.2114  0.1695
  658POPI   C1B10167  15.497   2.743   6.446  0.0531 -0.1066 -0.0969
  658POPI   C2B10168  15.744   2.740   6.868 -0.0134  0.3216  0.1205
  658POPI   C3B10169  15.748   2.485   7.244  0.1061 -0.3253 -0.3294
  658POPI   C4B10170  15.618   2.648   7.658 -0.3349  0.1207 -0.1154
  659POPI    C110171  12.706  11.290   5.671  0.0620 -0.1570  0.1696
  659POPI    C210172  12.335  11.360   5.536  0.0440 -0.3202  0.1326
  659POPI    C310173  12.646  11.378   5.285  0.0715 -0.1031  0.1802
  659POPI   PO410174  12.694  11.454   5.979 -0.1382 -0.2070 -0.0676
  659POPI   GL110175  12.547  11.635   6.382  0.0457  0.1917 -0.2531
  659POPI   GL210176  12.466  11.865   6.298  0.1886 -0.0604 -0.0373
  659POPI   C1A10177  12.434  11.513   6.779  0.0233 -0.0442  0.1529
  659POPI   D2A10178  12.280  11.697   7.091 -0.1314  0.3173 -0.2828
  659POPI   C3A10179  12.677  11.604   7.311  0.1411  0.0185 -0.2783
  659POPI   C4A10180  13.037  11.426   7.635 -0.2059  0.1476 -0.4069
  659POPI   C1B10181  12.400  12.064   6.667  0.0865 -0.1486 -0.0772
  659POPI   C2B10182  12.718  12.041   7.007  0.0839 -0.0354  0.2139
  659POPI   C3B10183  12.675  12.099   7.514  0.1910  0.3208  0.2651
  659POPI   C4B10184  12.572  11.750   7.874  0.1527 -0.4495  0.0688
  660POPI    C110185   8.192   0.032   5.107 -0.2833 -0.0975  0.1379
  660POPI    C210186   8.121  -0.361   5.089  0.1643 -0.1750 -0.0929
  660POPI    C310187   8.375  -0.192   4.831 -0.0285  0.2710  0.0001
  660POPI   PO410188   8.071   0.016   5.403  0.1298 -0.1785 -0.0815
  660POPI   GL110189   7.787   0.174   5.728 -0.0064 -0.1008 -0.0381
  660POPI   GL210190   7.641   0.051   6.071  0.2715 -0.0380 -0.0665
  660POPI   C1A10191   8.126   0.463   5.952  0.0311  0.0955  0.2688
  660POPI   D2A10192   8.330   0.668   6.323 -0.3264  0.3967  0.0216
  660POPI   C3A10193   8.064   0.898   6.499  0.2046  0.2608 -0.3389
  660POPI   C4A10194   7.779   1.202   6.510 -0.0488 -0.1482  0.0190
  660POPI   C1B10195   7.924   0.068   6.414  0.1223 -0.2140  0.4539
  660POPI   C2B10196   8.023  -0.073   6.862 -0.2864 -0.1784 -0.1617
  660POPI   C3B10197   7.953  -0.152   7.259  0.0954 -0.0214 -0.1498
  660POPI   C4B10198   7.723  -0.548   7.195  0.1556  0.2146  0.0502
  661POPI    C110199   0.585  16.108   5.854 -0.2114 -0.3208  0.2074
  661POPI    C210200   0.848  15.852   6.014  0.0273 -0.1714  0.0606
  661POPI    C310201   0.937  16.044   5.675 -0.0935  0.2038  0.2358
  661POPI   PO410202   0.368  15.964   6.068  0.2875  0.2986 -0.4402
  661POPI   GL110203   0.337  15.954   6.556 -0.2549 -0.3754  0.3120
  661POPI   GL210204   0.048  16.185   6.499 -0.1831  0.1048 -0.0037
  661POPI   C1A10205   0.347  15.588   6.803  0.1674 -0.0494 -0.0611
  661POPI   D2A10206   0.501  15.464   7.168  0.1408  0.2198 -0.1661
  661POPI   C3A10207   0.848  15.756   7.537 -0.2305  0.0335  0.0057
  661POPI   C4A10208   1.041  16.177   7.630  0.0576 -0.1636  0.3637
  661POPI   C1B10209   0.041  16.497   6.815  0.4272 -0.0079  0.0115
  661POPI   C2B10210  -0.115  16.541   7.256  0.0318 -0.3209  0.0036
  661POPI   C3B10211   0.002  16.322   7.587 -0.0036 -0.1033  0.3353
  661POPI   C4B10212  -0.213  15.862   7.689  0.2262  0.0466  0.3995
  662POPI    C110213   4.516   7.560   5.544 -0.1177  0.1118 -0.1273
  662POPI    C210214   4.324   7.859   5.360 -0.3141 -0.0332 -0.1605
  662POPI    C310215   4.142   7.506   5.413 -0.2333 -0.0187  0.2429
  662POPI   PO410216   4.616   7.697   5.766 -0.1571 -0.0943  0.3048
  662POPI   GL110217   4.601   7.846   6.111  0.2765 -0.0966  0.1796
  662POPI   GL210218   4.879   7.706   6.249 -0.1795 -0.1307  0.2385
  662POPI   C1A10219   4.494   7.725   6.528  0.1145 -0.0600 -0.1906
  662POPI   D2A10220   4.577   7.200   6.689 -0.3388 -0.1062  0.1981
  662POPI   C3A10221   4.580   7.165   7.152  0.1175 -0.3381  0.1786
  662POPI   C4A10222   4.473   6.961   7.582 -0.0362 -0.0405  0.1339
  662POPI   C1B10223   4.870   8.045   6.498 -0.2344 -0.4112 -0.2677
  662POPI   C2B10224   4.819   8.159   6.988  0.0585 -0.0028 -0.0652
  662POPI   C3B10225   5.058   8.081   7.368 -0.0093  0.3592 -0.0582
  662POPI   C4B10226   4.861   7.887   7.721 -0.2912 -0.0520 -0.0203
  663POPI    C110227   1.765   1.342   5.813 -0.0282  0.3341  0.1694
  663POPI    C210228   1.599   1.706   5.826 -0.0802  0.3201 -0.0655
  663POPI    C310229   1.732   1.558   5.479 -0.2702  0.0217 -0.0149
  663POPI   PO410230   1.966   1.358   6.016 -0.0646 -0.3380 -0.3170
  663POPI   GL110231   2.007   1.282   6.459 -0.2098  0.2389 -0.2538
  663POPI   GL210232   2.100   1.636   6.435  0.0828  0.0503 -0.0665
  663POPI   C1A10233   1.602   1.347   6.717  0.0300 -0.0591  0.0132
  663POPI   D2A10234   1.366   1.094   7.090  0.4936  0.0344 -0.2141
  663POPI   C3A10235   1.228   0.958   7.519 -0.1012  0.2257  0.0799
  663POPI   C4A10236   0.798   0.850   7.631  0.1478 -0.3311 -0.3291
  663POPI   C1B10237   1.973   1.722   6.751  0.0909  0.1246  0.2210
  663POPI   C2B10238   1.860   1.813   7.282 -0.1945  0.0796 -0.1082
  663POPI   C3B10239   1.582   1.879   7.690  0.1230  0.0857 -0.3171
  663POPI   C4B10240   1.323   1.984   8.018  0.2516  0.0341 -0.1668
  664POPI    C110241   9.588  10.916   5.789 -0.0858  0.0129 -0.0326
  664POPI    C210242   9.838  11.081   5.524  0.0316 -0.0572  0.0335
  664POPI    C310243   9.455  11.022   5.427 -0.0254  0.2995  0.0260
  664POPI   PO410244   9.669  10.663   5.818  0.2725  0.1532  0.4429
  664POPI   GL110245   9.893  10.572   6.185 -0.4312  0.0705  0.0475
  664POPI   GL210246   9.572  10.497   6.283  0.0963  0.2338  0.2621
  664POPI   C1A10247   9.913  10.503   6.666  0.2693  0.1404 -0.1312
  664POPI   D2A10248   9.815  10.109   6.905  0.0784 -0.2065  0.0858
  664POPI   C3A10249  10.040  10.058   7.348 -0.1876 -0.1502 -0.2115
  664POPI   C4A10250  10.318  10.154   7.567  0.1016 -0.3925  0.0661
  664POPI   C1B10251   9.487  10.654   6.708  0.2274 -0.0946 -0.1438
  664POPI   C2B10252   9.134  10.632   6.816  0.0287  0.0763 -0.1074
  664POPI   C3B10253   8.724  10.934   6.684  0.1046 -0.2845  0.0630
  664POPI   C4B10254   8.277  11.206   6.786 -0.1056  0.1521  0.0306
  665POPI    C110255   1.458  13.417   5.819  0.2376 -0.1587  0.1152
  665POPI    C210256   1.639  13.716   5.625  0.1863 -0.1226  0.1229
  665POPI    C310257   1.513  13.394   5.424  0.1097 -0.0734  0.0920
  665POPI   PO410258   1.278  13.584   6.023 -0.2190 -0.2063 -0.2261
  665POPI   GL110259   1.149  13.788   6.475 -0.0955  0.3885  0.2107
  665POPI   GL210260   0.926  14.027   6.447 -0.0271 -0.1412  0.2004
  665POPI   C1A10261   1.036  13.530   6.769  0.2448 -0.1563 -0.1256
  665POPI   D2A10262   0.584  13.595   6.903  0.0942 -0.0370 -0.2549
  665POPI   C3A10263   0.540  13.471   7.323 -0.2993 -0.2021 -0.0672
  665POPI   C4A10264   0.474  13.374   7.696  0.2692  0.4320  0.0264
  665POPI   C1B10265   0.837  14.028   6.904  0.1791  0.1596 -0.0820
  665POPI   C2B10266   0.986  13.714   7.252 -0.0199 -0.0766 -0.1243
  665POPI   C3B10267   1.011  13.364   7.552  0.1427 -0.1318 -0.2305
  665POPI   C4B10268   1.107  13.170   7.846  0.3627 -0.1908 -0.3463
  666POPI    C110269  17.545  12.515   6.224  0.0028 -0.1483  0.0348
  666POPI    C210270  17.447  12.495   5.836  0.1774  0.2169 -0.0325
  666POPI    C310271  17.160  12.512   6.114  0.0508 -0.1255 -0.1372
  666POPI   PO410272  17.724  12.301   6.310  0.0545  0.0780 -0.0849
  666POPI   GL110273  18.151  12.380   6.704 -0.0665 -0.2146 -0.1877
  666POPI   GL210274  17.825  12.345   6.835 -0.0011  0.2054  0.0503
  666POPI   C1A10275  18.248  12.810   6.953 -0.0034 -0.0760 -0.1805
  666POPI   D2A10276  18.474  13.055   7.215  0.0709  0.1321  0.2371
  666POPI   C3A10277  18.780  12.915   7.433  0.2869  0.1785  0.3050
  666POPI   C4A10278  18.992  12.849   7.689 -0.2580  0.1747 -0.3134
  666POPI   C1B10279  17.585  12.265   7.238 -0.0749  0.0907  0.0616
  666POPI   C2B10280  17.654  12.460   7.696 -0.0757 -0.1784  0.4571
  666POPI   C3B10281  17.700  12.185   8.089 -0.1453  0.1392 -0.1065
  666POPI   C4B10282  17.726  12.001   8.534  0.3017  0.4117  0.0948
  667POPI    C110283  16.037  12.659   6.152 -0.1827  0.2437 -0.1328
  667POPI    C210284  15.755  12.444   6.335  0.1182 -0.0136  0.0388
  667POPI    C310285  15.674  12.626   5.988 -0.1968 -0.2511 -0.0172
  667POPI   PO410286  16.140  12.744   6.360  0.2709 -0.0846  0.0853
  667POPI   GL110287  16.319  12.758   6.755 -0.2190  0.0677  0.2587
  667POPI   GL210288  15.979  12.906   6.782  0.0736  0.1025  0.3049
  667POPI   C1A10289  16.309  13.041   7.088 -0.2691  0.1525 -0.0512
  667POPI   D2A10290  16.614  13.140   7.318  0.0726  0.1951  0.0127
  667POPI   C3A10291  16.537  13.325   7.716  0.1119 -0.0501 -0.0457
  667POPI   C4A10292  16.588  13.176   8.057  0.2197  0.0440 -0.2405
  667POPI   C1B10293  15.785  12.909   7.224  0.1753 -0.0044 -0.0264
  667POPI   C2B10294  15.692  12.742   7.610 -0.2427 -0.0173 -0.2862
  667POPI   C3B10295  15.470  12.516   7.930  0.2009 -0.2046 -0.1464
  667POPI   C4B10296  15.582  12.305   8.330 -0.1139 -0.1270 -0.3194
  668POPI    C110297  12.020   9.055   5.519 -0.2948  0.0743  0.1093
  668POPI    C210298  12.079   9.370   5.280  0.0543 -0.2766 -0.2840
  668POPI    C310299  11.724   9.187   5.286 -0.1710  0.1517 -0.0055
  668POPI   PO410300  12.134   9.062   5.710 -0.0930 -0.2752  0.1165
  668POPI   GL110301  12.118   9.231   6.056 -0.5234 -0.1027 -0.0244
  668POPI   GL210302  12.369   9.322   6.178  0.2538 -0.2683 -0.2655
  668POPI   C1A10303  11.944   9.248   6.552  0.2369  0.3014 -0.1913
  668POPI   D2A10304  11.811   9.319   7.020 -0.1969 -0.3102  0.1664
  668POPI   C3A10305  11.925   9.339   7.381 -0.0946  0.2442  0.1145
  668POPI   C4A10306  12.109   9.168   7.877  0.2196 -0.0386  0.0505
  668POPI   C1B10307  12.364   9.413   6.650  0.0970 -0.2845 -0.0615
  668POPI   C2B10308  12.303   9.484   7.102  0.0854 -0.0401 -0.0644
  668POPI   C3B10309  12.238   9.588   7.624 -0.1450 -0.1440 -0.2998
  668POPI   C4B10310  12.254   9.844   7.927 -0.2517  0.0289  0.0514
  669POPI    C110311   7.314  10.915   5.577 -0.0763  0.1904 -0.2415
  669POPI    C210312   7.211  10.773   5.218 -0.0972 -0.1369 -0.1091
  669POPI    C310313   7.496  10.590   5.431  0.0917  0.2029 -0.0643
  669POPI   PO410314   7.133  10.899   5.784  0.1330 -0.2694  0.6623
  669POPI   GL110315   7.115  11.110   6.248  0.2345 -0.1355  0.2791
  669POPI   GL210316   6.986  10.944   6.494  0.1150  0.0585  0.0871
  669POPI   C1A10317   7.468  11.039   6.511  0.1810 -0.0919  0.1313
  669POPI   D2A10318   7.718  11.201   6.654  0.1345  0.0797  0.0586
  669POPI   C3A10319   7.879  11.169   7.093 -0.5980  0.0690 -0.3369
  669POPI   C4A10320   8.000  10.672   7.235 -0.1270 -0.1624 -0.4326
  669POPI   C1B10321   6.848  10.862   6.932 -0.0998  0.2582  0.1489
  669POPI   C2B10322   6.958  10.801   7.386  0.0269  0.2110 -0.0915
  669POPI   C3B10323   6.544  10.676   7.746  0.2438  0.0419 -0.3981
  669POPI   C4B10324   6.515  10.654   8.175  0.1605  0.2866  0.0507
  670POPI    C110325   6.330  10.944   5.953 -0.0102 -0.0381  0.0771
  670POPI    C210326   6.371  10.994   5.559 -0.0170  0.0551  0.0878
  670POPI    C310327   6.156  11.255   5.771  0.0798  0.0680  0.1707
  670POPI   PO410328   6.633  10.819   6.033  0.1234  0.0540  0.3042
  670POPI   GL110329   6.759  10.489   6.154  0.1756 -0.1171  0.1781
  670POPI   GL210330   6.940  10.102   6.135 -0.2175 -0.0887 -0.4451
  670POPI   C1A10331   6.667  10.409   6.586 -0.3839  0.0946  0.2682
  670POPI   D2A10332   6.761  10.053   6.856  0.0046  0.0158  0.2642
  670POPI   C3A10333   6.491   9.948   7.190 -0.1477 -0.0576 -0.0889
  670POPI   C4A10334   6.324   9.960   7.559  0.2682 -0.2509 -0.1994
  670POPI   C1B10335   7.169   9.893   6.501  0.3352  0.0477 -0.1225
  670POPI   C2B10336   7.426   9.721   6.773  0.1336  0.1574  0.1519
  670POPI   C3B10337   7.519   9.734   7.217  0.0088 -0.3044 -0.2116
  670POPI   C4B10338   7.504   9.603   7.630  0.0510  0.0079  0.0366
  671POPI    C110339  17.827   1.063   5.982  0.1477 -0.1138 -0.0364
  671POPI    C210340  17.556   1.060   5.688 -0.0384 -0.3187  0.1333
  671POPI    C310341  17.838   1.344   5.697 -0.1258 -0.2189 -0.1541
  671POPI   PO410342  17.758   1.123   6.222  0.1765  0.0608 -0.1162
  671POPI   GL110343  17.567   0.890   6.439 -0.0679 -0.0057 -0.1233
  671POPI   GL210344  17.646   0.667   6.339 -0.2312 -0.1467  0.1654
  671POPI   C1A10345  17.631   0.682   6.909  0.1597  0.1419 -0.0182
  671POPI   D2A10346  17.600   0.697   7.328 -0.2838  0.1133 -0.5850
  671POPI   C3A10347  17.696   0.830   7.663 -0.2402 -0.1070  0.1610
  671POPI   C4A10348  18.064   0.874   7.871  0.0345 -0.2607  0.0904
  671POPI   C1B10349  17.249   0.498   6.568  0.0950  0.0498 -0.0741
  671POPI   C2B10350  17.186   0.216   6.885  0.0405 -0.2254 -0.1129
  671POPI   C3B10351  17.409   0.261   7.255  0.1779 -0.2422  0.4078
  671POPI   C4B10352  17.535   0.174   7.653  0.0350 -0.0740 -0.1514
  672POPI    C110353   5.103   5.479   5.500  0.0289  0.0958 -0.3412
  672POPI    C210354   4.765   5.419   5.294 -0.2269 -0.1402  0.1291
  672POPI    C310355   5.085   5.188   5.226 -0.1999 -0.0067 -0.2200
  672POPI   PO410356   5.122   5.773   5.624  0.0424  0.0051 -0.1116
  672POPI   GL110357   5.422   5.955   5.907 -0.1003 -0.2058 -0.0550
  672POPI   GL210358   5.228   6.186   6.130 -0.1585  0.2442 -0.1531
  672POPI   C1A10359   5.698   5.703   6.021  0.0585 -0.1010  0.0966
  672POPI   D2A10360   5.900   5.167   6.008  0.3366 -0.3965  0.0855
  672POPI   C3A10361   5.818   5.098   6.481  0.0505 -0.0075  0.0836
  672POPI   C4A10362   5.676   5.263   6.865 -0.3668  0.2117  0.4844
  672POPI   C1B10363   5.286   6.268   6.573 -0.1258  0.0216 -0.4086
  672POPI   C2B10364   5.250   6.505   6.775  0.1131  0.2643 -0.1973
  672POPI   C3B10365   5.202   6.609   7.193  0.2605  0.0892 -0.0183
  672POPI   C4B10366   5.427   6.779   7.596 -0.1489 -0.0370  0.1681
  673POPI    C110367  11.517   5.373   5.540  0.0047 -0.0494  0.3018
  673POPI    C210368  11.118   5.352   5.565 -0.0046 -0.3327 -0.0071
  673POPI    C310369  11.291   5.653   5.365 -0.0593 -0.1837  0.1669
  673POPI   PO410370  11.642   5.440   5.746  0.0278  0.0845  0.0959
  673POPI   GL110371  11.900   5.750   6.029 -0.1530  0.0031  0.2695
  673POPI   GL210372  11.648   5.847   6.150  0.1648  0.0104 -0.1964
  673POPI   C1A10373  12.005   5.446   6.342  0.0437  0.0357  0.3536
  673POPI   D2A10374  11.916   5.529   6.812  0.2201 -0.0343 -0.3334
  673POPI   C3A10375  11.909   5.887   7.121 -0.1274  0.2181 -0.0166
  673POPI   C4A10376  11.741   6.146   7.465 -0.0849  0.0993  0.2402
  673POPI   C1B10377  11.776   5.896   6.506 -0.1823  0.1159 -0.0049
  673POPI   C2B10378  12.138   6.091   6.729  0.2183 -0.4181  0.2062
  673POPI   C3B10379  12.598   6.136   6.576 -0.0723  0.1614 -0.3120
  673POPI   C4B10380  12.922   6.227   6.362 -0.0126 -0.1238  0.0505
  674POPI    C110381   8.023   7.458   5.166 -0.1332 -0.1326 -0.0256
  674POPI    C210382   8.131   7.178   4.901  0.1604 -0.1131  0.0705
  674POPI    C310383   8.224   7.562   4.835 -0.1127 -0.0557  0.0106
  674POPI   PO410384   8.130   7.421   5.488  0.1456 -0.2036  0.0983
  674POPI   GL110385   8.022   7.772   5.765 -0.0222 -0.0406 -0.0103
  674POPI   GL210386   7.640   7.793   5.768  0.4537 -0.2612  0.0762
  674POPI   C1A10387   8.065   8.074   6.013  0.0503 -0.3649  0.1459
  674POPI   D2A10388   7.752   8.084   6.380  0.0771 -0.0038  0.1046
  674POPI   C3A10389   7.812   8.124   6.872 -0.1425 -0.0804 -0.2684
  674POPI   C4A10390   7.541   7.851   7.125 -0.2135 -0.2699 -0.0094
  674POPI   C1B10391   7.563   7.625   6.133  0.2289  0.0599  0.2789
  674POPI   C2B10392   7.724   7.591   6.585 -0.2048  0.1085  0.1641
  674POPI   C3B10393   7.982   7.298   6.835 -0.1469 -0.1485  0.0991
  674POPI   C4B10394   8.051   7.156   7.156  0.1570  0.2917  0.2858
  675POPI    C110395   3.910   3.114   5.532  0.0086  0.0099  0.1285
  675POPI    C210396   4.031   2.768   5.694 -0.0238  0.0710  0.2857
  675POPI    C310397   4.147   2.868   5.324 -0.1214 -0.1683  0.1882
  675POPI   PO410398   3.696   3.148   5.736 -0.1214 -0.2967  0.1056
  675POPI   GL110399   3.658   3.393   6.100 -0.1094  0.1379 -0.0907
  675POPI   GL210400   3.420   3.446   6.328 -0.1407  0.2519  0.1096
  675POPI   C1A10401   3.795   3.759   6.352 -0.0610 -0.1239 -0.0541
  675POPI   D2A10402   4.056   4.077   6.410  0.1992 -0.0792  0.0983
  675POPI   C3A10403   4.054   4.434   6.610 -0.4202 -0.0526  0.1319
  675POPI   C4A10404   3.967   4.808   6.879 -0.0521  0.1602 -0.1271
  675POPI   C1B10405   3.610   3.498   6.808  0.0536  0.1090  0.0101
  675POPI   C2B10406   3.618   3.669   7.184 -0.0303  0.0425 -0.1809
  675POPI   C3B10407   3.539   3.701   7.534  0.1107 -0.0737  0.1183
  675POPI   C4B10408   3.509   3.751   7.926  0.2729 -0.0295 -0.2568
  676POPI    C110409   9.214   5.887   5.688 -0.0895  0.1422 -0.0552
  676POPI    C210410   9.501   5.704   5.478 -0.3614  0.0466 -0.3518
  676POPI    C310411   9.201   5.491   5.635 -0.1064  0.1017  0.2364
  676POPI   PO410412   9.377   6.066   5.835 -0.1390 -0.1576  0.0237
  676POPI   GL110413   9.607   6.097   6.206  0.1931  0.2410  0.0341
  676POPI   GL210414   9.863   6.027   6.232  0.1632 -0.0045  0.0876
  676POPI   C1A10415   9.474   6.104   6.693 -0.0488  0.0690 -0.0587
  676POPI   D2A10416   9.619   5.731   6.886 -0.0201 -0.2739 -0.0893
  676POPI   C3A10417   9.560   5.468   7.278  0.0993  0.0964 -0.0535
  676POPI   C4A10418   9.651   5.233   7.605 -0.0863 -0.1934  0.3056
  676POPI   C1B10419   9.992   5.856   6.597  0.1936  0.1816 -0.0099
  676POPI   C2B10420  10.107   5.897   7.027 -0.2091 -0.3720  0.2358
  676POPI   C3B10421   9.935   5.859   7.356  0.1048  0.1739  0.1775
  676POPI   C4B10422   9.605   5.694   7.765  0.1538  0.1950  0.0812
  677POPI    C110423   6.842   4.378   5.616 -0.2270 -0.0705 -0.0884
  677POPI    C210424   7.109   4.590   5.408 -0.1074 -0.2884 -0.1599
  677POPI    C310425   6.718   4.647   5.347 -0.0793  0.0122 -0.0744
  677POPI   PO410426   6.817   4.320   5.948  0.2062  0.2018  0.4072
  677POPI   GL110427   6.953   4.351   6.340 -0.1699 -0.1835  0.0611
  677POPI   GL210428   6.780   4.676   6.273  0.0545  0.0922 -0.1104
  677POPI   C1A10429   6.839   4.090   6.572 -0.0413 -0.1593  0.2365
  677POPI   D2A10430   6.469   3.785   6.543 -0.0359  0.0042 -0.0507
  677POPI   C3A10431   6.041   3.948   6.654  0.1178 -0.2467  0.1052
  677POPI   C4A10432   5.687   3.772   6.981 -0.1990  0.1792 -0.0022
  677POPI   C1B10433   6.597   4.533   6.602 -0.2682  0.0336 -0.1326
  677POPI   C2B10434   6.455   4.423   6.944 -0.0184 -0.2021 -0.0180
  677POPI   C3B10435   6.641   4.176   7.128  0.0760  0.1699 -0.3255
  677POPI   C4B10436   6.556   3.939   7.519  0.1390  0.0263 -0.1756
  678POPI    C110437   6.386  17.233   5.906  0.0343  0.1872  0.0823
  678POPI    C210438   6.128  17.228   5.601  0.0841  0.2085  0.0396
  678POPI    C310439   6.521  17.251   5.530  0.0928  0.2695  0.1069
  678POPI   PO410440   6.344  16.980   6.079 -0.0471  0.1937 -0.1636
  678POPI   GL110441   6.301  16.749   6.415 -0.0253 -0.2364  0.0127
  678POPI   GL210442   6.545  16.885   6.521 -0.0923 -0.1931 -0.0202
  678POPI   C1A10443   6.231  16.642   6.814  0.0768  0.2766 -0.0567
  678POPI   D2A10444   6.282  16.412   7.153  0.0064  0.1145  0.1322
  678POPI   C3A10445   6.576  16.462   7.370 -0.1639  0.0094 -0.2550
  678POPI   C4A10446   6.912  16.222   7.385  0.0063  0.0458  0.1463
  678POPI   C1B10447   6.612  16.882   7.078 -0.1617 -0.0777 -0.3940
  678POPI   C2B10448   6.541  16.918   7.470 -0.2039  0.0587  0.0448
  678POPI   C3B10449   6.572  17.326   7.651 -0.1473  0.0429 -0.3267
  678POPI   C4B10450   6.860  17.646   7.813 -0.0982 -0.0205 -0.0112
  679POPI    C110451  13.675  15.049   5.935 -0.2016 -0.2159  0.0132
  679POPI    C210452  13.463  14.856   5.656 -0.1447  0.0880 -0.2459
  679POPI    C310453  13.508  15.253   5.634  0.0506  0.0867  0.0734
  679POPI   PO410454  13.639  14.881   6.143 -0.1423 -0.2857 -0.1993
  679POPI   GL110455  13.430  15.061   6.451  0.0747 -0.4048 -0.1712
  679POPI   GL210456  13.182  14.958   6.529 -0.0666 -0.3469 -0.5511
  679POPI   C1A10457  13.615  15.149   6.751  0.0220  0.1195 -0.3521
  679POPI   D2A10458  13.520  14.943   7.104  0.1728 -0.0462 -0.1915
  679POPI   C3A10459  13.269  14.865   7.598 -0.2957  0.5516 -0.1667
  679POPI   C4A10460  12.968  14.601   7.726 -0.1470 -0.0640  0.2221
  679POPI   C1B10461  13.130  15.185   6.904  0.0929 -0.0491  0.0736
  679POPI   C2B10462  13.166  15.227   7.224 -0.1353 -0.2835  0.2105
  679POPI   C3B10463  13.255  15.369   7.517 -0.2691 -0.1966  0.0515
  679POPI   C4B10464  13.374  15.834   7.657  0.0461 -0.1628 -0.0162
  680POPI    C110465  10.314   7.051   5.488 -0.0964  0.0360  0.2174
  680POPI    C210466  10.594   6.778   5.406  0.1530  0.2678  0.2812
  680POPI    C310467  10.286   6.829   5.157  0.1248 -0.0412  0.2485
  680POPI   PO410468  10.505   7.237   5.677  0.0264  0.1029 -0.0038
  680POPI   GL110469  10.374   7.384   6.130 -0.1463  0.0957  0.0323
  680POPI   GL210470  10.529   7.098   6.198 -0.2823  0.0841 -0.2496
  680POPI   C1A10471  10.225   7.480   6.533  0.0134  0.1220  0.1311
  680POPI   D2A10472  10.092   7.529   6.910 -0.0404  0.1023 -0.0942
  680POPI   C3A10473  10.028   7.251   7.198 -0.0603  0.0165  0.4834
  680POPI   C4A10474  10.167   6.873   7.264  0.1661 -0.2389  0.0181
  680POPI   C1B10475  10.462   7.077   6.569  0.1371 -0.2899 -0.0148
  680POPI   C2B10476  10.499   7.167   6.932 -0.1690 -0.2181 -0.0490
  680POPI   C3B10477  10.609   7.185   7.342 -0.1923  0.0682  0.3829
  680POPI   C4B10478  10.483   6.991   7.663 -0.0077  0.2583  0.3885
  681POPI    C110479  17.286   9.358   6.091 -0.1494  0.0530  0.1301
  681POPI    C210480  16.907   9.378   5.964 -0.1047 -0.0266 -0.0181
  681POPI    C310481  17.199   9.280   5.709  0.0356  0.1772  0.0612
  681POPI   PO410482  17.229   9.349   6.410  0.0178  0.1023  0.1911
  681POPI   GL110483  17.242   9.272   6.815 -0.0243  0.2070  0.2939
  681POPI   GL210484  16.993   9.094   6.878 -0.2038 -0.1522  0.0281
  681POPI   C1A10485  17.430   9.414   7.205 -0.0958  0.1261  0.0763
  681POPI   D2A10486  17.571   9.561   7.620  0.0407  0.0576  0.0500
  681POPI   C3A10487  17.386   9.392   8.020  0.0289 -0.1725 -0.2626
  681POPI   C4A10488  17.311   9.561   8.372  0.0552 -0.0252  0.2065
  681POPI   C1B10489  17.007   9.020   7.285  0.1835  0.0014 -0.0011
  681POPI   C2B10490  17.320   8.992   7.613  0.0074  0.2135  0.0444
  681POPI   C3B10491  17.392   8.795   8.032 -0.1916 -0.0646  0.0469
  681POPI   C4B10492  17.730   8.533   8.097 -0.0372 -0.0052  0.1246
  682POPI    C110493   0.359  14.605   6.246 -0.0699  0.1857  0.0828
  682POPI    C210494   0.661  14.644   5.987 -0.0333  0.0765  0.1083
  682POPI    C310495   0.621  14.306   6.197 -0.0776  0.1547  0.2269
  682POPI   PO410496   0.365  14.795   6.379 -0.2799  0.0736 -0.4235
  682POPI   GL110497   0.496  14.896   6.747 -0.1777  0.0636 -0.0181
  682POPI   GL210498   0.655  14.542   6.712 -0.0644 -0.2038  0.1012
  682POPI   C1A10499   0.620  14.966   7.180  0.2219 -0.1529 -0.0895
  682POPI   D2A10500   0.667  14.844   7.599  0.1452  0.1586  0.1430
  682POPI   C3A10501   0.591  14.405   7.695 -0.0218 -0.2207 -0.0247
  682POPI   C4A10502   0.274  14.052   7.878 -0.0274  0.2201  0.0960
  682POPI   C1B10503   0.812  14.442   7.081 -0.1015 -0.1335  0.1969
  682POPI   C2B10504   1.073  14.201   7.307 -0.1165 -0.1697 -0.0339
  682POPI   C3B10505   1.294  14.233   7.698 -0.3356 -0.1110  0.0003
  682POPI   C4B10506   1.335  14.147   8.082  0.0999  0.0032 -0.0336
  683POPI    C110507  14.085  15.211   5.538 -0.0981  0.0048  0.0652
  683POPI    C210508  14.207  14.916   5.297 -0.2304  0.0257 -0.0290
  683POPI    C310509  13.816  14.987   5.343 -0.2003  0.1566  0.0297
  683POPI   PO410510  14.169  15.146   5.815  0.1204 -0.0047 -0.0087
  683POPI   GL110511  14.129  15.070   6.188  0.0406 -0.1825  0.2603
  683POPI   GL210512  14.023  14.976   6.449  0.1171  0.2458  0.3686
  683POPI   C1A10513  14.449  15.267   6.465  0.1090  0.0504  0.0572
  683POPI   D2A10514  14.654  15.460   6.857  0.1782  0.3255  0.0579
  683POPI   C3A10515  14.783  15.748   7.005  0.2387 -0.2056 -0.1789
  683POPI   C4A10516  15.172  15.987   7.140 -0.0664  0.2327 -0.2412
  683POPI   C1B10517  14.200  14.967   6.840  0.2368  0.0494 -0.3522
  683POPI   C2B10518  14.013  14.822   7.211 -0.0999 -0.0236  0.1132
  683POPI   C3B10519  13.931  14.831   7.652 -0.1191  0.3172  0.2924
  683POPI   C4B10520  13.718  14.699   7.974  0.0588 -0.3422  0.1115
  684POPI    C110521  11.745  15.086   6.239 -0.0554  0.0743 -0.1269
  684POPI    C210522  11.983  15.188   5.933 -0.0319  0.0697 -0.1101
  684POPI    C310523  11.601  15.089   5.865 -0.0215  0.0502 -0.1402
  684POPI   PO410524  11.750  15.358   6.430 -0.0381 -0.0638 -0.1438
  684POPI   GL110525  11.946  15.662   6.795  0.3535 -0.1273 -0.2614
  684POPI   GL210526  11.779  15.398   6.925  0.2251  0.1927 -0.2218
  684POPI   C1A10527  11.940  15.889   7.194 -0.1404  0.0809 -0.2829
  684POPI   D2A10528  11.828  16.289   7.380 -0.2350 -0.2604 -0.1155
  684POPI   C3A10529  12.111  16.367   7.766 -0.1262  0.2705 -0.2347
  684POPI   C4A10530  12.452  16.350   7.927 -0.2631 -0.3828 -0.1839
  684POPI   C1B10531  11.604  15.473   7.395  0.2414 -0.0364  0.2188
  684POPI   C2B10532  11.719  15.833   7.673 -0.1240 -0.3296 -0.1381
  684POPI   C3B10533  11.986  15.837   8.006 -0.0646  0.3310  0.2402
  684POPI   C4B10534  12.426  15.903   8.178 -0.0434 -0.3263 -0.1017
  685POPI    C110535  16.361  10.144   6.577  0.2032  0.2553  0.1840
  685POPI    C210536  16.469  10.158   6.192 -0.1479  0.0826  0.0746
  685POPI    C310537  16.430  10.497   6.402  0.5884  0.1546  0.1231
  685POPI   PO410538  16.555   9.919   6.691  0.0102 -0.1268  0.0563
  685POPI   GL110539  16.686   9.707   7.084  0.1282  0.2363 -0.3523
  685POPI   GL210540  16.943   9.504   7.153 -0.3339  0.1256  0.3078
  685POPI   C1A10541  16.743   9.820   7.481 -0.2820 -0.4184  0.0121
  685POPI   D2A10542  16.879  10.218   7.773  0.1130 -0.1640 -0.1617
  685POPI   C3A10543  16.705  10.482   8.181 -0.2275 -0.1669 -0.1047
  685POPI   C4A10544  16.407  10.783   8.424 -0.2509 -0.1576 -0.3864
  685POPI   C1B10545  17.091   9.454   7.545  0.2395 -0.0985 -0.0716
  685POPI   C2B10546  16.988   9.705   7.936  0.0337 -0.1623 -0.0766
  685POPI   C3B10547  16.853   9.422   8.314 -0.0675 -0.0498 -0.1434
  685POPI   C4B10548  16.847   9.019   8.440 -0.1728  0.1241 -0.0677
  686POPI    C110549   6.997  17.658   5.732 -0.1797 -0.0067 -0.1584
  686POPI    C210550   6.841  17.669   5.364  0.1330 -0.5541 -0.3181
  686POPI    C310551   7.238  17.686   5.414  0.0774 -0.0736  0.0270
  686POPI   PO410552   6.806  17.458   5.885 -0.1767 -0.0538  0.1035
  686POPI   GL110553   6.825  17.227   6.292  0.2961  0.0625 -0.4068
  686POPI   GL210554   7.202  17.266   6.104 -0.0209  0.1889 -0.1015
  686POPI   C1A10555   6.795  17.237   6.757 -0.0715  0.0595  0.2772
  686POPI   D2A10556   6.881  17.435   7.126 -0.1382 -0.1187  0.1370
  686POPI   C3A10557   7.267  17.626   7.460  0.0122  0.2747 -0.2296
  686POPI   C4A10558   7.562  17.878   7.697 -0.1429  0.0190  0.1805
  686POPI   C1B10559   7.592  17.198   6.269 -0.0080  0.3641 -0.0461
  686POPI   C2B10560   8.001  17.376   6.508  0.0431  0.0736 -0.1164
  686POPI   C3B10561   8.146  17.702   6.761  0.0297  0.4880  0.1141
  686POPI   C4B10562   8.271  17.651   7.196  0.2852  0.1117 -0.1720
  687POPI    C110563   9.577  16.167   5.960  0.1676 -0.0283  0.0459
  687POPI    C210564   9.614  16.565   5.958  0.3685 -0.0445  0.2018
  687POPI    C310565   9.548  16.369   5.616  0.2828  0.1205  0.1222
  687POPI   PO410566   9.761  16.070   6.217 -0.3068  0.1266 -0.1527
  687POPI   GL110567   9.562  16.080   6.619 -0.0142  0.2490 -0.2819
  687POPI   GL210568   9.386  16.002   6.755 -0.2376 -0.2240  0.1864
  687POPI   C1A10569   9.807  16.017   7.040  0.0365  0.0817 -0.0935
  687POPI   D2A10570   9.595  15.920   7.344  0.0467  0.1856  0.2626
  687POPI   C3A10571   9.613  15.911   7.840  0.3039 -0.1071 -0.1320
  687POPI   C4A10572   9.786  15.727   8.205  0.0499 -0.1347 -0.0206
  687POPI   C1B10573   9.080  15.860   7.086 -0.1052 -0.2551  0.0686
  687POPI   C2B10574   9.137  16.088   7.561 -0.0812  0.1086  0.0093
  687POPI   C3B10575   8.773  16.226   7.832 -0.0049  0.1869  0.1849
  687POPI   C4B10576   8.550  16.612   8.032  0.0062 -0.1637 -0.1545
  688POPI    C110577  10.014   1.243   5.790  0.0962 -0.0806 -0.1590
  688POPI    C210578   9.866   1.083   5.454  0.2160 -0.2729 -0.1221
  688POPI    C310579  10.257   1.058   5.532  0.2008 -0.1606 -0.0047
  688POPI   PO410580   9.824   1.396   5.828  0.0014  0.1005  0.1298
  688POPI   GL110581   9.639   1.496   6.094  0.0833 -0.0839 -0.1034
  688POPI   GL210582   9.676   1.175   6.266  0.0361  0.2335 -0.0288
  688POPI   C1A10583   9.521   1.574   6.566  0.1709  0.1508  0.0745
  688POPI   D2A10584   9.591   1.989   6.761 -0.1957 -0.0832  0.3460
  688POPI   C3A10585   9.694   1.937   7.118  0.1515 -0.0541  0.0251
  688POPI   C4A10586   9.763   2.185   7.538  0.0550  0.1519  0.1077
  688POPI   C1B10587   9.645   1.146   6.812 -0.2527 -0.3069  0.1397
  688POPI   C2B10588   9.524   1.505   7.063  0.0708 -0.1385  0.4033
  688POPI   C3B10589   9.424   1.605   7.499  0.2579  0.0597  0.1501
  688POPI   C4B10590   9.464   1.850   7.858 -0.0459  0.0519  0.1485
  689POPI    C110591  15.167  17.681   5.840  0.2110  0.1826  0.1651
  689POPI    C210592  15.444  17.861   5.615  0.0492  0.2728  0.0364
  689POPI    C310593  15.219  17.569   5.460  0.2980 -0.0319  0.2389
  689POPI   PO410594  15.166  17.830   6.042 -0.0188  0.0523 -0.3434
  689POPI   GL110595  15.289  17.957   6.351 -0.1339  0.1710 -0.3942
  689POPI   GL210596  15.416  17.667   6.538 -0.0844 -0.1251  0.0620
  689POPI   C1A10597  15.222  18.149   6.703 -0.5245 -0.1021 -0.0265
  689POPI   D2A10598  15.322  18.164   7.156 -0.1483  0.0525  0.0561
  689POPI   C3A10599  15.520  18.449   7.352 -0.3913 -0.0624  0.2368
  689POPI   C4A10600  15.747  18.755   7.508 -0.2276 -0.0269  0.2322
  689POPI   C1B10601  15.296  17.701   6.984 -0.1556  0.1240 -0.0075
  689POPI   C2B10602  15.400  17.692   7.379  0.1152  0.1968  0.1859
  689POPI   C3B10603  15.347  18.019   7.632  0.2451  0.1443 -0.1568
  689POPI   C4B10604  15.241  18.430   7.747  0.2329 -0.4981  0.4040
  690POPI    C110605   7.190   7.407   5.289 -0.0235  0.0122  0.0508
  690POPI    C210606   7.534   7.552   5.145 -0.0566  0.2251  0.1809
  690POPI    C310607   7.442   7.166   5.093  0.0575  0.2369 -0.1255
  690POPI   PO410608   7.162   7.357   5.529 -0.0306  0.1384  0.0945
  690POPI   GL110609   7.283   7.357   5.863 -0.0977  0.1088  0.0775
  690POPI   GL210610   7.553   7.165   5.966  0.2103 -0.3815  0.2024
  690POPI   C1A10611   7.264   7.329   6.337 -0.1367  0.4242  0.1156
  690POPI   D2A10612   7.064   7.308   6.781  0.0426 -0.1609  0.0033
  690POPI   C3A10613   7.048   7.114   7.150 -0.0289 -0.0952 -0.1547
  690POPI   C4A10614   6.917   7.079   7.517  0.1895 -0.3310 -0.2671
  690POPI   C1B10615   7.862   7.227   6.273  0.0229 -0.1753  0.0395
  690POPI   C2B10616   8.273   7.192   6.485 -0.0002 -0.1244 -0.1573
  690POPI   C3B10617   8.464   6.953   6.819 -0.1128  0.2181  0.1330
  690POPI   C4B10618   8.551   7.039   7.235  0.2295 -0.2180 -0.1700
  691POPI    C110619   3.639  15.567   6.058  0.1909 -0.2963  0.1432
  691POPI    C210620   3.360  15.392   6.285 -0.0077  0.2934  0.3747
  691POPI    C310621   3.333  15.375   5.886 -0.0853 -0.0881  0.3921
  691POPI   PO410622   3.799  15.532   6.088 -0.3263  0.0983  0.1370
  691POPI   GL110623   4.058  15.561   6.435  0.1026  0.1844 -0.0349
  691POPI   GL210624   4.184  15.796   6.616 -0.1318  0.1138  0.3918
  691POPI   C1A10625   4.122  15.322   6.836  0.4926 -0.2276 -0.0019
  691POPI   D2A10626   3.912  15.478   7.158  0.1760 -0.1598 -0.1826
  691POPI   C3A10627   4.006  15.712   7.396  0.2059 -0.0290 -0.0286
  691POPI   C4A10628   4.248  15.947   7.755 -0.1940 -0.1360 -0.1666
  691POPI   C1B10629   4.335  15.871   7.019 -0.1695 -0.2186  0.2148
  691POPI   C2B10630   4.568  16.119   7.242 -0.1549  0.1621 -0.0999
  691POPI   C3B10631   4.604  16.286   7.672  0.2046  0.3050  0.0679
  691POPI   C4B10632   4.244  16.412   7.995 -0.0882 -0.0884 -0.3246
  692POPI    C110633  12.172  16.173   5.946  0.0075  0.0375  0.0153
  692POPI    C210634  11.788  16.091   5.865  0.0016  0.0617  0.0188
  692POPI    C310635  12.078  15.851   5.727 -0.0063  0.1218 -0.1036
  692POPI   PO410636  12.231  16.478   5.906  0.0138 -0.1336  0.0277
  692POPI   GL110637  12.205  16.809   6.263  0.3163  0.1266  0.3917
  692POPI   GL210638  12.153  17.071   6.488 -0.2427 -0.2756  0.2399
  692POPI   C1A10639  12.009  16.607   6.694 -0.0921  0.1196 -0.0030
  692POPI   D2A10640  12.122  16.330   7.008 -0.3165 -0.0869  0.2668
  692POPI   C3A10641  12.492  16.462   7.370  0.0199  0.3900  0.1560
  692POPI   C4A10642  12.897  16.185   7.557 -0.0873 -0.0454 -0.3273
  692POPI   C1B10643  12.034  17.090   6.894 -0.0348 -0.0766  0.1293
  692POPI   C2B10644  12.168  16.900   7.295 -0.3132 -0.1234  0.1200
  692POPI   C3B10645  12.032  16.830   7.670  0.1817  0.0447 -0.2199
  692POPI   C4B10646  11.698  16.643   7.985 -0.2268 -0.1814  0.1894
  693POPI    C110647   9.580  14.094   5.793 -0.0059  0.1851  0.1584
  693POPI    C210648   9.225  13.928   5.873  0.0284  0.0938  0.1221
  693POPI    C310649   9.502  13.721   5.673  0.0722  0.1942  0.0784
  693POPI   PO410650   9.689  14.218   5.968 -0.0675  0.2435 -0.0470
  693POPI   GL110651   9.615  14.089   6.474 -0.1045  0.0413 -0.0990
  693POPI   GL210652   9.317  14.235   6.296  0.3473 -0.1873  0.3494
  693POPI   C1A10653   9.572  13.964   6.807 -0.0890 -0.1392 -0.1010
  693POPI   D2A10654   9.929  14.049   7.182  0.4779  0.0264 -0.0963
  693POPI   C3A10655   9.940  13.928   7.610  0.0387 -0.0165 -0.1103
  693POPI   C4A10656   9.920  13.654   7.962 -0.1072 -0.0514 -0.0876
  693POPI   C1B10657   9.135  14.498   6.620  0.1396  0.2527 -0.1716
  693POPI   C2B10658   8.959  14.552   6.956  0.1159 -0.1233 -0.3077
  693POPI   C3B10659   8.929  14.803   7.379 -0.0054 -0.1529  0.2569
  693POPI   C4B10660   8.979  14.731   7.859  0.0645 -0.0907 -0.1301
  694POPI    C110661   5.956  16.799   5.853  0.1531 -0.0051  0.0171
  694POPI    C210662   5.984  16.559   5.534  0.0438  0.0229 -0.0141
  694POPI    C310663   5.799  16.912   5.503  0.2565  0.1392  0.0163
  694POPI   PO410664   5.834  16.753   6.107 -0.4575 -0.2071 -0.0276
  694POPI   GL110665   5.629  16.827   6.473  0.0519 -0.1511  0.1802
  694POPI   GL210666   5.953  17.054   6.466 -0.1287 -0.1914  0.1338
  694POPI   C1A10667   5.749  16.932   6.892  0.0934  0.0381  0.1179
  694POPI   D2A10668   6.056  16.873   7.214 -0.2218 -0.2612  0.1107
  694POPI   C3A10669   6.116  16.612   7.551  0.0101  0.1183  0.0637
  694POPI   C4A10670   6.347  16.327   7.789 -0.0300 -0.1646  0.3439
  694POPI   C1B10671   6.276  17.130   6.772 -0.0001  0.0659 -0.0343
  694POPI   C2B10672   6.331  17.321   7.213  0.1714 -0.0499 -0.0566
  694POPI   C3B10673   6.061  17.254   7.575 -0.1264 -0.3553  0.0473
  694POPI   C4B10674   6.002  16.993   7.893  0.0048  0.2508 -0.0799
  695POPI    C110675   1.165   7.779   5.876  0.2400 -0.0588 -0.0148
  695POPI    C210676   1.060   8.138   6.016  0.2441 -0.0245 -0.0990
  695POPI    C310677   1.302   8.110   5.699  0.1110 -0.1001 -0.1949
  695POPI   PO410678   1.284   7.633   6.148 -0.3228 -0.4806  0.0315
  695POPI   GL110679   1.646   7.734   6.506  0.1313 -0.5560  0.0081
  695POPI   GL210680   2.015   7.799   6.528  0.0112 -0.0557  0.1035
  695POPI   C1A10681   1.760   7.878   6.914  0.0336  0.1738  0.0485
  695POPI   D2A10682   1.689   7.789   7.351  0.2686  0.0025 -0.2321
  695POPI   C3A10683   1.961   7.780   7.587  0.2305  0.5380  0.4562
  695POPI   C4A10684   2.162   7.741   7.961 -0.0084  0.0080 -0.1633
  695POPI   C1B10685   2.452   7.834   6.534  0.1615 -0.3750 -0.0065
  695POPI   C2B10686   2.731   7.754   6.874 -0.0625 -0.1226 -0.4935
  695POPI   C3B10687   2.919   7.931   7.167 -0.0234  0.0031  0.1696
  695POPI   C4B10688   2.796   8.241   7.425  0.0236 -0.0133  0.0522
  696POPI    C110689  11.417  11.430   5.615 -0.0688 -0.0157 -0.3418
  696POPI    C210690  11.341  11.049   5.710  0.3475  0.0231  0.1946
  696POPI    C310691  11.696  11.150   5.556  0.1304  0.1569 -0.2333
  696POPI   PO410692  11.227  11.503   5.816  0.0146  0.1186  0.0853
  696POPI   GL110693  11.236  11.588   6.262 -0.1388  0.1884  0.1464
  696POPI   GL210694  10.999  11.403   6.219  0.1909  0.1323 -0.0092
  696POPI   C1A10695  11.084  11.749   6.601 -0.2173 -0.0022  0.3053
  696POPI   D2A10696  10.988  11.921   7.028 -0.1086  0.2235  0.1238
  696POPI   C3A10697  10.820  11.773   7.321 -0.2608  0.2380 -0.0155
  696POPI   C4A10698  10.780  11.729   7.740  0.0152  0.4091  0.2157
  696POPI   C1B10699  10.922  11.254   6.562  0.0885 -0.2240 -0.3673
  696POPI   C2B10700  10.996  11.383   6.971  0.0992  0.1962 -0.2339
  696POPI   C3B10701  10.856  11.241   7.373 -0.0690 -0.1628  0.1150
  696POPI   C4B10702  10.802  10.818   7.491 -0.0764  0.1052 -0.2232
  697POPI    C110703  15.565  11.931   6.367  0.2313  0.1324  0.0477
  697POPI    C210704  15.488  11.978   5.977  0.0794  0.1060  0.0738
  697POPI    C310705  15.341  11.662   6.173  0.1742  0.1073  0.1480
  697POPI   PO410706  15.846  11.954   6.380 -0.1557 -0.2779  0.1217
  697POPI   GL110707  16.068  11.908   6.623 -0.0414  0.0312 -0.2545
  697POPI   GL210708  15.700  11.796   6.873  0.2515  0.0960  0.0844
  697POPI   C1A10709  16.138  11.882   7.128  0.3977  0.2396  0.2784
  697POPI   D2A10710  16.177  11.545   7.427 -0.0985 -0.0728 -0.2008
  697POPI   C3A10711  15.932  11.617   7.752 -0.3338 -0.2379 -0.3198
  697POPI   C4A10712  15.986  11.972   8.060 -0.2481 -0.2073  0.0142
  697POPI   C1B10713  15.723  11.930   7.311  0.3664  0.0108  0.0141
  697POPI   C2B10714  15.526  11.791   7.641  0.0940 -0.1413 -0.2058
  697POPI   C3B10715  15.421  11.986   7.979 -0.0796  0.1181  0.0159
  697POPI   C4B10716  15.185  11.898   8.249 -0.1169 -0.0045  0.1615
  698POPI    C110717  16.898   5.865   5.846  0.0469 -0.0306 -0.3102
  698POPI    C210718  16.808   5.568   5.594  0.0068 -0.0884 -0.2283
  698POPI    C310719  16.530   5.709   5.843  0.1241 -0.2264 -0.0162
  698POPI   PO410720  17.145   5.745   5.889 -0.2710  0.0675 -0.3431
  698POPI   GL110721  17.426   5.715   6.166 -0.0291 -0.4208 -0.1163
  698POPI   GL210722  17.256   5.881   6.481  0.0822 -0.2458  0.0533
  698POPI   C1A10723  17.313   5.381   6.467  0.1081  0.1561 -0.1508
  698POPI   D2A10724  17.256   5.293   6.896 -0.1422  0.0996 -0.1652
  698POPI   C3A10725  17.527   5.433   7.075 -0.0173 -0.0168  0.1452
  698POPI   C4A10726  17.780   5.510   7.384 -0.2207 -0.0923 -0.0463
  698POPI   C1B10727  17.044   5.895   6.809 -0.0052  0.0547 -0.4605
  698POPI   C2B10728  16.881   6.099   7.161  0.1592 -0.0588  0.0147
  698POPI   C3B10729  16.791   6.261   7.572 -0.1934  0.2426 -0.2806
  698POPI   C4B10730  16.423   6.457   7.672 -0.0133  0.2072 -0.0712
  699POPI    C110731   3.239  14.681   6.132 -0.1939  0.1365 -0.1199
  699POPI    C210732   3.231  14.880   5.785 -0.2437 -0.1590 -0.2913
  699POPI    C310733   3.503  14.593   5.845 -0.2070 -0.0798 -0.0669
  699POPI   PO410734   3.325  14.823   6.300 -0.0742  0.0344  0.1346
  699POPI   GL110735   3.099  15.020   6.689  0.3050 -0.2211  0.2313
  699POPI   GL210736   2.943  15.329   6.565  0.1257 -0.0029  0.0329
  699POPI   C1A10737   3.093  15.222   7.110  0.1375 -0.0655 -0.1251
  699POPI   D2A10738   2.986  15.165   7.468 -0.0984 -0.2952  0.1002
  699POPI   C3A10739   3.292  15.134   7.779 -0.0305 -0.0261  0.3009
  699POPI   C4A10740   3.569  15.290   8.125 -0.2718  0.0426 -0.0406
  699POPI   C1B10741   2.643  15.313   6.878 -0.2458  0.0907  0.5059
  699POPI   C2B10742   2.536  15.202   7.224  0.0443  0.1182 -0.4056
  699POPI   C3B10743   2.482  15.018   7.715  0.0883 -0.0710 -0.3290
  699POPI   C4B10744   2.312  14.697   7.997  0.0735  0.2676 -0.1674
  700POPI    C110745  15.175   7.133   5.617  0.1838  0.0978 -0.1750
  700POPI    C210746  14.876   7.125   5.352  0.0917 -0.2496 -0.0664
  700POPI    C310747  15.254   7.082   5.229  0.0814 -0.0304 -0.1799
  700POPI   PO410748  15.137   6.931   5.875 -0.0386  0.1776  0.1059
  700POPI   GL110749  15.198   7.120   6.307 -0.1005 -0.4831  0.1250
  700POPI   GL210750  15.479   6.941   6.405  0.0480  0.1034  0.0224
  700POPI   C1A10751  15.073   7.140   6.773 -0.0798  0.1750  0.2455
  700POPI   D2A10752  14.888   7.440   6.967 -0.1076 -0.0506  0.0724
  700POPI   C3A10753  14.937   7.578   7.321 -0.3869  0.1130  0.0316
  700POPI   C4A10754  15.180   7.369   7.716  0.2003 -0.2059 -0.1400
  700POPI   C1B10755  15.448   6.801   6.833 -0.1888 -0.2583  0.2923
  700POPI   C2B10756  15.426   6.746   7.280 -0.0789 -0.0571  0.0809
  700POPI   C3B10757  15.508   6.966   7.588 -0.4734  0.0380 -0.0834
  700POPI   C4B10758  15.671   7.396   7.875  0.1865 -0.0101 -0.0508
  701POPS   CNO10759   6.204  10.259   5.926  0.0194  0.0571  0.0859
  701POPS   PO410760   6.016   9.910   6.107  0.0875 -0.0703 -0.0093
  701POPS   GL110761   5.861  10.149   6.361 -0.1761  0.3435  0.3617
  701POPS   GL210762   5.893  10.435   6.553 -0.2038  0.2949 -0.1926
  701POPS   C1A10763   5.590  10.031   6.779 -0.0796 -0.0145 -0.0741
  701POPS   D2A10764   5.552  10.018   7.252  0.2126  0.2342  0.1035
  701POPS   C3A10765   5.782  10.207   7.550 -0.0395 -0.2237 -0.1617
  701POPS   C4A10766   5.594  10.233   7.989 -0.5758 -0.2082 -0.0667
  701POPS   C1B10767   5.551  10.526   6.874 -0.0292  0.1385 -0.0243
  701POPS   C2B10768   5.525  10.615   7.362 -0.2052 -0.0307 -0.0337
  701POPS   C3B10769   5.304  10.502   7.719  0.0504  0.2793 -0.1517
  701POPS   C4B10770   4.845  10.638   7.878  0.0091 -0.3283 -0.0410
  702POPS   CNO10771  11.281   1.391   6.328  0.0193 -0.0864  0.2173
  702POPS   PO410772  11.222   1.876   6.327  0.1923 -0.0990  0.1231
  702POPS   GL110773  11.634   1.770   6.509 -0.2076  0.0598 -0.1943
  702POPS   GL210774  11.734   2.057   6.656  0.0383 -0.0675 -0.0342
  702POPS   C1A10775  11.845   1.668   6.972  0.0988  0.1334 -0.0520
  702POPS   D2A10776  12.218   1.816   7.226 -0.0256  0.0409  0.0587
  702POPS   C3A10777  12.524   2.232   7.210 -0.0943 -0.3154 -0.1492
  702POPS   C4A10778  12.909   2.202   7.428  0.0357 -0.1848 -0.1238
  702POPS   C1B10779  11.394   1.954   7.020 -0.1875 -0.1388  0.0310
  702POPS   C2B10780  11.262   1.861   7.472  0.1991  0.1336 -0.1610
  702POPS   C3B10781  11.372   1.938   7.799  0.0549  0.1933 -0.2823
  702POPS   C4B10782  11.187   2.058   8.167  0.1961  0.1229  0.4973
  703POPS   CNO10783  15.286   6.353   5.729 -0.0883  0.1677  0.3650
  703POPS   PO410784  15.680   6.177   5.818  0.0658 -0.3809 -0.1960
  703POPS   GL110785  15.659   6.199   6.276  0.3557 -0.1286  0.1329
  703POPS   GL210786  15.679   6.529   6.353 -0.1077 -0.1206  0.1448
  703POPS   C1A10787  15.919   6.185   6.662  0.0839  0.1731  0.0697
  703POPS   D2A10788  16.368   6.042   6.709  0.3121  0.0517 -0.1651
  703POPS   C3A10789  16.563   5.681   6.956 -0.0109  0.4912 -0.1843
  703POPS   C4A10790  16.519   5.411   7.300  0.1256 -0.0590 -0.2173
  703POPS   C1B10791  15.457   6.347   6.688 -0.0599 -0.1048 -0.1116
  703POPS   C2B10792  15.398   6.283   7.101  0.0577 -0.0304 -0.1165
  703POPS   C3B10793  15.536   6.362   7.603 -0.3041 -0.0278  0.1151
  703POPS   C4B10794  15.512   6.639   8.010 -0.4086 -0.0616 -0.0155
  704POPS   CNO10795  13.835   0.940   5.966 -0.0092  0.2259 -0.0808
  704POPS   PO410796  13.532   0.764   6.049  0.0348 -0.0576 -0.0165
  704POPS   GL110797  13.523   0.660   6.439 -0.2585  0.0360 -0.0880
  704POPS   GL210798  13.710   0.377   6.470  0.1936 -0.0032 -0.1725
  704POPS   C1A10799  13.380   0.402   6.827 -0.0139 -0.0074  0.1956
  704POPS   D2A10800  13.520   0.249   7.223 -0.3843 -0.0574  0.0960
  704POPS   C3A10801  13.258  -0.070   7.433 -0.0261 -0.0347 -0.3449
  704POPS   C4A10802  13.499  -0.313   7.729 -0.1439 -0.0116 -0.0952
  704POPS   C1B10803  13.909   0.010   6.647 -0.0617  0.0536  0.0565
  704POPS   C2B10804  13.944  -0.150   7.023  0.0034  0.0206  0.1089
  704POPS   C3B10805  13.848  -0.074   7.444 -0.0081 -0.2050 -0.0268
  704POPS   C4B10806  13.745   0.155   7.840  0.1704 -0.1912 -0.1021
  705POPS   CNO10807   8.194  15.817   5.712 -0.1000 -0.0299 -0.1047
  705POPS   PO410808   8.096  15.960   6.110  0.1012  0.0290  0.2626
  705POPS   GL110809   8.048  15.978   6.514 -0.2477 -0.0563 -0.2784
  705POPS   GL210810   8.174  15.705   6.557  0.2333 -0.0111  0.0203
  705POPS   C1A10811   8.370  16.049   6.953  0.3188 -0.1993  0.3009
  705POPS   D2A10812   8.162  15.959   7.298  0.1581  0.2433 -0.1014
  705POPS   C3A10813   8.372  15.942   7.728 -0.0482 -0.1568  0.2263
  705POPS   C4A10814   8.301  16.173   8.085  0.0069 -0.1312  0.0467
  705POPS   C1B10815   7.915  15.627   7.038  0.1879 -0.0543  0.1814
  705POPS   C2B10816   7.741  15.390   7.442  0.1874  0.3219  0.1414
  705POPS   C3B10817   7.954  15.595   7.839 -0.2693 -0.0791 -0.1296
  705POPS   C4B10818   8.352  15.458   7.925 -0.4052 -0.3142 -0.0240
  706POPS   CNO10819  14.237  10.751   5.984 -0.4746 -0.1320 -0.3413
  706POPS   PO410820  14.049  10.310   6.185 -0.0222  0.2933  0.0484
  706POPS   GL110821  13.933  10.235   6.672 -0.3116 -0.1125 -0.4668
  706POPS   GL210822  14.029  10.525   6.926 -0.1862 -0.0052 -0.2555
  706POPS   C1A10823  13.749  10.112   7.067 -0.2426 -0.1467 -0.0454
  706POPS   D2A10824  13.602  10.126   7.517 -0.1069 -0.2401 -0.0106
  706POPS   C3A10825  13.241  10.306   7.675  0.0979 -0.0869  0.1944
  706POPS   C4A10826  13.053  10.592   7.849  0.2443  0.1869 -0.1027
  706POPS   C1B10827  13.824  10.560   7.320 -0.1764 -0.1673  0.1722
  706POPS   C2B10828  13.632  10.621   7.800  0.1008  0.1612 -0.0558
  706POPS   C3B10829  13.810  10.927   8.015  0.2475  0.0789 -0.0380
  706POPS   C4B10830  13.870  11.184   8.266 -0.0550  0.0042  0.0019
  707POPS   CNO10831   6.944  15.328   5.783 -0.1691 -0.2923  0.0399
  707POPS   PO410832   6.431  15.430   5.728  0.1216  0.0765  0.1912
  707POPS   GL110833   6.539  15.493   6.101  0.0766 -0.0310  0.5615
  707POPS   GL210834   6.347  15.507   6.327  0.6693 -0.0857  0.2292
  707POPS   C1A10835   6.709  15.211   6.387 -0.1390 -0.1341  0.0467
  707POPS   D2A10836   6.792  15.266   6.896  0.2438  0.3228  0.4024
  707POPS   C3A10837   6.946  15.103   7.222  0.3252 -0.2778 -0.4730
  707POPS   C4A10838   6.914  14.821   7.580 -0.1747  0.1607  0.4206
  707POPS   C1B10839   6.507  15.570   6.697  0.4645  0.2400 -0.1169
  707POPS   C2B10840   6.540  15.514   7.253  0.0376  0.2145 -0.0089
  707POPS   C3B10841   6.753  15.359   7.631  0.0163  0.0650 -0.0599
  707POPS   C4B10842   6.937  15.043   8.024 -0.2257 -0.1490  0.4239
  708POPS   CNO10843  16.038   5.308   5.887 -0.2100  0.1334  0.4480
  708POPS   PO410844  16.411   5.226   5.684  0.2876 -0.2180 -0.1112
  708POPS   GL110845  16.379   5.270   6.201 -0.1508  0.0152  0.3927
  708POPS   GL210846  16.550   4.964   6.318  0.3539  0.1363 -0.1379
  708POPS   C1A10847  16.355   5.372   6.650  0.1541 -0.1382  0.2064
  708POPS   D2A10848  16.085   5.638   6.862 -0.1334 -0.1198 -0.4314
  708POPS   C3A10849  15.973   5.463   7.319  0.2381  0.0539  0.1165
  708POPS   C4A10850  15.918   5.658   7.715 -0.0054 -0.0455  0.2021
  708POPS   C1B10851  16.377   4.876   6.710 -0.1930  0.1427 -0.1768
  708POPS   C2B10852  16.130   5.077   7.068 -0.1539 -0.2800  0.0340
  708POPS   C3B10853  15.889   4.983   7.407 -0.2393 -0.1410 -0.2224
  708POPS   C4B10854  15.773   4.999   7.847  0.0514  0.0537  0.0888
  709POPS   CNO10855  12.989   1.747   5.737 -0.2107 -0.0729  0.0234
  709POPS   PO410856  13.367   1.720   5.986 -0.0013 -0.0700  0.2455
  709POPS   GL110857  13.082   1.684   6.330  0.0050 -0.2434  0.2869
  709POPS   GL210858  12.958   1.439   6.191  0.1419 -0.1137  0.1140
  709POPS   C1A10859  13.152   1.882   6.733  0.0447  0.0763  0.4180
  709POPS   D2A10860  13.222   1.997   7.162 -0.0028  0.0785  0.0916
  709POPS   C3A10861  13.078   1.760   7.451 -0.2480  0.2756  0.0123
  709POPS   C4A10862  13.011   1.476   7.742  0.2046 -0.0651 -0.0112
  709POPS   C1B10863  12.769   1.328   6.592  0.2393 -0.0872  0.0193
  709POPS   C2B10864  12.832   1.170   7.014 -0.0321  0.0061 -0.2202
  709POPS   C3B10865  12.987   1.003   7.378  0.1429  0.0775 -0.4438
  709POPS   C4B10866  13.339   1.142   7.530 -0.4205 -0.0918 -0.0586
  710POPS   CNO10867  11.620   9.087   5.854  0.1308  0.1401 -0.0883
  710POPS   PO410868  11.227   8.981   5.680 -0.0740 -0.3808 -0.2180
  710POPS   GL110869  11.227   8.860   6.120 -0.0572  0.1264 -0.1906
  710POPS   GL210870  10.932   8.780   6.285 -0.1813 -0.0356 -0.0239
  710POPS   C1A10871  11.371   8.477   6.384 -0.0153  0.2944  0.0188
  710POPS   D2A10872  11.614   8.321   6.715  0.0263  0.1935  0.0461
  710POPS   C3A10873  12.076   8.531   6.649 -0.0817 -0.0666 -0.0766
  710POPS   C4A10874  12.387   8.883   6.473 -0.0698 -0.0259 -0.3094
  710POPS   C1B10875  10.921   8.613   6.684  0.0326  0.1640  0.0795
  710POPS   C2B10876  10.676   8.741   7.033  0.0228 -0.1075 -0.0589
  710POPS   C3B10877  10.338   8.413   7.062 -0.1986  0.3397  0.2843
  710POPS   C4B10878  10.284   8.023   7.029  0.1795  0.3043 -0.1390
  711POPS   CNO10879   6.148   4.577   5.457  0.1718  0.0090 -0.2786
  711POPS   PO410880   6.303   4.971   5.456 -0.0966  0.0480  0.1987
  711POPS   GL110881   6.385   5.039   5.925  0.1367  0.1749  0.1779
  711POPS   GL210882   6.340   5.316   6.079 -0.0039  0.1082  0.3171
  711POPS   C1A10883   6.267   4.901   6.401 -0.0391  0.2192  0.1690
  711POPS   D2A10884   6.238   5.057   6.842 -0.3002 -0.0505  0.0433
  711POPS   C3A10885   6.378   4.881   7.208  0.1541 -0.1786 -0.1956
  711POPS   C4A10886   6.688   4.656   7.329  0.1537 -0.0590  0.1139
  711POPS   C1B10887   6.499   5.433   6.521 -0.1125  0.2107 -0.2464
  711POPS   C2B10888   6.368   5.532   6.901 -0.1053 -0.0676 -0.2925
  711POPS   C3B10889   5.934   5.774   7.011  0.1568  0.1731 -0.0690
  711POPS   C4B10890   5.898   5.784   7.564  0.0921 -0.1620 -0.1142
  712POPS   CNO10891  13.269  14.350   5.699 -0.3330  0.0305  0.2147
  712POPS   PO410892  13.584  14.422   5.941  0.0933  0.2298 -0.5347
  712POPS   GL110893  13.518  14.356   6.392 -0.3073  0.1885 -0.1928
  712POPS   GL210894  13.693  14.603   6.519 -0.0629  0.0233 -0.4445
  712POPS   C1A10895  13.311  14.378   6.768  0.0183 -0.2026 -0.2562
  712POPS   D2A10896  13.202  14.610   7.083 -0.0700 -0.1489 -0.1881
  712POPS   C3A10897  12.893  14.838   7.262 -0.1580 -0.0566  0.2000
  712POPS   C4A10898  12.791  15.119   7.656  0.0376 -0.3241 -0.2766
  712POPS   C1B10899  13.787  14.403   6.927  0.0199  0.1484  0.2994
  712POPS   C2B10900  13.718  14.484   7.360 -0.2107 -0.1719 -0.0394
  712POPS   C3B10901  13.840  14.260   7.635 -0.2290 -0.2790 -0.0307
  712POPS   C4B10902  14.208  14.063   7.738  0.0862  0.0597  0.2957
  713POPS   CNO10903  11.959  17.246   5.156 -0.0419  0.0099  0.0844
  713POPS   PO410904  11.682  17.156   5.586 -0.0902 -0.1972  0.1763
  713POPS   GL110905  11.448  17.181   5.943  0.1381  0.1933  0.3154
  713POPS   GL210906  11.669  17.068   6.237  0.2733  0.1647 -0.0446
  713POPS   C1A10907  11.221  17.259   6.407 -0.0301 -0.1377 -0.0044
  713POPS   D2A10908  11.241  17.455   6.814  0.0294  0.0981 -0.2442
  713POPS   C3A10909  11.204  17.242   7.062 -0.0263 -0.0780 -0.0068
  713POPS   C4A10910  11.338  17.232   7.589  0.0631 -0.1700  0.0068
  713POPS   C1B10911  11.566  16.861   6.624 -0.1909  0.1212  0.0201
  713POPS   C2B10912  11.791  16.692   7.100  0.1225 -0.2718  0.0769
  713POPS   C3B10913  11.553  16.736   7.499 -0.0168  0.2767 -0.0234
  713POPS   C4B10914  11.253  16.776   7.796  0.0755  0.1656  0.3570
  714POPS   CNO10915   0.353  10.225   5.879  0.0309 -0.0702  0.1945
  714POPS   PO410916   0.552  10.452   6.186 -0.0347 -0.1989  0.0512
  714POPS   GL110917   0.533  10.453   6.736  0.0373  0.0356  0.3673
  714POPS   GL210918   0.658  10.176   6.794  0.0790 -0.2151 -0.3632
  714POPS   C1A10919   0.875  10.647   7.060 -0.2190  0.1020 -0.2143
  714POPS   D2A10920   0.716  10.809   7.496 -0.0597 -0.0565  0.4798
  714POPS   C3A10921   0.917  11.062   7.814  0.0265  0.2718  0.0656
  714POPS   C4A10922   0.914  11.486   7.872  0.1391  0.1312  0.3036
  714POPS   C1B10923   0.824  10.178   7.277  0.1131 -0.0002  0.2647
  714POPS   C2B10924   0.886  10.350   7.641 -0.1414 -0.1222 -0.3661
  714POPS   C3B10925   1.165  10.614   7.934  0.2889 -0.1342  0.0922
  714POPS   C4B10926   1.449  10.901   7.824  0.0523 -0.0881 -0.1055
  715POPS   CNO10927   1.971  11.747   5.761  0.0849 -0.0417 -0.0986
  715POPS   PO410928   1.940  11.354   6.122 -0.1907 -0.2168 -0.0775
  715POPS   GL110929   1.705  11.369   6.586 -0.0026  0.4295 -0.1937
  715POPS   GL210930   1.911  11.265   6.856 -0.1285  0.3631  0.2257
  715POPS   C1A10931   1.425  11.368   6.968 -0.0891  0.1366 -0.0113
  715POPS   D2A10932   1.672  11.309   7.326 -0.0852 -0.0058  0.1092
  715POPS   C3A10933   1.814  11.034   7.517  0.3296  0.2221 -0.0292
  715POPS   C4A10934   1.844  10.621   7.537  0.2812 -0.1984  0.1525
  715POPS   C1B10935   2.079  10.842   7.084 -0.0418 -0.2847  0.0664
  715POPS   C2B10936   2.290  10.737   7.478 -0.2477  0.0936  0.0205
  715POPS   C3B10937   2.243  10.912   7.892  0.1927 -0.3162  0.2274
  715POPS   C4B10938   2.298  11.167   8.307 -0.0251 -0.0019  0.1484
  716POPS   CNO10939   2.808  10.267   6.150  0.0052  0.0243 -0.2037
  716POPS   PO410940   2.749   9.887   6.002 -0.0017  0.3119  0.2358
  716POPS   GL110941   2.951   9.882   6.433  0.1686 -0.1695  0.2979
  716POPS   GL210942   3.104   9.573   6.498  0.0614 -0.2236 -0.0469
  716POPS   C1A10943   2.997  10.163   6.824  0.1009  0.1061 -0.1469
  716POPS   D2A10944   3.034  10.193   7.290 -0.2506 -0.0716  0.3035
  716POPS   C3A10945   3.404  10.281   7.429  0.2191  0.2175 -0.0264
  716POPS   C4A10946   3.675  10.397   7.727  0.0271 -0.2193  0.1547
  716POPS   C1B10947   3.396   9.332   6.798  0.1255 -0.1200 -0.1145
  716POPS   C2B10948   3.745   9.035   6.953  0.1022 -0.0239 -0.4050
  716POPS   C3B10949   3.936   8.950   7.259 -0.0428  0.4453  0.1831
  716POPS   C4B10950   4.221   9.130   7.554  0.0874  0.0713  0.1470
  717POPS   CNO10951   8.789   6.151   5.520  0.0164 -0.0193 -0.1043
  717POPS   PO410952   8.766   5.706   5.653  0.0737 -0.2310  0.0674
  717POPS   GL110953   9.057   5.635   6.105  0.0612  0.1261 -0.0919
  717POPS   GL210954   9.127   5.898   6.231  0.1778 -0.0683  0.1989
  717POPS   C1A10955   9.294   5.305   6.411  0.2034  0.2135  0.3685
  717POPS   D2A10956   9.101   4.925   6.459  0.0152 -0.0888 -0.1545
  717POPS   C3A10957   9.063   4.936   6.819 -0.3842 -0.1262 -0.3195
  717POPS   C4A10958   9.072   4.732   7.125  0.0141 -0.1191  0.0369
  717POPS   C1B10959   9.191   5.740   6.572  0.0167  0.2750  0.2845
  717POPS   C2B10960   9.213   5.406   6.883  0.2308  0.0843  0.1284
  717POPS   C3B10961   9.132   5.232   7.237  0.2945  0.0352 -0.2056
  717POPS   C4B10962   9.100   5.049   7.581  0.3064 -0.2030 -0.1223
  718POPS   CNO10963   7.994   5.855   5.520  0.0367  0.1437 -0.0667
  718POPS   PO410964   8.015   5.822   5.955 -0.3856  0.0567 -0.0765
  718POPS   GL110965   8.244   5.945   6.442  0.4128 -0.1677 -0.2280
  718POPS   GL210966   7.971   6.095   6.656  0.4856 -0.4213  0.2003
  718POPS   C1A10967   8.561   5.796   6.762  0.2263 -0.0315  0.2118
  718POPS   D2A10968   8.675   5.352   6.969 -0.3497  0.0350  0.2893
  718POPS   C3A10969   8.295   5.273   7.222 -0.0420 -0.0485 -0.0406
  718POPS   C4A10970   8.129   5.229   7.600 -0.0364 -0.1060  0.0411
  718POPS   C1B10971   8.256   6.119   6.997  0.0732 -0.3209 -0.1386
  718POPS   C2B10972   8.534   5.913   7.241  0.0223  0.0672 -0.0619
  718POPS   C3B10973   8.826   6.098   7.616 -0.1992  0.0836 -0.0999
  718POPS   C4B10974   8.840   6.100   8.031  0.2038 -0.1031 -0.3972
  719POPS   CNO10975   9.575   2.632   5.689  0.2737 -0.3245  0.1698
  719POPS   PO410976   9.140   2.776   5.864  0.3049 -0.5039 -0.0551
  719POPS   GL110977   9.209   2.903   6.220  0.1786  0.0064  0.1766
  719POPS   GL210978   8.993   3.178   6.413 -0.1190  0.0830  0.1505
  719POPS   C1A10979   9.336   2.895   6.705  0.1516  0.2071  0.1828
  719POPS   D2A10980   9.297   3.011   7.110  0.0077 -0.1507 -0.2030
  719POPS   C3A10981   9.354   3.070   7.552  0.1297  0.1117  0.1621
  719POPS   C4A10982   9.159   3.399   7.610  0.2197  0.1420 -0.2680
  719POPS   C1B10983   9.171   3.398   6.803  0.4755  0.0306 -0.1369
  719POPS   C2B10984   9.510   3.575   6.836 -0.1975  0.1354  0.1188
  719POPS   C3B10985   9.896   3.663   6.622 -0.0729 -0.2717  0.2128
  719POPS   C4B10986  10.210   3.905   6.501  0.0291 -0.1966  0.1575
  720POPS   CNO10987   8.239   6.500   5.676 -0.1393  0.0009  0.4222
  720POPS   PO410988   8.466   6.237   5.880  0.1207 -0.1774  0.2273
  720POPS   GL110989   8.302   6.464   6.254 -0.0988 -0.1046  0.0948
  720POPS   GL210990   8.296   6.787   6.251 -0.1707  0.1900  0.1207
  720POPS   C1A10991   8.337   6.444   6.641 -0.0680  0.1600  0.1353
  720POPS   D2A10992   8.532   6.535   7.089 -0.1943 -0.0712  0.1067
  720POPS   C3A10993   8.350   6.360   7.460  0.1161 -0.0796 -0.0182
  720POPS   C4A10994   8.282   6.646   7.792 -0.0356 -0.1502 -0.2442
  720POPS   C1B10995   8.748   6.804   6.483 -0.0168 -0.1623 -0.2398
  720POPS   C2B10996   8.957   6.802   6.982 -0.0321 -0.0372 -0.1648
  720POPS   C3B10997   8.927   6.564   7.402 -0.0557 -0.0529 -0.0448
  720POPS   C4B10998   9.226   6.458   7.790  0.0025  0.0035  0.0606
  721POPS   CNO10999   5.900   4.108   5.929  0.2968  0.0778  0.4597
  721POPS   PO411000   5.644   4.383   5.598  0.2174 -0.0014 -0.2321
  721POPS   GL111001   5.418   4.440   5.927 -0.0301 -0.0794  0.1006
  721POPS   GL211002   5.185   4.234   5.964  0.0064 -0.1017  0.1454
  721POPS   C1A11003   5.737   4.465   6.291  0.3249  0.2169  0.0232
  721POPS   D2A11004   5.963   4.461   6.731  0.0075  0.3550  0.0488
  721POPS   C3A11005   5.949   4.674   7.151 -0.0602  0.2030 -0.1266
  721POPS   C4A11006   6.085   4.820   7.580 -0.1835 -0.5262  0.1282
  721POPS   C1B11007   5.265   4.367   6.375 -0.0560  0.2537  0.0233
  721POPS   C2B11008   5.043   4.659   6.723 -0.1583  0.2112 -0.1556
  721POPS   C3B11009   4.901   4.814   7.157  0.0421 -0.1391  0.0098
  721POPS   C4B11010   5.133   4.888   7.543  0.0789  0.0290 -0.2433
  722POPS   CNO11011   3.131   4.518   5.272  0.0961 -0.1831  0.0031
  722POPS   PO411012   3.160   4.781   5.635 -0.1693 -0.3593 -0.2858
  722POPS   GL111013   3.128   4.790   6.047 -0.0791  0.5086  0.0308
  722POPS   GL211014   3.279   5.171   6.110 -0.0200 -0.2095 -0.2110
  722POPS   C1A11015   2.776   4.765   6.433 -0.2958 -0.0703  0.1052
  722POPS   D2A11016   2.761   4.924   6.884 -0.1488 -0.0672  0.4205
  722POPS   C3A11017   3.066   5.242   6.943 -0.1152 -0.1099 -0.1536
  722POPS   C4A11018   3.361   5.429   6.829  0.1941  0.3186 -0.0256
  722POPS   C1B11019   3.443   5.453   6.363 -0.0701 -0.1470 -0.5348
  722POPS   C2B11020   3.759   5.644   6.621 -0.0937 -0.0230  0.0578
  722POPS   C3B11021   4.159   5.874   6.835 -0.0137 -0.2663 -0.1463
  722POPS   C4B11022   4.327   6.241   7.145 -0.2541  0.2070  0.2337
  723POPS   CNO11023   4.755   1.080   5.798 -0.1393  0.0895 -0.0119
  723POPS   PO411024   4.434   1.313   5.938  0.1061  0.0745  0.0129
  723POPS   GL111025   4.388   1.403   6.382  0.3002 -0.1080  0.0987
  723POPS   GL211026   4.309   1.704   6.384  0.0898  0.2524 -0.3378
  723POPS   C1A11027   4.278   1.280   6.794 -0.1086  0.1247  0.0522
  723POPS   D2A11028   4.375   1.330   7.250  0.1720 -0.1696 -0.0945
  723POPS   C3A11029   4.352   1.169   7.587  0.1442  0.0567 -0.3336
  723POPS   C4A11030   4.606   0.842   7.791 -0.1931 -0.1187  0.1760
  723POPS   C1B11031   4.396   1.738   6.892  0.1044  0.0015 -0.2392
  723POPS   C2B11032   4.628   1.714   7.247 -0.1410 -0.3395  0.0215
  723POPS   C3B11033   4.699   1.689   7.584 -0.1981 -0.0356 -0.1670
  723POPS   C4B11034   4.880   1.743   7.967  0.1507  0.2377 -0.0115
  724POPS   CNO11035  15.041   8.526   5.552 -0.3776  0.1216  0.0600
  724POPS   PO411036  14.824   8.286   5.991 -0.2211  0.3534  0.3514
  724POPS   GL111037  14.776   8.137   6.402 -0.0876  0.1815 -0.0757
  724POPS   GL211038  14.642   7.850   6.552  0.4285 -0.0565  0.5145
  724POPS   C1A11039  14.832   8.173   6.901  0.0208  0.1462 -0.2664
  724POPS   D2A11040  15.103   8.075   7.165 -0.2267 -0.2216 -0.1736
  724POPS   C3A11041  15.565   8.012   7.167  0.1944 -0.0207 -0.1103
  724POPS   C4A11042  15.885   7.746   6.894  0.2108  0.0647  0.0428
  724POPS   C1B11043  14.502   7.813   6.923  0.0922 -0.0522 -0.0312
  724POPS   C2B11044  14.504   7.551   7.303  0.2075 -0.0051 -0.1262
  724POPS   C3B11045  14.150   7.223   7.426 -0.2187 -0.1019  0.2142
  724POPS   C4B11046  13.778   6.954   7.729 -0.0579 -0.1664  0.3659
  725POPS   CNO11047   4.860  16.157   5.926 -0.2975 -0.1800  0.0434
  725POPS   PO411048   4.890  16.241   6.207 -0.1141  0.0038  0.0561
  725POPS   GL111049   4.773  16.011   6.545  0.1634  0.2479 -0.3230
  725POPS   GL211050   4.498  16.241   6.706  0.1546  0.2008  0.0528
  725POPS   C1A11051   4.921  15.887   6.892 -0.0161 -0.1165 -0.0700
  725POPS   D2A11052   5.029  15.693   7.328  0.4379  0.0570  0.0275
  725POPS   C3A11053   4.968  15.918   7.724 -0.1342 -0.0880 -0.0854
  725POPS   C4A11054   4.686  15.964   8.158 -0.1135  0.1674 -0.2725
  725POPS   C1B11055   4.871  16.372   6.940  0.1646 -0.3332 -0.1533
  725POPS   C2B11056   5.055  16.352   7.377 -0.0215  0.3373  0.0597
  725POPS   C3B11057   5.260  16.404   7.766  0.1048  0.0104 -0.1249
  725POPS   C4B11058   5.087  16.235   8.200 -0.0870 -0.3806  0.1368
  726POPS   CNO11059   4.661  13.892   6.024  0.2887 -0.1851 -0.3071
  726POPS   PO411060   4.515  14.280   6.243  0.1231 -0.0837 -0.1601
  726POPS   GL111061   4.784  14.407   6.544  0.1536 -0.2619  0.1136
  726POPS   GL211062   4.948  14.627   6.488  0.0875  0.2365 -0.1822
  726POPS   C1A11063   4.602  14.474   6.933  0.2124  0.0291  0.1059
  726POPS   D2A11064   4.659  14.398   7.388  0.0894 -0.1063  0.0878
  726POPS   C3A11065   4.863  14.311   7.768  0.0716  0.1588  0.5325
  726POPS   C4A11066   4.594  14.284   8.143 -0.3664 -0.2471  0.0059
  726POPS   C1B11067   4.920  14.828   6.800 -0.1911  0.1765  0.0209
  726POPS   C2B11068   5.107  14.774   7.202 -0.0011  0.2812 -0.0752
  726POPS   C3B11069   5.277  14.613   7.593  0.2604  0.0017  0.1446
  726POPS   C4B11070   5.492  14.383   7.780 -0.1882  0.0862 -0.1587
  727POPS   CNO11071   5.633   9.764   5.643  0.1572 -0.1629  0.1676
  727POPS   PO411072   5.463   9.846   6.117  0.1052  0.2706  0.2572
  727POPS   GL111073   5.358   9.677   6.497 -0.2585 -0.1405 -0.2182
  727POPS   GL211074   5.460   9.365   6.497  0.0806 -0.1437  0.6272
  727POPS   C1A11075   5.355   9.543   6.937 -0.1171  0.2024  0.1815
  727POPS   D2A11076   5.189   9.632   7.346 -0.0658  0.1607  0.3538
  727POPS   C3A11077   5.216   9.233   7.646 -0.1410  0.1174  0.1463
  727POPS   C4A11078   5.205   8.904   7.937 -0.1003 -0.0759  0.1817
  727POPS   C1B11079   5.706   9.146   6.799 -0.3413  0.1069 -0.0439
  727POPS   C2B11080   5.571   9.115   7.234 -0.1659  0.0407  0.2269
  727POPS   C3B11081   5.312   8.790   7.445 -0.2978  0.0312 -0.0471
  727POPS   C4B11082   5.119   8.401   7.730 -0.0448 -0.3020  0.0119
  728POPS   CNO11083   9.103  11.653   5.730  0.3483 -0.0160 -0.0633
  728POPS   PO411084   9.148  11.213   5.860 -0.0645  0.2144  0.1926
  728POPS   GL111085   9.022  11.288   6.220  0.1008 -0.2631 -0.0262
  728POPS   GL211086   8.639  11.275   6.276 -0.1542 -0.0109  0.1237
  728POPS   C1A11087   9.183  11.234   6.607 -0.0820  0.2205 -0.3290
  728POPS   D2A11088   9.281  11.110   6.995  0.0179  0.0098 -0.0797
  728POPS   C3A11089   8.843  10.935   7.157  0.2467  0.1002  0.1224
  728POPS   C4A11090   8.494  10.701   7.107 -0.1727  0.2015  0.1352
  728POPS   C1B11091   8.723  11.433   6.655 -0.1908 -0.1302  0.2459
  728POPS   C2B11092   8.639  11.378   7.085  0.1765 -0.0180 -0.1590
  728POPS   C3B11093   8.382  11.181   7.375 -0.1557 -0.0248 -0.0354
  728POPS   C4B11094   8.318  10.819   7.670  0.2274 -0.0209 -0.1079
  729POPS   CNO11095  17.660  10.617   6.361 -0.0421 -0.2144  0.3363
  729POPS   PO411096  17.317  10.587   6.674  0.1777 -0.4107  0.0881
  729POPS   GL111097  17.335  10.258   6.944  0.1110  0.0673 -0.1445
  729POPS   GL211098  17.016  10.093   7.106 -0.0988  0.0521  0.2108
  729POPS   C1A11099  17.678  10.185   7.235 -0.1109 -0.0778 -0.1810
  729POPS   D2A11100  17.768  10.015   7.548 -0.1161  0.0781 -0.5160
  729POPS   C3A11101  17.807  10.207   7.916  0.0917  0.0837 -0.2563
  729POPS   C4A11102  17.722  10.564   7.968 -0.2785 -0.0701  0.0319
  729POPS   C1B11103  17.218   9.957   7.533  0.0362  0.0666  0.0106
  729POPS   C2B11104  17.388   9.991   7.928  0.4099 -0.0953  0.1452
  729POPS   C3B11105  17.496  10.026   8.329 -0.0621  0.0037  0.1673
  729POPS   C4B11106  17.761  10.087   8.688 -0.2162 -0.2832  0.1211
  730POPS   CNO11107  10.974   4.829   6.035 -0.1605 -0.1205  0.1731
  730POPS   PO411108  10.916   4.464   5.730 -0.0487  0.0904 -0.0939
  730POPS   GL111109  10.821   4.356   6.132  0.0811  0.1556 -0.1307
  730POPS   GL211110  10.406   4.253   6.167 -0.2366  0.1804 -0.1586
  730POPS   C1A11111  10.764   4.317   6.543  0.1409 -0.1771  0.0422
  730POPS   D2A11112  10.654   4.523   6.913  0.3323 -0.2004 -0.1573
  730POPS   C3A11113  10.615   4.640   7.395  0.2130  0.2525 -0.2513
  730POPS   C4A11114  10.876   4.911   7.659  0.1774 -0.0983  0.2079
  730POPS   C1B11115  10.283   4.398   6.572  0.0409 -0.0003 -0.1738
  730POPS   C2B11116  10.038   4.548   6.932  0.0136  0.0054  0.0631
  730POPS   C3B11117   9.884   4.403   7.261  0.1057 -0.1253 -0.0571
  730POPS   C4B11118   9.877   4.486   7.725 -0.1542 -0.1304  0.0323
  731POPS   CNO11119   6.653  14.952   5.850  0.3868  0.1215  0.1153
  731POPS   PO411120   6.749  14.528   5.784  0.0802 -0.3572  0.0491
  731POPS   GL111121   6.891  14.620   6.142  0.1795 -0.1176  0.0024
  731POPS   GL211122   6.591  14.702   6.277  0.0558 -0.0114 -0.4588
  731POPS   C1A11123   7.191  14.494   6.566 -0.2412  0.0510 -0.0300
  731POPS   D2A11124   7.077  14.647   7.058  0.1806  0.0512 -0.0277
  731POPS   C3A11125   7.145  14.349   7.373  0.1507 -0.1257 -0.0818
  731POPS   C4A11126   7.081  14.496   7.917 -0.2589  0.2369  0.0889
  731POPS   C1B11127   6.713  14.778   6.723  0.1210 -0.0410  0.2588
  731POPS   C2B11128   6.605  14.689   7.204  0.2305  0.1770 -0.0134
  731POPS   C3B11129   6.535  14.489   7.586 -0.0349 -0.4704  0.0206
  731POPS   C4B11130   6.220  14.423   7.894  0.0765 -0.1689  0.1964
  732POPS   CNO11131   7.910  11.672   6.411  0.1811  0.2273  0.3815
  732POPS   PO411132   8.311  11.701   6.217 -0.0767  0.2425 -0.0911
  732POPS   GL111133   8.338  11.819   6.652  0.1014  0.0140  0.0208
  732POPS   GL211134   8.097  12.005   6.707 -0.2909 -0.2813  0.4037
  732POPS   C1A11135   8.169  11.588   7.007 -0.1169 -0.2213 -0.1326
  732POPS   D2A11136   8.236  11.672   7.450  0.0974 -0.1332  0.1294
  732POPS   C3A11137   8.259  11.931   7.762 -0.1757 -0.0866  0.3578
  732POPS   C4A11138   8.188  12.182   8.079 -0.2704 -0.1179  0.0597
  732POPS   C1B11139   7.902  12.028   7.062  0.0028 -0.2326  0.2277
  732POPS   C2B11140   7.804  12.041   7.457 -0.0318 -0.0851 -0.0390
  732POPS   C3B11141   7.615  12.150   7.874  0.2412 -0.6242  0.1495
  732POPS   C4B11142   7.277  12.180   8.180 -0.2656 -0.0340 -0.1345
  733POPS   CNO11143  17.066  11.806   6.309  0.0857 -0.0049 -0.0965
  733POPS   PO411144  17.165  11.500   6.163  0.1925 -0.2931  0.0103
  733POPS   GL111145  17.351  11.566   6.634  0.0408 -0.0903  0.1619
  733POPS   GL211146  17.516  11.881   6.713 -0.0436 -0.0613 -0.1732
  733POPS   C1A11147  17.171  11.621   7.071 -0.2666  0.0153  0.1714
  733POPS   D2A11148  17.032  12.063   7.293  0.1168  0.2961  0.0574
  733POPS   C3A11149  16.765  12.247   7.694 -0.2869 -0.2568  0.3765
  733POPS   C4A11150  16.429  12.279   7.965  0.0556  0.2565  0.1805
  733POPS   C1B11151  17.803  11.824   7.002 -0.1368  0.1988  0.0351
  733POPS   C2B11152  17.791  11.804   7.372 -0.2035  0.1007 -0.1589
  733POPS   C3B11153  17.857  11.716   7.777  0.0256 -0.1922 -0.1192
  733POPS   C4B11154  17.719  11.652   8.149 -0.1947  0.3674  0.1727
  734POPS   CNO11155   1.672   5.293   5.582  0.1705 -0.3553  0.6763
  734POPS   PO411156   1.602   4.969   5.826 -0.0652 -0.2243  0.2941
  734POPS   GL111157   1.752   4.954   6.161  0.2682  0.0912 -0.1468
  734POPS   GL211158   1.437   5.097   6.259  0.1221  0.0633 -0.4010
  734POPS   C1A11159   1.886   4.824   6.573 -0.4248 -0.0350 -0.1073
  734POPS   D2A11160   1.814   5.079   7.062 -0.0114 -0.0591 -0.0283
  734POPS   C3A11161   2.152   5.114   7.438 -0.0147  0.1092 -0.0666
  734POPS   C4A11162   2.242   5.416   7.789  0.2330  0.1046  0.0543
  734POPS   C1B11163   1.466   5.124   6.722  0.3920 -0.1978  0.2260
  734POPS   C2B11164   1.309   5.025   7.148  0.2994 -0.1457  0.0903
  734POPS   C3B11165   0.994   4.955   7.340  0.1261 -0.1061 -0.2257
  734POPS   C4B11166   0.915   4.742   7.647  0.2391 -0.1617  0.0280
  735POPS   CNO11167  11.703  11.493   6.091  0.1138 -0.0168  0.2308
  735POPS   PO411168  12.149  11.388   6.012  0.1072  0.1186 -0.2454
  735POPS   GL111169  12.243  11.187   6.446  0.1726 -0.1402 -0.2078
  735POPS   GL211170  11.904  11.148   6.495  0.1764  0.2536 -0.1097
  735POPS   C1A11171  12.226  11.030   6.831  0.1911  0.0584 -0.1358
  735POPS   D2A11172  12.327  11.138   7.240 -0.0594 -0.0551  0.0427
  735POPS   C3A11173  12.051  11.441   7.495  0.3417  0.2040  0.1322
  735POPS   C4A11174  11.720  11.666   7.685  0.0096  0.1581 -0.0896
  735POPS   C1B11175  11.733  11.088   6.923 -0.0552  0.2545 -0.2276
  735POPS   C2B11176  11.712  11.086   7.324 -0.3365 -0.0589 -0.2492
  735POPS   C3B11177  11.735  11.140   7.766 -0.1976  0.1203  0.1728
  735POPS   C4B11178  12.001  11.020   8.126 -0.1839 -0.2476  0.0116
  736POPS   CNO11179   1.081  17.488   5.594  0.1241  0.4045 -0.2798
  736POPS   PO411180   0.835  17.835   5.746  0.1856 -0.2776 -0.2017
  736POPS   GL111181   0.766  17.670   6.230  0.0924 -0.2902  0.2351
  736POPS   GL211182   1.045  17.454   6.223 -0.0990 -0.0108  0.3773
  736POPS   C1A11183   0.625  17.744   6.587 -0.0000  0.0522 -0.0332
  736POPS   D2A11184   0.237  17.856   6.744  0.0005 -0.3054 -0.0458
  736POPS   C3A11185   0.033  18.059   7.066  0.1466 -0.0880  0.1048
  736POPS   C4A11186   0.210  18.385   7.358  0.0067 -0.0588  0.0226
  736POPS   C1B11187   1.162  17.639   6.590  0.1744  0.2653  0.0423
  736POPS   C2B11188   1.095  17.856   6.972 -0.0746  0.0778  0.2086
  736POPS   C3B11189   0.991  18.254   7.308 -0.0754  0.1240 -0.0259
  736POPS   C4B11190   0.675  18.583   7.443 -0.0546  0.5507 -0.2768
  737POPS   CNO11191   1.426  17.161   5.954  0.1020 -0.4524  0.1072
  737POPS   PO411192   1.529  17.543   5.933 -0.0657  0.2716  0.0475
  737POPS   GL111193   1.797  17.366   6.185 -0.0463 -0.1690 -0.0115
  737POPS   GL211194   2.102  17.287   6.235 -0.1223  0.0554 -0.0178
  737POPS   C1A11195   1.667  17.415   6.577  0.3081  0.1539 -0.0568
  737POPS   D2A11196   1.884  17.554   6.855 -0.0317  0.1682  0.0198
  737POPS   C3A11197   2.061  17.924   6.644  0.1366  0.1190 -0.4711
  737POPS   C4A11198   2.476  17.982   6.496 -0.0993  0.3489 -0.1000
  737POPS   C1B11199   2.234  16.947   6.567  0.1132  0.2308  0.0952
  737POPS   C2B11200   2.547  16.708   6.839  0.1416 -0.5107 -0.0028
  737POPS   C3B11201   2.916  16.664   7.006  0.0385 -0.0843 -0.1167
  737POPS   C4B11202   3.385  16.527   7.069  0.3628 -0.1017  0.1833
  738POPS   CNO11203  16.513   4.365   5.876 -0.1331  0.0105 -0.3170
  738POPS   PO411204  16.192   4.508   6.221  0.4326 -0.2364  0.1397
  738POPS   GL111205  16.264   4.342   6.662 -0.0166  0.2153 -0.0716
  738POPS   GL211206  16.605   4.078   6.730 -0.0110  0.0376 -0.0446
  738POPS   C1A11207  16.214   3.866   6.939 -0.1451  0.0913 -0.4651
  738POPS   D2A11208  16.447   3.459   6.982 -0.0677  0.0038  0.3073
  738POPS   C3A11209  16.359   3.243   7.343 -0.5089 -0.3112  0.1533
  738POPS   C4A11210  16.155   2.867   7.457  0.0018  0.1783  0.4244
  738POPS   C1B11211  16.678   4.458   6.925  0.1382 -0.1201  0.0924
  738POPS   C2B11212  16.815   4.422   7.374 -0.1857  0.2987 -0.1142
  738POPS   C3B11213  16.685   4.647   7.699  0.0174 -0.0745 -0.1045
  738POPS   C4B11214  16.638   4.542   8.110  0.1255 -0.0892 -0.0338
  739POPS   CNO11215   9.013   9.013   5.678  0.1125 -0.0167 -0.3025
  739POPS   PO411216   8.819   9.219   5.890  0.2425 -0.2088 -0.0978
  739POPS   GL111217   8.622   9.075   6.245 -0.2361  0.1681  0.1081
  739POPS   GL211218   8.874   9.175   6.504 -0.1097  0.2642  0.0484
  739POPS   C1A11219   8.474   8.904   6.574  0.1398  0.0591 -0.0105
  739POPS   D2A11220   8.185   8.902   7.037 -0.1554  0.1685 -0.2357
  739POPS   C3A11221   8.033   8.559   7.125 -0.0804  0.4051 -0.3079
  739POPS   C4A11222   7.993   8.032   7.344 -0.0486 -0.0007  0.1428
  739POPS   C1B11223   8.896   8.828   6.864  0.1293 -0.3241  0.4366
  739POPS   C2B11224   8.664   8.694   7.184  0.0443 -0.0229 -0.1011
  739POPS   C3B11225   8.401   8.452   7.456  0.1945 -0.0615 -0.2186
  739POPS   C4B11226   8.550   8.218   7.841  0.0037 -0.1239  0.1841
  740POPS   CNO11227  14.384  16.269   6.218  0.2428 -0.1405 -0.0020
  740POPS   PO411228  14.412  16.011   5.988  0.1398  0.1255 -0.1940
  740POPS   GL111229  13.957  15.988   6.147  0.1007 -0.2859  0.1329
  740POPS   GL211230  13.762  15.775   6.361 -0.3174  0.2996 -0.0562
  740POPS   C1A11231  14.038  16.129   6.532 -0.3218 -0.3935 -0.1383
  740POPS   D2A11232  13.947  16.529   6.717 -0.1539  0.2456 -0.1489
  740POPS   C3A11233  13.833  16.765   7.190 -0.0258 -0.0911 -0.1753
  740POPS   C4A11234  14.099  16.876   7.572 -0.0552  0.2627  0.2373
  740POPS   C1B11235  13.799  15.832   6.820  0.0724 -0.0239  0.0244
  740POPS   C2B11236  13.719  15.917   7.302  0.5631 -0.2958  0.0876
  740POPS   C3B11237  13.856  15.717   7.619 -0.1835  0.0567  0.1428
  740POPS   C4B11238  14.073  15.681   7.956 -0.1870 -0.0565  0.0883
  741POPS   CNO11239   4.675   5.615   5.738  0.0657  0.0202  0.0275
  741POPS   PO411240   4.363   5.424   5.817 -0.0883 -0.3210 -0.1174
  741POPS   GL111241   4.420   5.027   6.063  0.0371  0.0599 -0.1316
  741POPS   GL211242   4.709   5.265   6.215  0.0520 -0.1172  0.0073
  741POPS   C1A11243   4.507   4.854   6.563  0.3207  0.1967 -0.1000
  741POPS   D2A11244   4.457   4.937   6.985  0.2273 -0.0663  0.4642
  741POPS   C3A11245   4.477   5.052   7.375  0.1710  0.0216 -0.0064
  741POPS   C4A11246   4.511   4.640   7.639 -0.1581 -0.1517 -0.0364
  741POPS   C1B11247   5.076   5.200   6.540  0.0010  0.2807  0.1663
  741POPS   C2B11248   5.252   5.104   7.017 -0.2096 -0.1702  0.0140
  741POPS   C3B11249   5.555   5.124   7.321  0.1461  0.1702 -0.3305
  741POPS   C4B11250   5.743   5.323   7.742  0.1311 -0.1725 -0.0052
  742POPS   CNO11251   1.206   9.381   6.368  0.0985  0.0516 -0.1040
  742POPS   PO411252   1.656   9.143   6.293  0.0684  0.0395 -0.2631
  742POPS   GL111253   1.542   9.108   6.698  0.1494 -0.3300 -0.1102
  742POPS   GL211254   1.444   8.827   6.732  0.0928  0.0335 -0.0265
  742POPS   C1A11255   1.444   9.269   7.100  0.1231 -0.0802  0.0952
  742POPS   D2A11256   1.743   9.199   7.434 -0.2034  0.2653 -0.0083
  742POPS   C3A11257   1.606   8.915   7.740 -0.1269 -0.3771  0.1953
  742POPS   C4A11258   1.480   8.580   7.883 -0.2284 -0.0297 -0.4902
  742POPS   C1B11259   1.583   8.788   7.135 -0.0506 -0.1221 -0.0610
  742POPS   C2B11260   2.005   8.745   7.398  0.2114  0.1166 -0.0981
  742POPS   C3B11261   2.131   8.722   7.778 -0.0289  0.1328 -0.0590
  742POPS   C4B11262   1.920   8.691   8.124 -0.0266  0.0263 -0.2468
  743POPS   CNO11263   3.043  17.455   5.999 -0.0620 -0.0719 -0.2057
  743POPS   PO411264   2.690  17.508   5.802 -0.1857 -0.1405 -0.0400
  743POPS   GL111265   2.505  17.550   6.155 -0.4768  0.0013 -0.2278
  743POPS   GL211266   2.763  17.430   6.397  0.0263  0.1803 -0.0710
  743POPS   C1A11267   2.378  17.442   6.619  0.0283  0.0890  0.1174
  743POPS   D2A11268   2.375  17.287   7.032  0.2442 -0.1571  0.2070
  743POPS   C3A11269   2.422  16.991   7.271 -0.1593 -0.2242 -0.2134
  743POPS   C4A11270   2.474  16.825   7.762  0.0847 -0.1937 -0.0576
  743POPS   C1B11271   2.744  17.756   6.870  0.0289  0.0303 -0.1445
  743POPS   C2B11272   2.704  17.661   7.405 -0.0658  0.0880 -0.1897
  743POPS   C3B11273   2.480  17.385   7.737 -0.1850 -0.0770 -0.2057
  743POPS   C4B11274   2.057  17.133   7.752 -0.0262 -0.0884 -0.0823
  744POPS   CNO11275  12.781  10.789   5.545 -0.1735  0.0762  0.1463
  744POPS   PO411276  12.582  10.524   5.904  0.0222  0.1714  0.1439
  744POPS   GL111277  12.426  10.706   6.298  0.0141 -0.0256  0.1078
  744POPS   GL211278  12.637  10.416   6.511 -0.0892  0.2416  0.4168
  744POPS   C1A11279  12.124  10.630   6.462 -0.2200 -0.1409 -0.2684
  744POPS   D2A11280  12.220  10.463   6.932  0.1203 -0.0190 -0.1880
  744POPS   C3A11281  12.130  10.660   7.292  0.0822 -0.3020 -0.4914
  744POPS   C4A11282  11.904  10.568   7.555 -0.0491 -0.3719  0.2228
  744POPS   C1B11283  12.651  10.671   6.905  0.0311  0.0010 -0.3551
  744POPS   C2B11284  12.768  10.792   7.260  0.0755  0.2715 -0.1469
  744POPS   C3B11285  12.701  11.007   7.588 -0.1954 -0.2139 -0.2640
  744POPS   C4B11286  12.875  11.119   8.010 -0.0255 -0.3825 -0.1350
  745POPS   CNO11287  17.781  14.812   5.834 -0.3067  0.2153 -0.2791
  745POPS   PO411288  18.060  15.135   5.851  0.2688 -0.0568  0.1260
  745POPS   GL111289  18.048  15.196   6.386 -0.1218  0.1491  0.1423
  745POPS   GL211290  18.371  15.198   6.537  0.0067 -0.0249 -0.0170
  745POPS   C1A11291  17.765  15.190   6.674 -0.1427 -0.1490 -0.1962
  745POPS   D2A11292  17.873  15.355   7.063  0.2113  0.1004 -0.2295
  745POPS   C3A11293  17.682  15.660   7.259 -0.3395 -0.0376 -0.1870
  745POPS   C4A11294  17.493  15.936   7.243  0.0233  0.0782 -0.1654
  745POPS   C1B11295  18.357  15.202   6.966  0.3246 -0.0644  0.0732
  745POPS   C2B11296  18.331  15.193   7.364  0.3608 -0.0069 -0.0815
  745POPS   C3B11297  18.705  15.338   7.668  0.1182 -0.1382  0.0105
  745POPS   C4B11298  18.981  15.107   8.018 -0.0702  0.0492  0.0322
  746POPS   CNO11299  11.464  13.036   6.379 -0.1906  0.1301  0.0866
  746POPS   PO411300  11.705  12.914   6.134  0.0999  0.1372 -0.3702
  746POPS   GL111301  11.848  12.718   6.391 -0.0711 -0.0901 -0.0021
  746POPS   GL211302  11.680  12.381   6.548  0.0133  0.0838  0.1402
  746POPS   C1A11303  11.776  12.812   6.820 -0.0875  0.0560 -0.0457
  746POPS   D2A11304  11.889  13.086   7.195 -0.1517  0.1061 -0.2190
  746POPS   C3A11305  11.834  12.968   7.542 -0.2599  0.4004 -0.1815
  746POPS   C4A11306  11.914  13.231   7.707  0.0826  0.2649 -0.0114
  746POPS   C1B11307  11.240  12.621   6.667  0.3246  0.1123 -0.2202
  746POPS   C2B11308  11.076  13.100   6.797  0.1545  0.0572  0.0083
  746POPS   C3B11309  10.994  13.252   7.209 -0.1513  0.1148  0.1479
  746POPS   C4B11310  11.016  13.168   7.637  0.0007 -0.1466  0.0286
  747POPS   CNO11311  15.941  15.816   5.972  0.0891 -0.3721  0.0820
  747POPS   PO411312  15.602  15.549   5.955  0.0180  0.1243  0.2163
  747POPS   GL111313  15.703  15.674   6.370  0.1709  0.1557 -0.3688
  747POPS   GL211314  16.013  15.779   6.486  0.1091  0.2545  0.0893
  747POPS   C1A11315  15.631  15.650   6.839 -0.1313  0.3118  0.3787
  747POPS   D2A11316  15.684  15.920   7.196  0.0653  0.0380 -0.1043
  747POPS   C3A11317  15.525  16.107   7.466 -0.2051 -0.0167  0.0187
  747POPS   C4A11318  15.206  16.192   7.766 -0.0689  0.0971  0.0776
  747POPS   C1B11319  16.124  15.528   6.952  0.0941 -0.1567  0.1306
  747POPS   C2B11320  16.454  15.438   7.409 -0.0912 -0.2271 -0.1251
  747POPS   C3B11321  16.620  15.096   7.558 -0.2408  0.1589  0.3988
  747POPS   C4B11322  16.767  14.783   7.793  0.3100  0.1851  0.0316
  748POPS   CNO11323   3.654   7.526   5.296  0.3325  0.1465 -0.0637
  748POPS   PO411324   3.743   7.559   5.709  0.0778 -0.1096 -0.1464
  748POPS   GL111325   3.705   7.259   6.068 -0.1997 -0.2206  0.3132
  748POPS   GL211326   3.907   7.481   6.247 -0.0448  0.2587  0.1629
  748POPS   C1A11327   3.469   7.290   6.511 -0.1124 -0.3970 -0.1342
  748POPS   D2A11328   3.120   7.430   6.649  0.1708 -0.1029  0.0611
  748POPS   C3A11329   3.052   7.362   7.036  0.1211  0.0046  0.1744
  748POPS   C4A11330   3.320   7.308   7.464 -0.2549  0.0072  0.1392
  748POPS   C1B11331   3.961   7.455   6.660  0.1580 -0.4387 -0.1022
  748POPS   C2B11332   3.746   7.476   6.975 -0.1527  0.1901 -0.2950
  748POPS   C3B11333   3.816   7.476   7.410  0.1407 -0.1415 -0.0016
  748POPS   C4B11334   4.027   7.243   7.727  0.3517 -0.3996  0.0036
  749POPS   CNO11335  11.801   1.379   5.534  0.2057 -0.1813  0.5249
  749POPS   PO411336  12.042   1.550   5.860 -0.0129  0.3122  0.3356
  749POPS   GL111337  12.032   1.449   6.236  0.2197  0.2052  0.1095
  749POPS   GL211338  12.225   1.529   6.480  0.0132 -0.2301  0.1088
  749POPS   C1A11339  11.786   1.310   6.607  0.2155  0.0875 -0.1952
  749POPS   D2A11340  11.608   1.204   7.068  0.1953  0.0231  0.0744
  749POPS   C3A11341  11.755   0.867   7.270 -0.1532 -0.3472  0.1044
  749POPS   C4A11342  11.721   0.660   7.618 -0.2560 -0.1455  0.1924
  749POPS   C1B11343  12.596   1.822   6.715  0.0263 -0.2343  0.1844
  749POPS   C2B11344  12.710   1.772   7.103 -0.0415  0.0197  0.0065
  749POPS   C3B11345  12.653   1.428   7.424  0.1014 -0.4356 -0.1703
  749POPS   C4B11346  12.582   1.214   7.720  0.2206 -0.2850 -0.0286
  750POPS   CNO11347   1.269   2.573   5.737  0.0946 -0.1256  0.1890
  750POPS   PO411348   1.312   2.593   6.157  0.0880  0.1568  0.2985
  750POPS   GL111349   1.443   2.647   6.500 -0.5692 -0.0160 -0.1852
  750POPS   GL211350   1.268   2.623   6.802 -0.3519 -0.0659 -0.3580
  750POPS   C1A11351   1.604   3.073   6.802  0.0531  0.2154 -0.1343
  750POPS   D2A11352   1.761   3.145   7.195  0.1063 -0.1941 -0.0318
  750POPS   C3A11353   1.828   3.537   7.360 -0.0876 -0.1007 -0.0004
  750POPS   C4A11354   1.774   3.744   7.711  0.0385  0.0709  0.1663
  750POPS   C1B11355   1.342   2.837   7.211  0.0367  0.1675 -0.2649
  750POPS   C2B11356   1.178   2.792   7.731  0.1881 -0.1130 -0.2058
  750POPS   C3B11357   0.815   2.757   7.901  0.2924  0.1726  0.0684
  750POPS   C4B11358   0.386   2.584   7.936  0.3070  0.4633 -0.2035
  751POPS   CNO11359   7.534   5.962   5.859 -0.0767  0.1021  0.0433
  751POPS   PO411360   7.474   6.404   5.880 -0.0436  0.1088  0.5296
  751POPS   GL111361   7.350   6.250   6.282  0.3146 -0.1415 -0.0622
  751POPS   GL211362   7.154   5.988   6.407  0.1018  0.0014  0.0611
  751POPS   C1A11363   7.548   6.339   6.651  0.4150  0.3901 -0.0328
  751POPS   D2A11364   7.487   6.639   6.980 -0.1227 -0.4178  0.2219
  751POPS   C3A11365   7.550   6.630   7.422 -0.1208 -0.1690 -0.2834
  751POPS   C4A11366   7.731   6.550   7.845 -0.0949  0.1004 -0.3801
  751POPS   C1B11367   7.102   6.227   6.740 -0.0287  0.2955  0.0184
  751POPS   C2B11368   7.088   6.201   7.101 -0.0478 -0.0886 -0.1300
  751POPS   C3B11369   6.682   6.241   7.355  0.3252 -0.3118  0.1171
  751POPS   C4B11370   6.254   6.352   7.653 -0.1501  0.0789  0.0103
  752POPS   CNO11371  17.177   6.581   5.621  0.2154  0.0524 -0.2094
  752POPS   PO411372  17.572   6.635   6.001 -0.2172 -0.1240  0.2272
  752POPS   GL111373  17.524   6.457   6.413 -0.1458 -0.2011 -0.1245
  752POPS   GL211374  17.216   6.517   6.530  0.1016 -0.2025  0.2606
  752POPS   C1A11375  17.466   6.209   6.870  0.0706  0.1713 -0.1868
  752POPS   D2A11376  17.399   5.873   7.209 -0.1505 -0.1423 -0.0880
  752POPS   C3A11377  17.241   5.984   7.586  0.1979 -0.0756 -0.1512
  752POPS   C4A11378  17.243   5.997   8.021  0.0209 -0.0799  0.3110
  752POPS   C1B11379  17.059   6.542   6.949  0.1451 -0.1856  0.1211
  752POPS   C2B11380  16.838   6.657   7.285 -0.2800  0.1713 -0.2795
  752POPS   C3B11381  16.753   6.784   7.647 -0.2355 -0.2387 -0.1171
  752POPS   C4B11382  16.684   6.841   8.105  0.1667 -0.1016 -0.0736
  753POPS   CNO11383   4.809   1.736   5.584 -0.0532  0.0478  0.2302
  753POPS   PO411384   4.632   1.769   5.946  0.1228  0.0940 -0.2720
  753POPS   GL111385   4.837   1.485   6.190  0.2444  0.1305 -0.3519
  753POPS   GL211386   4.923   1.158   6.225 -0.1554  0.2480 -0.2703
  753POPS   C1A11387   5.116   1.489   6.602 -0.0558  0.0604  0.0298
  753POPS   D2A11388   5.436   1.684   6.752 -0.1709 -0.0965  0.2416
  753POPS   C3A11389   5.418   1.837   7.241 -0.0811  0.2986 -0.0872
  753POPS   C4A11390   5.225   1.592   7.627  0.0504  0.0309  0.2548
  753POPS   C1B11391   5.096   0.917   6.529  0.1573  0.4041  0.1645
  753POPS   C2B11392   5.157   0.963   7.034 -0.3516  0.1635  0.1073
  753POPS   C3B11393   5.328   1.015   7.423 -0.1115 -0.0327 -0.0682
  753POPS   C4B11394   5.593   1.071   7.798  0.1108 -0.1023  0.1938
  754POPS   CNO11395   2.444   2.804   5.562  0.1040  0.1592  0.1992
  754POPS   PO411396   2.531   2.363   5.564 -0.3027 -0.2285  0.1954
  754POPS   GL111397   2.579   2.370   6.013 -0.1078 -0.1567 -0.1565
  754POPS   GL211398   2.475   2.130   6.059 -0.0353  0.0643 -0.0028
  754POPS   C1A11399   2.371   2.533   6.497 -0.0244 -0.1017  0.1379
  754POPS   D2A11400   2.543   2.606   6.914  0.5136  0.1608  0.1435
  754POPS   C3A11401   2.349   2.484   7.215 -0.0173 -0.3400 -0.0962
  754POPS   C4A11402   2.016   2.295   7.490  0.3536  0.1122  0.1183
  754POPS   C1B11403   2.371   2.015   6.553  0.0922 -0.0362  0.2658
  754POPS   C2B11404   2.204   2.053   6.991 -0.0441 -0.0360  0.0348
  754POPS   C3B11405   2.423   1.948   7.430 -0.2267  0.0869 -0.2562
  754POPS   C4B11406   2.507   2.119   7.719 -0.1449  0.4677 -0.1041
  755POPS   CNO11407  16.860  17.579   5.559 -0.1955 -0.0064 -0.2084
  755POPS   PO411408  16.705  17.788   5.972  0.0069  0.2214 -0.0819
  755POPS   GL111409  16.672  17.950   6.276 -0.0563  0.0106 -0.0927
  755POPS   GL211410  16.372  17.943   6.520 -0.0308  0.1440  0.1205
  755POPS   C1A11411  16.830  17.867   6.679 -0.2804 -0.3059 -0.2769
  755POPS   D2A11412  16.876  18.075   7.147 -0.0501  0.1330 -0.3946
  755POPS   C3A11413  16.859  17.926   7.567 -0.0340 -0.2492  0.1159
  755POPS   C4A11414  16.881  17.935   8.041 -0.1079  0.0249 -0.1286
  755POPS   C1B11415  16.415  17.921   6.954 -0.0154  0.0665  0.0596
  755POPS   C2B11416  16.433  17.765   7.350 -0.0034  0.1762 -0.2351
  755POPS   C3B11417  16.576  17.549   7.778 -0.1910  0.2186 -0.1924
  755POPS   C4B11418  16.658  17.279   8.112  0.0782  0.2420 -0.0328
  756POPS   CNO11419  14.497   5.179   5.075  0.0043 -0.0679  0.0222
  756POPS   PO411420  14.631   5.491   5.401 -0.0285 -0.1398  0.1825
  756POPS   GL111421  14.740   5.513   5.809 -0.2891 -0.0719  0.3942
  756POPS   GL211422  14.530   5.463   6.010 -0.1086 -0.0594  0.1528
  756POPS   C1A11423  14.876   5.638   6.237  0.2000 -0.1868  0.2961
  756POPS   D2A11424  15.153   5.482   6.553  0.0790  0.2105  0.3215
  756POPS   C3A11425  15.132   5.566   7.020  0.1720 -0.1426 -0.0986
  756POPS   C4A11426  15.041   5.437   7.393  0.1784 -0.1885  0.0368
  756POPS   C1B11427  14.354   5.587   6.381  0.2689  0.2950 -0.1518
  756POPS   C2B11428  14.639   5.867   6.658 -0.3126 -0.0329 -0.4835
  756POPS   C3B11429  14.480   6.313   6.926  0.1021  0.0593 -0.1259
  756POPS   C4B11430  14.184   6.599   7.182  0.0740  0.0521  0.1727
  757POPS   CNO11431  15.661   7.263   5.460 -0.0000 -0.2333 -0.2870
  757POPS   PO411432  15.708   7.292   5.869  0.1799 -0.0351  0.0489
  757POPS   GL111433  15.712   7.388   6.247 -0.1038  0.0942 -0.1586
  757POPS   GL211434  15.586   7.565   6.402 -0.0108  0.0701 -0.1095
  757POPS   C1A11435  15.645   7.260   6.700 -0.1556 -0.0053  0.2013
  757POPS   D2A11436  15.932   7.218   7.080  0.0064  0.4132  0.4609
  757POPS   C3A11437  15.689   7.539   7.359 -0.2089  0.0765 -0.3826
  757POPS   C4A11438  15.290   7.846   7.569  0.0248  0.1618  0.0882
  757POPS   C1B11439  15.387   7.558   6.979  0.0433 -0.1286  0.2153
  757POPS   C2B11440  15.272   7.201   7.220 -0.0334  0.0096 -0.2799
  757POPS   C3B11441  14.990   6.926   7.430  0.2114 -0.1583 -0.2461
  757POPS   C4B11442  15.001   6.526   7.651  0.0909  0.0566 -0.2404
  758POPS   CNO11443  12.289  15.352   6.292  0.0141 -0.2021  0.1881
  758POPS   PO411444  12.488  15.782   6.039 -0.2065 -0.1918 -0.2926
  758POPS   GL111445  12.600  15.689   6.496  0.0313 -0.1065 -0.2779
  758POPS   GL211446  12.332  15.952   6.677  0.2438  0.0460  0.0445
  758POPS   C1A11447  12.897  15.597   6.859  0.2386 -0.3705  0.0058
  758POPS   D2A11448  13.039  15.769   7.244  0.0048  0.0319  0.0057
  758POPS   C3A11449  12.774  15.700   7.665  0.1843 -0.0442 -0.0998
  758POPS   C4A11450  12.427  15.415   7.843 -0.0423  0.2108  0.3432
  758POPS   C1B11451  12.387  15.547   6.925  0.1047 -0.1063 -0.0181
  758POPS   C2B11452  12.491  15.485   7.245  0.0508  0.0427 -0.2775
  758POPS   C3B11453  12.131  15.326   7.468  0.1535  0.0952  0.0722
  758POPS   C4B11454  11.809  15.414   7.825 -0.0426 -0.0589 -0.1563
  759POPS   CNO11455   2.151   0.627   5.387  0.0339  0.4964  0.2177
  759POPS   PO411456   2.542   0.740   5.647  0.1309 -0.3567 -0.1022
  759POPS   GL111457   2.637   0.776   6.141 -0.2657 -0.0388 -0.0151
  759POPS   GL211458   2.295   0.796   6.334  0.0831 -0.0914 -0.1226
  759POPS   C1A11459   2.663   0.688   6.602  0.2240 -0.0841 -0.0401
  759POPS   D2A11460   2.797   0.726   7.108 -0.0448 -0.1309 -0.1064
  759POPS   C3A11461   2.484   0.521   7.223 -0.1697  0.1061  0.1643
  759POPS   C4A11462   2.048   0.462   7.138 -0.0513 -0.1909 -0.2341
  759POPS   C1B11463   2.337   0.333   6.472  0.2696 -0.1644 -0.3264
  759POPS   C2B11464   2.396   0.185   6.834  0.2516 -0.1497  0.1610
  759POPS   C3B11465   2.554  -0.096   7.033  0.0253  0.0835 -0.2285
  759POPS   C4B11466   2.285  -0.447   7.128  0.1009 -0.0088  0.1204
  760POPS   CNO11467   9.400  17.157   5.772 -0.1741 -0.2057 -0.3728
  760POPS   PO411468   9.255  16.912   6.038  0.1137  0.1226  0.0691
  760POPS   GL111469   9.437  16.973   6.394  0.1113 -0.1512  0.4718
  760POPS   GL211470   9.604  17.031   6.469 -0.0310 -0.1716 -0.2475
  760POPS   C1A11471   9.147  17.010   6.747 -0.0434 -0.2145  0.1706
  760POPS   D2A11472   9.429  17.039   7.206 -0.0804 -0.3192  0.0331
  760POPS   C3A11473   9.818  16.875   7.412  0.1434 -0.0524  0.0729
  760POPS   C4A11474  10.121  16.606   7.644  0.1386  0.1384 -0.2413
  760POPS   C1B11475   9.712  16.908   6.838 -0.1699 -0.0088 -0.2092
  760POPS   C2B11476   9.810  17.238   7.051 -0.0559  0.1496  0.0408
  760POPS   C3B11477   9.893  17.456   7.483 -0.0520 -0.0835  0.2176
  760POPS   C4B11478  10.026  17.441   7.876 -0.0351  0.1403  0.1081
  761POPS   CNO11479  13.793   6.280   4.859  0.2158 -0.2144  0.0761
  761POPS   PO411480  13.741   6.398   5.356 -0.1201  0.0888 -0.3544
  761POPS   GL111481  13.437   6.491   5.727  0.0213  0.1662  0.1803
  761POPS   GL211482  13.805   6.615   5.881 -0.0156  0.2198  0.1883
  761POPS   C1A11483  13.356   6.445   6.112 -0.3874 -0.1202 -0.0467
  761POPS   D2A11484  13.128   6.662   6.503  0.5085 -0.2939 -0.1713
  761POPS   C3A11485  12.918   6.562   6.803 -0.0474  0.0925  0.2267
  761POPS   C4A11486  12.735   6.346   7.115 -0.3392  0.0762 -0.0998
  761POPS   C1B11487  13.990   6.386   6.314 -0.1345  0.0584 -0.1169
  761POPS   C2B11488  13.912   6.355   6.845  0.1283 -0.1674  0.2186
  761POPS   C3B11489  13.633   5.954   6.947  0.1408  0.0023 -0.2192
  761POPS   C4B11490  13.428   5.504   6.798  0.0359  0.0826 -0.2122
  762POPS   CNO11491  15.388  12.389   5.677  0.1455 -0.1921 -0.0397
  762POPS   PO411492  15.219  12.484   6.024  0.2254  0.1883  0.1217
  762POPS   GL111493  15.080  12.736   6.369  0.0757 -0.3398 -0.1518
  762POPS   GL211494  14.624  12.771   6.436 -0.1388 -0.1734  0.2971
  762POPS   C1A11495  15.029  12.871   6.772 -0.0495 -0.1745 -0.0344
  762POPS   D2A11496  14.650  12.923   7.015  0.1070 -0.0970  0.1068
  762POPS   C3A11497  14.351  12.934   7.436 -0.0804 -0.0972  0.1181
  762POPS   C4A11498  14.111  12.993   7.732  0.0758  0.0230 -0.0656
  762POPS   C1B11499  14.376  12.550   6.736  0.0861  0.2378 -0.1111
  762POPS   C2B11500  14.276  12.463   7.128  0.1293 -0.1711  0.1493
  762POPS   C3B11501  14.148  12.334   7.512 -0.2446 -0.0132 -0.1108
  762POPS   C4B11502  14.429  12.237   7.849 -0.0281  0.0871 -0.0717
  763POPS   CNO11503   0.309   2.410   5.457 -0.0954 -0.0884  0.0642
  763POPS   PO411504   0.285   2.545   5.834  0.0767  0.1563 -0.0850
  763POPS   GL111505   0.408   2.649   6.272 -0.0589 -0.0518 -0.0677
  763POPS   GL211506   0.568   3.022   6.342  0.1957  0.1810 -0.3793
  763POPS   C1A11507   0.377   2.661   6.706 -0.0060  0.0573 -0.0824
  763POPS   D2A11508   0.294   2.549   7.099  0.2286  0.2915 -0.3068
  763POPS   C3A11509   0.458   2.873   7.463  0.0840  0.1673  0.1453
  763POPS   C4A11510   0.825   3.123   7.368 -0.3691  0.0105 -0.0027
  763POPS   C1B11511   0.868   3.297   6.615  0.0960 -0.0831  0.2368
  763POPS   C2B11512   1.097   3.262   6.950  0.1395  0.0661 -0.0572
  763POPS   C3B11513   1.288   3.449   7.321 -0.1206 -0.2413 -0.2524
  763POPS   C4B11514   1.325   3.379   7.749  0.2143  0.0337 -0.0722
  764POPS   CNO11515   4.618   2.717   5.585 -0.1735 -0.1581  0.1333
  764POPS   PO411516   4.472   2.640   5.962 -0.2244  0.1070 -0.1991
  764POPS   GL111517   4.697   2.623   6.413  0.2880 -0.0152 -0.3312
  764POPS   GL211518   4.968   2.469   6.439 -0.2365  0.4107 -0.1703
  764POPS   C1A11519   4.548   2.321   6.706  0.0498  0.0169 -0.1922
  764POPS   D2A11520   4.378   2.233   6.973 -0.0922  0.0994 -0.1491
  764POPS   C3A11521   4.461   2.138   7.385 -0.0582  0.0574 -0.0995
  764POPS   C4A11522   4.549   2.238   7.745  0.0943  0.1322 -0.2251
  764POPS   C1B11523   5.032   2.590   6.907 -0.1223  0.0172 -0.0474
  764POPS   C2B11524   5.061   2.768   7.254  0.1409 -0.4199  0.0559
  764POPS   C3B11525   4.826   2.878   7.729  0.2726 -0.1995  0.0501
  764POPS   C4B11526   4.464   2.716   8.107 -0.0074 -0.1716 -0.1677
  765POPS   CNO11527   9.084  15.472   6.074  0.1054  0.0908  0.2100
  765POPS   PO411528   8.752  15.405   6.276  0.1572 -0.2371 -0.0491
  765POPS   GL111529   8.965  15.196   6.557  0.2102  0.1162  0.3377
  765POPS   GL211530   8.865  14.983   6.705 -0.1207  0.0544 -0.0333
  765POPS   C1A11531   9.092  15.328   6.979  0.1219 -0.3308  0.5063
  765POPS   D2A11532   9.097  15.287   7.278  0.4964  0.0021  0.0535
  765POPS   C3A11533   9.221  15.585   7.579  0.0200 -0.1731  0.0719
  765POPS   C4A11534   9.189  15.709   7.975 -0.1387 -0.1170 -0.2608
  765POPS   C1B11535   8.500  14.823   7.050 -0.0548  0.0334  0.2294
  765POPS   C2B11536   8.468  14.983   7.421  0.1281  0.0133 -0.3024
  765POPS   C3B11537   8.476  14.964   7.899  0.1473 -0.2570 -0.0290
  765POPS   C4B11538   8.593  14.862   8.342 -0.0007 -0.3143  0.2578
  766POPS   CNO11539  15.581   9.239   5.921  0.0045  0.4264 -0.0037
  766POPS   PO411540  15.821   9.114   6.183 -0.1161 -0.1420  0.4368
  766POPS   GL111541  15.756   9.048   6.662 -0.0234 -0.2389 -0.1200
  766POPS   GL211542  15.996   9.106   6.964  0.0286 -0.1960 -0.2805
  766POPS   C1A11543  15.713   8.679   6.788 -0.2318  0.0377  0.0604
  766POPS   D2A11544  15.797   8.283   6.810  0.4146  0.0191 -0.0492
  766POPS   C3A11545  15.402   7.983   6.681 -0.0800 -0.1403  0.2172
  766POPS   C4A11546  15.139   7.679   6.584  0.2044 -0.0779 -0.6049
  766POPS   C1B11547  15.977   8.867   7.334  0.2110  0.3244 -0.4042
  766POPS   C2B11548  16.149   8.635   7.652  0.1519 -0.0585  0.0347
  766POPS   C3B11549  16.303   8.202   7.642  0.1207  0.0577  0.0348
  766POPS   C4B11550  16.322   7.802   7.908 -0.0489  0.0177 -0.0448
  767POPS   CNO11551   7.784  11.123   5.548  0.0114  0.1202  0.2782
  767POPS   PO411552   7.790  11.477   5.893 -0.0325  0.1925  0.2858
  767POPS   GL111553   7.506  11.507   6.237 -0.0256 -0.0047  0.0541
  767POPS   GL211554   7.511  11.867   6.153  0.2587  0.0565 -0.1694
  767POPS   C1A11555   7.188  11.510   6.556 -0.1600 -0.0915  0.0671
  767POPS   D2A11556   7.118  11.620   7.016  0.1142 -0.0089 -0.3126
  767POPS   C3A11557   6.920  11.941   7.240 -0.1206  0.2310  0.2612
  767POPS   C4A11558   6.565  12.214   7.142  0.2415 -0.0396 -0.1629
  767POPS   C1B11559   7.571  11.946   6.655  0.0874  0.2727 -0.1061
  767POPS   C2B11560   7.636  11.588   7.002 -0.1656 -0.1049  0.3119
  767POPS   C3B11561   7.768  11.453   7.429 -0.0667 -0.1789 -0.2541
  767POPS   C4B11562   7.835  11.709   7.842  0.1032  0.4705  0.3007
  768POPS   CNO11563  14.721   3.854   5.052 -0.0256  0.0371 -0.0153
  768POPS   PO411564  14.305   4.009   5.331 -0.0399 -0.0725 -0.0477
  768POPS   GL111565  14.261   3.848   5.749  0.2067 -0.0352  0.3609
  768POPS   GL211566  14.357   4.047   6.012 -0.1454 -0.1543 -0.1347
  768POPS   C1A11567  14.069   3.547   5.940 -0.1714 -0.0386  0.1318
  768POPS   D2A11568  13.670   3.417   5.862 -0.1400 -0.1261 -0.2388
  768POPS   C3A11569  13.313   3.684   6.091 -0.1464  0.0764  0.4956
  768POPS   C4A11570  13.139   3.749   6.388  0.1003  0.2148 -0.1390
  768POPS   C1B11571  14.203   3.814   6.364  0.1693  0.2915 -0.2202
  768POPS   C2B11572  14.080   4.060   6.675 -0.1428 -0.3706 -0.0977
  768POPS   C3B11573  14.350   4.186   7.061 -0.0404  0.0123 -0.0263
  768POPS   C4B11574  14.675   3.937   7.324 -0.0383  0.3909 -0.1643
  769POPS   CNO11575  11.601   3.234   5.851 -0.1180 -0.1050  0.1190
  769POPS   PO411576  11.514   3.668   5.974  0.2181 -0.0444 -0.3142
  769POPS   GL111577  11.643   4.024   6.151 -0.3221  0.1494  0.0969
  769POPS   GL211578  12.014   3.848   6.023  0.1398 -0.0076 -0.0001
  769POPS   C1A11579  11.752   4.358   6.485  0.0004 -0.0659  0.1264
  769POPS   D2A11580  12.039   4.404   6.842  0.0038  0.2706  0.1196
  769POPS   C3A11581  12.004   4.147   7.149  0.0875 -0.0160  0.0959
  769POPS   C4A11582  12.010   3.920   7.564  0.1374  0.0871 -0.3199
  769POPS   C1B11583  12.353   3.683   6.215  0.0513  0.0169  0.1539
  769POPS   C2B11584  12.328   3.283   6.379  0.1434 -0.1795  0.1186
  769POPS   C3B11585  12.072   3.109   6.781  0.3240  0.1314  0.1645
  769POPS   C4B11586  11.925   3.402   7.133  0.0885  0.0632 -0.0054
  770POPS   CNO11587   9.594   4.199   5.607 -0.1405  0.2685 -0.0763
  770POPS   PO411588   9.400   3.807   5.771 -0.1129  0.0472 -0.3834
  770POPS   GL111589   9.367   4.056   6.070 -0.0773  0.0752  0.0979
  770POPS   GL211590   9.317   4.368   6.017 -0.3364  0.0378 -0.0855
  770POPS   C1A11591   9.371   3.974   6.497  0.2455  0.2064 -0.0162
  770POPS   D2A11592   9.160   3.878   6.848 -0.0787  0.0807 -0.3420
  770POPS   C3A11593   9.247   3.780   7.251  0.2662 -0.0505  0.2614
  770POPS   C4A11594   9.519   3.835   7.605 -0.2955  0.3547  0.3886
  770POPS   C1B11595   9.368   4.476   6.417 -0.1031 -0.1965  0.0739
  770POPS   C2B11596   9.042   4.412   6.721  0.1332 -0.1727  0.0295
  770POPS   C3B11597   8.828   4.283   7.105 -0.1167  0.1364 -0.0500
  770POPS   C4B11598   8.559   4.262   7.561  0.1444  0.1479  0.1053
  771YOPS   CNO11599  12.890   2.598   5.194  0.2440  0.1830  0.1283
  771YOPS   PO411600  12.900   2.355   5.568 -0.3350 -0.0740 -0.0097
  771YOPS   GL111601  12.950   2.422   5.940 -0.0894 -0.3763 -0.4547
  771YOPS   GL211602  13.081   2.138   6.160  0.1019 -0.0390 -0.2521
  771YOPS   C1A11603  12.921   2.678   6.316 -0.0769 -0.0780 -0.2222
  771YOPS   D2A11604  12.988   2.902   6.651 -0.0428 -0.2776 -0.0100
  771YOPS   C3A11605  13.212   3.263   6.838 -0.1069  0.2991 -0.2815
  771YOPS   C4A11606  13.370   3.049   7.150 -0.0151  0.4178  0.0152
  771YOPS   C1B11607  13.324   2.358   6.458 -0.2847  0.0900  0.1327
  771YOPS   C2B11608  13.562   2.218   6.849  0.0919 -0.0040 -0.1287
  771YOPS   D3B11609  13.652   2.162   7.161 -0.2661 -0.0705 -0.0892
  771YOPS   C4B11610  13.968   2.140   7.452 -0.0571 -0.3133  0.4231
  772YOPS   CNO11611   9.595   0.031   5.595 -0.2450  0.1460  0.0665
  772YOPS   PO411612   9.426   0.432   5.843 -0.1563  0.0752 -0.1523
  772YOPS   GL111613   9.416   0.235   6.278 -0.0355 -0.1279 -0.0422
  772YOPS   GL211614   9.107   0.336   6.291  0.1480  0.4462 -0.0965
  772YOPS   C1A11615   9.522   0.015   6.698 -0.0664 -0.0022  0.2751
  772YOPS   D2A11616   9.599  -0.060   7.100  0.0170 -0.2403  0.0434
  772YOPS   C3A11617   9.649   0.162   7.525  0.0557 -0.2088  0.2862
  772YOPS   C4A11618   9.451   0.038   7.899 -0.1619 -0.0003  0.0487
  772YOPS   C1B11619   8.973   0.390   6.702 -0.2117 -0.0625  0.0814
  772YOPS   C2B11620   9.156   0.254   7.114 -0.0146  0.0146 -0.1765
  772YOPS   D3B11621   9.109   0.184   7.472 -0.0545  0.2059  0.0409
  772YOPS   C4B11622   9.296   0.564   7.709 -0.0925 -0.1233 -0.0343
  773YOPS   CNO11623   1.385   6.586   5.726  0.1552 -0.1838  0.2185
  773YOPS   PO411624   1.440   6.971   5.945 -0.1257 -0.1577  0.2109
  773YOPS   GL111625   1.364   6.726   6.294  0.1898 -0.3180  0.2996
  773YOPS   GL211626   1.507   6.842   6.509  0.0987  0.4364 -0.4677
  773YOPS   C1A11627   1.141   6.489   6.556 -0.1743 -0.0087  0.0418
  773YOPS   D2A11628   1.152   6.147   6.795 -0.2783  0.1860 -0.0707
  773YOPS   C3A11629   1.090   5.963   7.223 -0.1149 -0.1103  0.0506
  773YOPS   C4A11630   1.228   6.053   7.646  0.4449 -0.1252 -0.1581
  773YOPS   C1B11631   1.344   6.871   6.915 -0.4390  0.1849  0.0218
  773YOPS   C2B11632   1.319   6.565   7.137 -0.3464  0.1105  0.1632
  773YOPS   D3B11633   1.399   6.525   7.523 -0.0585 -0.1105  0.2052
  773YOPS   C4B11634   1.337   6.941   7.599  0.0983 -0.1556  0.1804
  774YOPS   CNO11635   1.974  13.637   5.980  0.1211 -0.1953 -0.2871
  774YOPS   PO411636   2.239  13.208   5.989 -0.3122  0.0340  0.0570
  774YOPS   GL111637   2.298  13.415   6.322  0.2355 -0.3989 -0.1362
  774YOPS   GL211638   2.640  13.284   6.302 -0.0306 -0.0928  0.0823
  774YOPS   C1A11639   2.224  13.522   6.754 -0.0778  0.0111 -0.1208
  774YOPS   D2A11640   2.415  13.531   7.145 -0.2020 -0.1230  0.0802
  774YOPS   C3A11641   2.367  13.726   7.509  0.3667 -0.1560 -0.1773
  774YOPS   C4A11642   2.603  13.840   7.824 -0.1707 -0.0328 -0.2281
  774YOPS   C1B11643   2.680  13.671   6.554 -0.1388  0.1944 -0.0360
  774YOPS   C2B11644   2.895  13.553   6.932 -0.0296 -0.0806  0.0111
  774YOPS   D3B11645   2.849  13.607   7.448  0.0383 -0.1224 -0.0319
  774YOPS   C4B11646   3.068  13.866   7.661 -0.1143 -0.2529 -0.1566
  775YOPS   CNO11647  16.783  11.450   6.540  0.2882 -0.1073 -0.1068
  775YOPS   PO411648  16.278  11.429   6.416 -0.0294 -0.1212 -0.4152
  775YOPS   GL111649  16.313  11.481   6.772 -0.1441 -0.2046 -0.0083
  775YOPS   GL211650  16.085  11.348   6.939  0.3318  0.1568  0.2214
  775YOPS   C1A11651  16.546  11.633   7.071  0.3868 -0.1763 -0.2164
  775YOPS   D2A11652  16.728  11.686   7.450  0.0232 -0.2373 -0.1590
  775YOPS   C3A11653  16.978  11.765   7.793  0.1550 -0.0578 -0.0459
  775YOPS   C4A11654  17.424  11.997   7.659  0.0541 -0.3144  0.2013
  775YOPS   C1B11655  15.700  11.461   7.207 -0.2590  0.1446 -0.1565
  775YOPS   C2B11656  15.401  11.347   7.520  0.1724  0.1374 -0.1025
  775YOPS   D3B11657  15.156  11.490   7.914  0.0186  0.0080  0.0255
  775YOPS   C4B11658  14.924  11.152   8.153 -0.4598 -0.0506 -0.1959
  776YOPS   CNO11659   5.190   3.495   5.695 -0.1081 -0.1010 -0.3200
  776YOPS   PO411660   4.768   3.481   5.642 -0.0932 -0.0624  0.3523
  776YOPS   GL111661   4.817   3.575   5.977 -0.2695 -0.1781 -0.1026
  776YOPS   GL211662   4.730   3.441   6.289  0.1782  0.0426 -0.0004
  776YOPS   C1A11663   4.992   3.832   6.344  0.4619 -0.3913 -0.2858
  776YOPS   D2A11664   4.921   4.032   6.828  0.0681 -0.0289  0.5084
  776YOPS   C3A11665   5.042   4.331   7.110 -0.1649 -0.1203  0.3012
  776YOPS   C4A11666   5.304   4.129   7.416  0.0730  0.1126  0.0300
  776YOPS   C1B11667   4.800   3.066   6.556 -0.1183 -0.0694 -0.1383
  776YOPS   C2B11668   4.649   2.833   6.928  0.1482 -0.0347 -0.4468
  776YOPS   D3B11669   4.610   2.555   7.281  0.3476  0.0226 -0.0370
  776YOPS   C4B11670   4.363   2.678   7.608 -0.1956  0.1600  0.4230
  777YOPS   CNO11671  18.098   4.252   6.058  0.0508 -0.0563  0.1723
  777YOPS   PO411672  18.229   3.801   5.839  0.1051 -0.2871  0.1112
  777YOPS   GL111673  18.324   3.806   6.368 -0.1450  0.0607 -0.0238
  777YOPS   GL211674  18.107   3.679   6.567  0.2646 -0.0711 -0.2929
  777YOPS   C1A11675  18.313   3.989   6.862  0.0022 -0.1234  0.2734
  777YOPS   D2A11676  18.361   4.312   7.114 -0.1138 -0.0535 -0.0630
  777YOPS   C3A11677  18.648   4.510   7.395 -0.0837 -0.2406 -0.1763
  777YOPS   C4A11678  18.771   5.054   7.490  0.1068  0.0120  0.2281
  777YOPS   C1B11679  17.860   3.697   6.969  0.2740  0.1057 -0.2461
  777YOPS   C2B11680  17.543   3.765   7.202 -0.1151  0.0826  0.2813
  777YOPS   D3B11681  17.191   3.716   7.362  0.1060  0.1725 -0.4700
  777YOPS   C4B11682  17.129   3.575   7.714  0.0005 -0.0210  0.1353
  778YOPS   CNO11683  10.418  17.905   5.440  0.1397 -0.3172  0.3478
  778YOPS   PO411684  10.257  17.664   5.775  0.2115  0.0524 -0.0276
  778YOPS   GL111685  10.205  17.672   6.159 -0.0655 -0.1555 -0.1505
  778YOPS   GL211686  10.271  17.400   6.244  0.0986  0.0765 -0.0701
  778YOPS   C1A11687   9.831  17.799   6.450 -0.0104 -0.1382  0.0083
  778YOPS   D2A11688   9.830  17.822   6.813 -0.1316 -0.0379 -0.1438
  778YOPS   C3A11689  10.067  17.954   7.124  0.2255  0.2450 -0.1147
  778YOPS   C4A11690   9.948  17.966   7.513  0.1078 -0.1815 -0.2859
  778YOPS   C1B11691  10.030  17.384   6.624 -0.0334 -0.2177  0.1082
  778YOPS   C2B11692  10.286  17.454   6.965 -0.0637 -0.0595 -0.1941
  778YOPS   D3B11693  10.381  17.638   7.360  0.1725 -0.1672 -0.1355
  778YOPS   C4B11694  10.553  18.036   7.515 -0.0470  0.0465  0.0770
  779YOPS   CNO11695  14.509  11.990   5.882 -0.0111 -0.2092 -0.1090
  779YOPS   PO411696  14.700  11.696   6.147 -0.2138 -0.0350 -0.2085
  779YOPS   GL111697  14.392  11.938   6.440 -0.0797  0.2723  0.1950
  779YOPS   GL211698  14.000  11.835   6.600 -0.1566 -0.1360  0.0461
  779YOPS   C1A11699  14.420  12.062   6.833  0.1813 -0.5426 -0.0169
  779YOPS   D2A11700  14.539  12.033   7.257 -0.0806  0.0612 -0.1447
  779YOPS   C3A11701  14.402  11.776   7.642 -0.0231 -0.0617 -0.0401
  779YOPS   C4A11702  14.264  11.859   8.043  0.1085 -0.2005  0.3770
  779YOPS   C1B11703  13.973  11.903   7.019  0.0157 -0.0417  0.1793
  779YOPS   C2B11704  13.944  11.895   7.528  0.3026  0.0370  0.0585
  779YOPS   D3B11705  13.845  12.145   7.899  0.1117 -0.1316 -0.0644
  779YOPS   C4B11706  13.776  12.533   7.756  0.0805  0.1906 -0.0242
  780YOPS   CNO11707  11.774   6.343   5.552 -0.0340 -0.1459 -0.1244
  780YOPS   PO411708  11.789   6.671   5.854  0.1000  0.1521 -0.1020
  780YOPS   GL111709  11.780   6.905   6.265 -0.0848 -0.1967  0.0422
  780YOPS   GL211710  11.910   7.164   6.153  0.0512  0.2095 -0.0806
  780YOPS   C1A11711  11.890   7.054   6.715 -0.6028  0.1671 -0.1332
  780YOPS   D2A11712  11.943   7.042   7.206 -0.0056  0.1073 -0.1045
  780YOPS   C3A11713  11.556   7.101   7.508  0.2022 -0.4562 -0.0054
  780YOPS   C4A11714  11.384   6.832   7.714  0.2859 -0.1661 -0.2992
  780YOPS   C1B11715  12.361   7.172   6.392  0.1586 -0.2510  0.1479
  780YOPS   C2B11716  12.383   7.302   6.917 -0.1678  0.0464 -0.2099
  780YOPS   D3B11717  12.221   7.552   7.243 -0.3973  0.1275 -0.0665
  780YOPS   C4B11718  12.257   7.267   7.539 -0.0227 -0.1919 -0.2490
  781YOPS   CNO11719   2.532  13.695   5.981  0.1632  0.0502  0.0541
  781YOPS   PO411720   2.809  13.856   5.749  0.0566 -0.1080 -0.3738
  781YOPS   GL111721   2.996  13.605   6.166 -0.3047 -0.1986 -0.0095
  781YOPS   GL211722   3.193  13.753   6.353 -0.2181 -0.0756  0.1962
  781YOPS   C1A11723   3.160  13.263   6.485 -0.2896 -0.2675  0.1782
  781YOPS   D2A11724   3.060  13.117   6.803  0.0421  0.0306  0.3266
  781YOPS   C3A11725   2.846  12.790   7.168 -0.1041 -0.0325 -0.0177
  781YOPS   C4A11726   2.954  12.809   7.583 -0.0282  0.2344  0.1181
  781YOPS   C1B11727   3.424  13.677   6.729 -0.0573 -0.3163  0.1569
  781YOPS   C2B11728   3.595  13.935   7.036 -0.1200 -0.4636 -0.1457
  781YOPS   D3B11729   3.522  13.848   7.471 -0.2296 -0.1439  0.1566
  781YOPS   C4B11730   3.461  13.581   7.766 -0.2439 -0.0719  0.0592
  782YOPS   CNO11731  16.739   8.777   5.964  0.3261 -0.1585 -0.0173
  782YOPS   PO411732  16.628   8.598   6.321 -0.4177  0.3844  0.1030
  782YOPS   GL111733  16.689   8.245   6.532 -0.2022  0.2003  0.1127
  782YOPS   GL211734  16.808   8.314   6.836 -0.0888  0.0572  0.1659
  782YOPS   C1A11735  16.898   7.756   6.872  0.1323 -0.0059 -0.1257
  782YOPS   D2A11736  16.761   7.524   7.147  0.1839 -0.0077  0.1624
  782YOPS   C3A11737  16.651   7.232   7.452  0.1876 -0.0385 -0.0606
  782YOPS   C4A11738  16.399   6.832   7.377  0.1709 -0.0205  0.1326
  782YOPS   C1B11739  16.869   8.192   7.225  0.2363 -0.0753 -0.3869
  782YOPS   C2B11740  16.937   8.112   7.674  0.1427 -0.1812  0.2674
  782YOPS   D3B11741  16.801   8.064   8.017 -0.2078  0.0833 -0.1050
  782YOPS   C4B11742  16.648   8.041   8.407  0.2198 -0.2507  0.1102
  783YOPS   CNO11743   5.084  10.882   5.420  0.0264 -0.2437  0.1628
  783YOPS   PO411744   4.727  11.009   5.650  0.3524 -0.1977 -0.1246
  783YOPS   GL111745   4.691  10.997   6.124 -0.0707  0.2424 -0.0779
  783YOPS   GL211746   4.945  11.203   6.248 -0.1368 -0.2047 -0.4138
  783YOPS   C1A11747   4.524  10.706   6.480  0.1419  0.0471 -0.0221
  783YOPS   D2A11748   4.477  10.676   6.945 -0.1037  0.2791  0.3229
  783YOPS   C3A11749   4.460  10.516   7.425  0.2467 -0.1979  0.1803
  783YOPS   C4A11750   4.240  10.028   7.233 -0.1312  0.1883 -0.1091
  783YOPS   C1B11751   5.097  11.347   6.582  0.0487 -0.2840  0.2365
  783YOPS   C2B11752   4.968  11.306   7.015  0.0948  0.0957 -0.2096
  783YOPS   D3B11753   4.943  11.536   7.453  0.1136 -0.1371  0.2521
  783YOPS   C4B11754   4.644  11.391   7.757  0.1175 -0.2142 -0.0901
  784YOPS   CNO11755   5.047   2.019   6.112  0.3716 -0.3763  0.2061
  784YOPS   PO411756   5.581   2.009   5.990  0.2222 -0.0180 -0.1712
  784YOPS   GL111757   5.613   2.053   6.334  0.2349  0.0188  0.0227
  784YOPS   GL211758   5.399   2.098   6.500  0.0529  0.0971 -0.1547
  784YOPS   C1A11759   5.930   1.993   6.703  0.2887  0.0368 -0.2226
  784YOPS   D2A11760   5.933   1.937   7.123 -0.0565  0.0985 -0.2233
  784YOPS   C3A11761   5.754   2.178   7.497 -0.1240  0.0858 -0.0662
  784YOPS   C4A11762   5.374   2.050   7.719 -0.0458 -0.3294 -0.3985
  784YOPS   C1B11763   5.539   2.215   6.933  0.0198 -0.2796  0.1385
  784YOPS   C2B11764   5.460   2.531   7.271  0.0729  0.0550 -0.1037
  784YOPS   D3B11765   5.652   2.922   7.236  0.1954  0.0962  0.0362
  784YOPS   C4B11766   5.776   3.352   7.365  0.0126 -0.1062 -0.2021
  785YOPS   CNO11767   1.524  12.427   5.732 -0.0882  0.0209  0.2050
  785YOPS   PO411768   1.505  11.984   5.849 -0.0364 -0.1020  0.2136
  785YOPS   GL111769   1.579  12.270   6.317  0.2296 -0.2204 -0.0791
  785YOPS   GL211770   1.738  12.202   6.651 -0.0472  0.0916 -0.1620
  785YOPS   C1A11771   1.329  12.392   6.685  0.2522  0.2241 -0.1084
  785YOPS   D2A11772   1.264  12.579   7.134 -0.1802 -0.0147 -0.2846
  785YOPS   C3A11773   1.049  12.883   7.302  0.1562  0.3665 -0.1753
  785YOPS   C4A11774   0.777  13.163   7.044 -0.1184 -0.0278  0.1886
  785YOPS   C1B11775   1.725  12.303   7.115 -0.3852 -0.1113  0.1080
  785YOPS   C2B11776   1.628  12.445   7.494  0.1453  0.0083 -0.2192
  785YOPS   D3B11777   1.595  12.244   7.941 -0.0979 -0.0597  0.0189
  785YOPS   C4B11778   1.390  12.298   8.356  0.0609  0.2185  0.2290
  786YOPS   CNO11779  13.476  17.167   5.480  0.1497  0.0838 -0.3923
  786YOPS   PO411780  13.493  17.422   5.836  0.2050  0.0069 -0.2526
  786YOPS   GL111781  13.601  17.823   6.176  0.0871 -0.2493  0.0929
  786YOPS   GL211782  13.749  18.010   6.222 -0.1045 -0.0080 -0.0934
  786YOPS   C1A11783  13.817  17.758   6.597 -0.0935  0.1399  0.0427
  786YOPS   D2A11784  13.719  17.612   7.119  0.0426 -0.2043  0.2281
  786YOPS   C3A11785  13.871  17.630   7.553 -0.0653 -0.2095 -0.5213
  786YOPS   C4A11786  13.859  17.417   7.971  0.2776 -0.0640 -0.0054
  786YOPS   C1B11787  14.274  17.997   6.411  0.2809  0.0759 -0.2433
  786YOPS   C2B11788  14.447  17.977   6.863  0.1542 -0.0591  0.0013
  786YOPS   D3B11789  14.830  18.022   7.132  0.4998 -0.2639 -0.0641
  786YOPS   C4B11790  14.886  17.990   7.501  0.0759  0.1825 -0.0996
  787YOPS   CNO11791  15.401  11.153   6.306 -0.1070  0.2233 -0.0321
  787YOPS   PO411792  15.669  11.030   6.600 -0.0747 -0.0256  0.1782
  787YOPS   GL111793  15.684  11.071   6.983 -0.0267  0.4049  0.1958
  787YOPS   GL211794  15.944  10.843   7.061  0.2382  0.0346  0.4155
  787YOPS   C1A11795  15.499  10.955   7.251 -0.3165 -0.0053 -0.1386
  787YOPS   D2A11796  15.329  10.588   7.498  0.0712 -0.1682 -0.2288
  787YOPS   C3A11797  15.174  10.453   7.890  0.2329  0.1316  0.0339
  787YOPS   C4A11798  15.421  10.377   8.169  0.1100 -0.0258 -0.0368
  787YOPS   C1B11799  16.003  10.963   7.396 -0.0615 -0.2121  0.1393
  787YOPS   C2B11800  15.820  11.188   7.661  0.0276 -0.0645 -0.0580
  787YOPS   D3B11801  15.754  11.231   8.060  0.1139  0.1144 -0.1110
  787YOPS   C4B11802  15.666  11.616   8.219 -0.0131 -0.0946 -0.2567
  788YOPS   CNO11803  18.052  11.867   6.544  0.1174 -0.2683  0.0639
  788YOPS   PO411804  17.781  11.447   6.433 -0.0584 -0.0059  0.0695
  788YOPS   GL111805  18.115  11.466   6.846 -0.0405  0.1837 -0.3835
  788YOPS   GL211806  18.117  11.158   6.894 -0.0371  0.0003  0.1915
  788YOPS   C1A11807  18.444  11.588   7.239 -0.0531  0.2995 -0.2339
  788YOPS   D2A11808  18.379  11.802   7.556 -0.1085  0.2000 -0.0182
  788YOPS   C3A11809  18.228  11.733   8.060 -0.0676 -0.0421 -0.1935
  788YOPS   C4A11810  18.112  11.760   8.560  0.0047  0.1738 -0.2074
  788YOPS   C1B11811  18.264  10.933   7.319 -0.0901 -0.3648  0.1412
  788YOPS   C2B11812  18.514  10.980   7.691 -0.2509  0.0857 -0.1060
  788YOPS   D3B11813  18.632  11.286   8.024  0.0486 -0.2289 -0.1747
  788YOPS   C4B11814  18.746  11.658   8.007  0.1466  0.1682 -0.0222
  789YOPS   CNO11815   7.268   9.183   5.903  0.2527 -0.4579  0.0970
  789YOPS   PO411816   7.141   8.671   5.826 -0.2684  0.1461  0.0739
  789YOPS   GL111817   7.089   8.756   6.258 -0.0286  0.0033 -0.0704
  789YOPS   GL211818   7.102   8.422   6.306 -0.1151  0.1410  0.0436
  789YOPS   C1A11819   7.175   8.807   6.655 -0.0823  0.0001 -0.1322
  789YOPS   D2A11820   7.135   8.795   7.066 -0.0631 -0.0328  0.2555
  789YOPS   C3A11821   7.000   8.655   7.473 -0.1153  0.1006 -0.0793
  789YOPS   C4A11822   6.763   8.737   7.896  0.0287  0.4206 -0.2376
  789YOPS   C1B11823   7.160   8.215   6.658  0.1561 -0.2486  0.1315
  789YOPS   C2B11824   7.327   8.337   7.077  0.0173  0.1374  0.2062
  789YOPS   D3B11825   7.607   8.587   7.328 -0.1367 -0.1447  0.0193
  789YOPS   C4B11826   7.898   8.651   7.739 -0.0180  0.0202 -0.2025
  790YOPS   CNO11827   2.542  15.261   5.955 -0.0020  0.2524 -0.1115
  790YOPS   PO411828   2.370  15.694   6.091  0.1440  0.3807 -0.0351
  790YOPS   GL111829   2.138  15.745   6.459  0.0993  0.1032 -0.0514
  790YOPS   GL211830   1.920  15.953   6.510  0.2966  0.0931 -0.0618
  790YOPS   C1A11831   2.195  15.585   6.886 -0.1527 -0.3083  0.0805
  790YOPS   D2A11832   2.250  15.660   7.321 -0.0801 -0.3427 -0.0329
  790YOPS   C3A11833   2.299  15.496   7.748  0.3292 -0.2399 -0.0743
  790YOPS   C4A11834   2.281  15.708   8.203 -0.1798 -0.1709  0.3835
  790YOPS   C1B11835   2.082  16.078   6.941  0.2971 -0.2392  0.0307
  790YOPS   C2B11836   2.094  16.138   7.440  0.1190  0.0323  0.2569
  790YOPS   D3B11837   2.307  16.058   7.804 -0.0689 -0.1092  0.0958
  790YOPS   C4B11838   2.548  16.408   8.015  0.1150 -0.1018  0.1913
  791YOPS   CNO11839   6.508   0.098   5.566  0.2513  0.3683 -0.1759
  791YOPS   PO411840   6.873  -0.099   5.634  0.3230 -0.0933 -0.0298
  791YOPS   GL111841   7.051  -0.281   6.123  0.4025 -0.2137  0.0628
  791YOPS   GL211842   6.993  -0.534   6.266 -0.4725 -0.1483  0.0648
  791YOPS   C1A11843   7.416  -0.291   6.345 -0.0584 -0.1465  0.1687
  791YOPS   D2A11844   7.776  -0.486   6.288  0.1657 -0.1101  0.2296
  791YOPS   C3A11845   8.119  -0.414   6.243  0.1486  0.0541 -0.1083
  791YOPS   C4A11846   8.380  -0.173   6.520 -0.2421 -0.3594 -0.0528
  791YOPS   C1B11847   6.949  -0.411   6.612 -0.2925  0.0502 -0.0541
  791YOPS   C2B11848   7.033  -0.275   6.941 -0.1656  0.1275 -0.0935
  791YOPS   D3B11849   6.904  -0.212   7.352  0.3455  0.2115  0.2290
  791YOPS   C4B11850   7.241   0.038   7.606  0.0472  0.3451  0.2310
  792YOPS   CNO11851  16.353   2.180   5.723 -0.0640 -0.0828 -0.2828
  792YOPS   PO411852  16.149   2.555   5.707  0.1594 -0.4248 -0.0893
  792YOPS   GL111853  16.068   2.519   6.035 -0.1107  0.0545 -0.2013
  792YOPS   GL211854  16.290   2.262   6.238 -0.0779 -0.0520  0.1841
  792YOPS   C1A11855  15.930   2.500   6.439  0.1202 -0.1026 -0.1096
  792YOPS   D2A11856  15.782   2.260   6.741  0.2563 -0.0013 -0.0540
  792YOPS   C3A11857  15.651   1.917   6.981 -0.3389 -0.0595 -0.0212
  792YOPS   C4A11858  15.879   1.621   6.711 -0.0383  0.0619  0.1229
  792YOPS   C1B11859  16.212   2.033   6.626  0.0421 -0.0958  0.1658
  792YOPS   C2B11860  16.244   2.021   6.990 -0.0962  0.0274  0.1289
  792YOPS   D3B11861  16.581   1.906   7.344 -0.0475 -0.1280  0.0270
  792YOPS   C4B11862  16.353   1.835   7.702 -0.0289 -0.1974 -0.1316
  793YOPS   CNO11863   0.071   1.740   5.765  0.1697  0.3484  0.0205
  793YOPS   PO411864   0.107   2.104   5.935  0.2969 -0.0372 -0.3121
  793YOPS   GL111865   0.093   2.178   6.331 -0.0604  0.3156 -0.0587
  793YOPS   GL211866   0.476   2.199   6.499  0.1985  0.1343 -0.3004
  793YOPS   C1A11867  -0.025   2.310   6.647 -0.2302  0.5433  0.2105
  793YOPS   D2A11868  -0.068   2.164   7.053  0.0178  0.3301  0.0735
  793YOPS   C3A11869   0.144   2.362   7.530  0.0484 -0.2160 -0.0686
  793YOPS   C4A11870   0.013   2.167   7.904  0.1609 -0.0160  0.0760
  793YOPS   C1B11871   0.506   2.129   6.921  0.0973 -0.1420 -0.1137
  793YOPS   C2B11872   0.412   2.015   7.309 -0.1546 -0.3376  0.2376
  793YOPS   D3B11873   0.484   2.056   7.737  0.2293  0.0903 -0.4119
  793YOPS   C4B11874   0.376   1.733   7.925  0.2690  0.2546 -0.0534
  794YOPS   CNO11875   1.363  10.620   5.963 -0.1095  0.0833  0.1948
  794YOPS   PO411876   1.762  10.637   6.162 -0.2204  0.1413  0.1872
  794YOPS   GL111877   1.804  10.522   6.687  0.1448 -0.0713 -0.0725
  794YOPS   GL211878   2.237  10.528   6.721 -0.1120 -0.2003  0.0212
  794YOPS   C1A11879   1.954  10.347   7.110  0.3520  0.1722  0.0841
  794YOPS   D2A11880   1.960  10.121   7.481 -0.0849  0.0738  0.0201
  794YOPS   C3A11881   2.073  10.247   7.973  0.3586  0.0505 -0.1159
  794YOPS   C4A11882   1.861  10.567   8.115  0.1986 -0.3024  0.4480
  794YOPS   C1B11883   2.519  10.318   6.977  0.0878  0.0583 -0.0461
  794YOPS   C2B11884   2.450  10.284   7.317 -0.2476 -0.0654 -0.3469
  794YOPS   D3B11885   2.733  10.296   7.706  0.1600 -0.1396 -0.1211
  794YOPS   C4B11886   2.505  10.453   7.916 -0.0167 -0.0804  0.2699
  795YOPS   CNO11887   7.563  16.993   5.414 -0.1711  0.1577  0.0453
  795YOPS   PO411888   7.337  16.892   5.716  0.0901 -0.1206 -0.0800
  795YOPS   GL111889   7.294  16.705   6.140  0.0206  0.0943  0.0129
  795YOPS   GL211890   7.099  16.775   6.335 -0.1425 -0.1024  0.0136
  795YOPS   C1A11891   7.475  16.615   6.562  0.2257  0.1945  0.1526
  795YOPS   D2A11892   7.653  16.544   6.904  0.3000 -0.1498  0.1071
  795YOPS   C3A11893   7.784  16.160   6.933  0.1747 -0.0496 -0.1756
  795YOPS   C4A11894   7.643  15.874   7.389  0.1197  0.0871 -0.0583
  795YOPS   C1B11895   7.268  17.044   6.609 -0.0574  0.0817  0.1004
  795YOPS   C2B11896   7.364  17.268   6.984  0.0367  0.2223 -0.2349
  795YOPS   D3B11897   7.520  17.194   7.353 -0.1069 -0.2349  0.2921
  795YOPS   C4B11898   7.406  16.871   7.636  0.1352  0.0787  0.3315
  796YOPS   CNO11899   4.391   9.253   5.589 -0.0167  0.1111  0.0592
  796YOPS   PO411900   4.001   9.353   5.653  0.0080 -0.1949 -0.0736
  796YOPS   GL111901   3.933   9.362   6.006  0.2162 -0.2948 -0.1310
  796YOPS   GL211902   4.232   9.590   6.181  0.2092 -0.0674 -0.0518
  796YOPS   C1A11903   3.896   9.316   6.476  0.0929 -0.0742  0.1654
  796YOPS   D2A11904   3.918   9.517   6.827 -0.1353 -0.1190  0.2182
  796YOPS   C3A11905   3.651   9.540   7.170  0.0176 -0.2726 -0.3049
  796YOPS   C4A11906   3.683   9.250   7.558  0.5263 -0.1291 -0.0600
  796YOPS   C1B11907   4.363   9.777   6.530  0.1660  0.0448  0.0156
  796YOPS   C2B11908   4.438  10.217   6.701  0.0324  0.0818 -0.2851
  796YOPS   D3B11909   4.704  10.266   7.076 -0.2830  0.1247 -0.0942
  796YOPS   C4B11910   4.888  10.715   7.159 -0.0567  0.0839  0.4237
  797YOPS   CNO11911  15.814  18.149   6.175 -0.4114  0.3078  0.0829
  797YOPS   PO411912  15.693  17.796   6.109 -0.1472  0.0031 -0.1884
  797YOPS   GL111913  15.965  17.601   6.447 -0.0284 -0.2689 -0.0509
  797YOPS   GL211914  15.823  17.416   6.508 -0.3357  0.2209  0.0949
  797YOPS   C1A11915  16.050  17.567   6.930  0.1372 -0.0062 -0.0086
  797YOPS   D2A11916  16.129  17.311   7.283 -0.1064  0.3629  0.0357
  797YOPS   C3A11917  16.183  17.206   7.725  0.2771 -0.1899 -0.1432
  797YOPS   C4A11918  16.043  17.482   7.942 -0.2358 -0.2124 -0.0621
  797YOPS   C1B11919  16.112  17.066   6.775 -0.1160 -0.2122 -0.3212
  797YOPS   C2B11920  16.161  16.826   6.997  0.0451 -0.3224 -0.0799
  797YOPS   D3B11921  16.308  16.799   7.507 -0.1147 -0.0707  0.1083
  797YOPS   C4B11922  16.051  16.663   7.757  0.1147 -0.0732  0.1262
  798YOPS   CNO11923  14.788   7.729   6.069  0.3753 -0.3986 -0.0989
  798YOPS   PO411924  14.405   7.622   5.958  0.2885 -0.1789 -0.1858
  798YOPS   GL111925  14.430   7.477   6.320  0.2124  0.1488 -0.0219
  798YOPS   GL211926  14.761   7.343   6.380 -0.2693 -0.1893  0.2436
  798YOPS   C1A11927  14.226   7.482   6.709  0.1892 -0.1907 -0.0889
  798YOPS   D2A11928  13.915   7.539   7.116  0.0263 -0.0246 -0.2032
  798YOPS   C3A11929  13.493   7.605   7.175  0.0405  0.0620  0.0217
  798YOPS   C4A11930  13.210   7.598   7.503  0.1459 -0.1187  0.0236
  798YOPS   C1B11931  14.570   7.152   6.698  0.1323  0.0456 -0.2816
  798YOPS   C2B11932  14.576   7.104   7.171  0.5403  0.0596 -0.2606
  798YOPS   D3B11933  14.671   7.184   7.674 -0.2200 -0.2822 -0.1980
  798YOPS   C4B11934  14.220   7.153   7.893  0.2911  0.2431  0.0748
  799YOPS   CNO11935   9.248   8.874   5.215  0.1369  0.1384  0.2139
  799YOPS   PO411936   9.549   9.027   5.462  0.1734  0.2446  0.1217
  799YOPS   GL111937   9.419   8.907   5.979  0.0707 -0.1626  0.0738
  799YOPS   GL211938   9.279   9.145   6.139 -0.0328 -0.0468  0.0691
  799YOPS   C1A11939   9.699   9.034   6.311 -0.3153 -0.2633  0.0302
  799YOPS   D2A11940  10.080   8.996   6.565  0.0342 -0.1387  0.2746
  799YOPS   C3A11941  10.244   8.975   6.983 -0.1093  0.0899  0.3077
  799YOPS   C4A11942   9.899   9.104   7.237  0.1218  0.2524 -0.1383
  799YOPS   C1B11943   9.300   9.284   6.576 -0.1780 -0.1597 -0.1449
  799YOPS   C2B11944   9.285   9.437   7.008 -0.1757  0.3258 -0.4152
  799YOPS   D3B11945   9.462   9.375   7.436 -0.0209 -0.0236  0.0991
  799YOPS   C4B11946   9.842   9.482   7.536  0.0734  0.1144 -0.2136
  800YOPS   CNO11947  10.883  16.454   5.614 -0.3236 -0.1487 -0.1282
  800YOPS   PO411948  10.810  16.214   5.974  0.0797  0.0332  0.0289
  800YOPS   GL111949  10.742  16.242   6.402 -0.0808  0.0986  0.0821
  800YOPS   GL211950  10.528  16.418   6.490 -0.1350  0.1605 -0.2677
  800YOPS   C1A11951  10.821  16.177   6.870 -0.0315 -0.1182 -0.0245
  800YOPS   D2A11952  10.943  16.368   7.255 -0.1516  0.4133 -0.1005
  800YOPS   C3A11953  11.379  16.412   7.152  0.0750 -0.1383  0.2185
  800YOPS   C4A11954  11.669  16.150   6.917  0.2610 -0.1011  0.1536
  800YOPS   C1B11955  10.511  16.591   6.937  0.1828  0.0117 -0.1503
  800YOPS   C2B11956  10.537  16.679   7.360 -0.2285  0.2963 -0.0407
  800YOPS   D3B11957  10.772  16.713   7.678  0.1177 -0.3276  0.1401
  800YOPS   C4B11958  10.944  17.118   8.033 -0.2970 -0.0513  0.2023
  801POPE   NH311959   3.829   0.211   5.951  0.2625 -0.1731  0.0186
  801POPE   PO411960   3.417   0.430   6.021  0.0181  0.2972 -0.2955
  801POPE   GL111961   3.465   0.873   6.161 -0.2581 -0.1557 -0.2872
  801POPE   GL211962   3.401   1.166   5.960  0.0153 -0.3079  0.0292
  801POPE   C1A11963   3.546   1.119   6.460  0.1722 -0.0018  0.1198
  801POPE   D2A11964   3.236   1.421   6.751 -0.2297  0.1530 -0.2648
  801POPE   C3A11965   3.357   1.589   6.987  0.1615 -0.1416 -0.4418
  801POPE   C4A11966   3.573   1.821   7.165 -0.0478 -0.3551  0.1677
  801POPE   C1B11967   3.045   1.237   6.287 -0.2335 -0.1095  0.0828
  801POPE   C2B11968   3.064   0.970   6.645  0.1328  0.0121 -0.2171
  801POPE   C3B11969   3.345   0.961   7.052 -0.2260 -0.2609 -0.0803
  801POPE   C4B11970   3.356   1.210   7.485 -0.1221 -0.2411 -0.2922
  802POPE   NH311971   5.892  17.282   6.070  0.1918  0.0464 -0.1499
  802POPE   PO411972   6.135  17.633   6.010  0.2649  0.1470  0.0139
  802POPE   GL111973   6.107  17.928   6.346  0.0043 -0.1359 -0.1088
  802POPE   GL211974   5.904  17.679   6.470 -0.1117  0.1187 -0.0405
  802POPE   C1A11975   5.975  18.142   6.722  0.0112  0.2176 -0.0635
  802POPE   D2A11976   5.894  18.125   7.085 -0.1993  0.1604  0.1731
  802POPE   C3A11977   6.185  18.165   7.396  0.1072 -0.2758 -0.2056
  802POPE   C4A11978   6.524  18.204   7.713 -0.2210 -0.0063  0.0662
  802POPE   C1B11979   5.935  17.546   6.912  0.1858  0.3826 -0.0150
  802POPE   C2B11980   5.789  17.599   7.308  0.1249 -0.0167 -0.0370
  802POPE   C3B11981   5.520  17.379   7.541 -0.5089 -0.0130  0.2381
  802POPE   C4B11982   5.223  17.268   7.838 -0.1200 -0.0035  0.2510
  803POPE   NH311983   3.174   8.978   5.894 -0.0339  0.1812 -0.0644
  803POPE   PO411984   2.744   9.029   6.103  0.0896 -0.1342  0.0103
  803POPE   GL111985   2.962   9.079   6.443  0.1220 -0.3614  0.1353
  803POPE   GL211986   3.188   8.870   6.559 -0.2564 -0.1763  0.3775
  803POPE   C1A11987   2.887   9.272   6.899  0.1688 -0.2209  0.3948
  803POPE   D2A11988   2.737   9.300   7.203  0.0600  0.0612  0.3783
  803POPE   C3A11989   2.736   9.464   7.613 -0.0877 -0.0106 -0.1211
  803POPE   C4A11990   2.501   9.486   8.097  0.0102 -0.1550 -0.1155
  803POPE   C1B11991   3.254   8.863   6.930  0.1608 -0.2087  0.3768
  803POPE   C2B11992   3.456   8.861   7.314  0.0595  0.2195 -0.2191
  803POPE   C3B11993   3.427   8.819   7.797  0.0682 -0.2124  0.1796
  803POPE   C4B11994   3.303   8.886   8.120  0.1177  0.0330  0.0042
  804POPE   NH311995  10.550   0.552   5.453 -0.0247 -0.2584  0.1763
  804POPE   PO411996  10.592   0.219   5.679  0.0537  0.1290 -0.0986
  804POPE   GL111997  10.843   0.145   6.169  0.1520  0.1866 -0.0887
  804POPE   GL211998  11.033   0.299   6.292  0.3461 -0.2181 -0.0489
  804POPE   C1A11999  10.944  -0.162   6.441  0.1413  0.1924  0.2698
  804POPE   D2A12000  11.093  -0.299   6.796  0.3813  0.0500  0.0780
  804POPE   C3A12001  11.025  -0.136   7.207 -0.1418  0.2907  0.3195
  804POPE   C4A12002  11.359  -0.233   7.560 -0.0727 -0.0423  0.3454
  804POPE   C1B12003  10.961   0.256   6.694 -0.2059 -0.0238 -0.0324
  804POPE   C2B12004  10.838   0.416   7.264  0.2492  0.1060  0.2730
  804POPE   C3B12005  10.856   0.214   7.694 -0.1808 -0.0191  0.3153
  804POPE   C4B12006  10.831  -0.047   7.929  0.3323  0.1425 -0.0681
  805POPE   NH312007  16.720  10.349   6.807  0.1398  0.1905  0.0261
  805POPE   PO412008  16.324  10.540   6.875 -0.0164  0.2222  0.0614
  805POPE   GL112009  16.297  10.583   7.315 -0.3525  0.0303  0.1535
  805POPE   GL212010  16.634  10.477   7.335 -0.0202  0.0065  0.0195
  805POPE   C1A12011  16.297  10.265   7.701 -0.1110 -0.0871  0.0723
  805POPE   D2A12012  16.489   9.922   7.889  0.0175 -0.0956 -0.2069
  805POPE   C3A12013  16.658  10.010   8.282 -0.0818 -0.4050 -0.1521
  805POPE   C4A12014  17.011  10.148   8.344  0.0789  0.2986  0.2639
  805POPE   C1B12015  16.681  10.727   7.722 -0.2504  0.2653 -0.0169
  805POPE   C2B12016  16.336  10.828   7.915 -0.1374  0.1278 -0.0511
  805POPE   C3B12017  16.241  11.242   8.081  0.0274 -0.0908 -0.5110
  805POPE   C4B12018  16.190  11.620   8.360  0.1293 -0.0356  0.1040
  806POPE   NH312019   3.225   6.645   5.795  0.0619 -0.0509  0.3949
  806POPE   PO412020   2.797   6.792   5.964 -0.1580 -0.0184  0.0661
  806POPE   GL112021   2.823   6.863   6.409 -0.0797 -0.0408  0.0173
  806POPE   GL212022   2.627   6.864   6.679  0.0711 -0.3722 -0.1734
  806POPE   C1A12023   2.792   6.413   6.707 -0.0359  0.1221  0.1023
  806POPE   D2A12024   2.727   6.145   7.073  0.0450 -0.1129  0.1710
  806POPE   C3A12025   2.475   6.261   7.381  0.0247  0.1294 -0.2742
  806POPE   C4A12026   2.368   6.572   7.590  0.0242 -0.2038 -0.2334
  806POPE   C1B12027   2.933   6.821   6.994 -0.0208  0.1428  0.0149
  806POPE   C2B12028   2.841   6.591   7.307 -0.2071  0.0609 -0.0123
  806POPE   C3B12029   2.950   6.492   7.751 -0.0981  0.2577 -0.2395
  806POPE   C4B12030   3.077   6.353   8.141  0.3358 -0.2123 -0.0042
  807POPE   NH312031  12.988   0.379   5.357 -0.0328  0.1926 -0.0352
  807POPE   PO412032  13.339   0.085   5.590 -0.0782  0.0846 -0.3808
  807POPE   GL112033  13.223   0.013   6.071 -0.1910 -0.0960  0.0085
  807POPE   GL212034  12.917  -0.263   6.205  0.2045 -0.0341  0.0969
  807POPE   C1A12035  13.398  -0.028   6.501  0.3711 -0.1145  0.0567
  807POPE   D2A12036  13.414  -0.130   6.854  0.0500  0.0523 -0.2079
  807POPE   C3A12037  13.132  -0.360   7.045  0.0591  0.2424  0.1518
  807POPE   C4A12038  13.280  -0.603   7.398 -0.1139  0.1164 -0.3053
  807POPE   C1B12039  13.029  -0.524   6.499  0.0116  0.1127 -0.2866
  807POPE   C2B12040  13.355  -0.626   6.729  0.1633  0.2444 -0.0980
  807POPE   C3B12041  13.679  -0.951   6.755  0.0283 -0.0706  0.2922
  807POPE   C4B12042  13.975  -1.229   6.717 -0.0794  0.0490  0.1335
  808POPE   NH312043  12.530  13.507   6.260  0.1798 -0.1890 -0.0593
  808POPE   PO412044  12.161  13.803   6.318 -0.1301  0.3438 -0.0211
  808POPE   GL112045  11.950  13.566   6.657 -0.3540 -0.0827  0.0341
  808POPE   GL212046  11.842  13.282   6.681  0.1435 -0.0322  0.5304
  808POPE   C1A12047  12.169  13.485   7.030 -0.1362  0.0359  0.1761
  808POPE   D2A12048  12.347  13.295   7.360  0.2048 -0.3530  0.1553
  808POPE   C3A12049  12.519  13.503   7.670 -0.0973  0.0196  0.1888
  808POPE   C4A12050  12.390  13.372   8.125  0.0126  0.1315  0.3789
  808POPE   C1B12051  11.456  13.446   6.993 -0.0759  0.1751 -0.2453
  808POPE   C2B12052  11.427  13.291   7.449 -0.0082  0.1457  0.0377
  808POPE   C3B12053  11.440  13.225   7.848 -0.1816  0.1389 -0.0533
  808POPE   C4B12054  11.103  12.945   8.052  0.0055  0.0847 -0.0224
  809POPE   NH312055   7.134  10.359   5.798 -0.1199 -0.3899  0.0668
  809POPE   PO412056   7.013   9.994   5.648 -0.1501  0.0050 -0.2134
  809POPE   GL112057   7.292   9.821   5.950 -0.1759 -0.2970 -0.0345
  809POPE   GL212058   7.439  10.114   6.187 -0.0553 -0.2265  0.0407
  809POPE   C1A12059   7.585   9.607   6.197  0.1308 -0.2752  0.0303
  809POPE   D2A12060   7.940   9.299   6.261 -0.3697 -0.0004  0.1936
  809POPE   C3A12061   7.999   8.888   6.533  0.1248 -0.1023  0.2809
  809POPE   C4A12062   8.104   8.449   6.448  0.0471 -0.2419  0.3919
  809POPE   C1B12063   7.664  10.147   6.499 -0.0500 -0.1036  0.0300
  809POPE   C2B12064   7.806  10.171   6.964 -0.2092  0.0360 -0.1387
  809POPE   C3B12065   7.786  10.102   7.354  0.2063 -0.0244 -0.0785
  809POPE   C4B12066   7.806  10.345   7.798  0.1182 -0.0713  0.0867
  810POPE   NH312067  17.167  13.892   6.400 -0.1072 -0.0235 -0.1628
  810POPE   PO412068  17.019  14.243   6.195  0.0382 -0.0300  0.0972
  810POPE   GL112069  16.908  14.305   6.676  0.0065  0.1064  0.0301
  810POPE   GL212070  17.103  14.167   6.831 -0.0721 -0.0741 -0.1223
  810POPE   C1A12071  17.177  14.635   6.849  0.0632  0.2954  0.0295
  810POPE   D2A12072  17.274  15.065   6.654  0.0068 -0.1374  0.0065
  810POPE   C3A12073  17.364  15.413   6.928  0.0635 -0.0632 -0.0467
  810POPE   C4A12074  17.542  15.749   6.759 -0.1478 -0.1987 -0.3525
  810POPE   C1B12075  17.174  14.200   7.196 -0.0075 -0.0293  0.0099
  810POPE   C2B12076  17.479  14.038   7.498  0.2706  0.1183 -0.0749
  810POPE   C3B12077  17.642  14.278   7.850 -0.1416 -0.0219 -0.2533
  810POPE   C4B12078  18.078  14.212   7.980 -0.0161 -0.2097  0.0520
  811POPE   NH312079  16.434  17.210   5.855 -0.0401 -0.1713  0.0631
  811POPE   PO412080  16.828  17.138   5.900  0.1452  0.1395  0.0632
  811POPE   GL112081  16.784  16.969   6.251  0.4064  0.1864 -0.0886
  811POPE   GL212082  17.083  17.122   6.350  0.1118 -0.0361  0.1666
  811POPE   C1A12083  16.565  16.793   6.613  0.0494  0.0919  0.0724
  811POPE   D2A12084  16.694  16.715   7.044  0.0062 -0.0964 -0.2007
  811POPE   C3A12085  16.467  16.380   7.320  0.1212 -0.1236 -0.0299
  811POPE   C4A12086  16.007  16.357   7.358 -0.0902  0.0628  0.0672
  811POPE   C1B12087  17.166  16.736   6.584  0.0330  0.0385 -0.4708
  811POPE   C2B12088  17.198  16.717   7.041  0.0629 -0.0575 -0.1042
  811POPE   C3B12089  17.194  17.072   7.272 -0.0791  0.0471  0.2773
  811POPE   C4B12090  17.372  17.111   7.641  0.1817 -0.1123 -0.0552
  812POPE   NH312091   0.775   7.621   6.158  0.4312  0.0650  0.0384
  812POPE   PO412092   0.536   7.346   6.268  0.0690  0.2625 -0.1288
  812POPE   GL112093   0.809   7.458   6.627 -0.2337  0.1910 -0.1555
  812POPE   GL212094   0.711   7.800   6.679 -0.0564  0.2206 -0.1754
  812POPE   C1A12095   0.947   7.303   7.102 -0.1542  0.0150 -0.0627
  812POPE   D2A12096   0.955   6.910   7.271  0.0706 -0.2623 -0.5629
  812POPE   C3A12097   0.849   6.877   7.692  0.0618 -0.0862  0.0390
  812POPE   C4A12098   0.847   6.753   8.120  0.3432  0.1436 -0.2877
  812POPE   C1B12099   0.412   7.985   7.160 -0.2236  0.0332  0.2935
  812POPE   C2B12100   0.241   8.155   7.569  0.0720  0.0537  0.0374
  812POPE   C3B12101   0.568   8.435   7.701 -0.0868  0.0607 -0.0622
  812POPE   C4B12102   0.765   8.704   8.033  0.2859  0.0715 -0.1565
  813POPE   NH312103  15.668   0.765   5.951  0.3046 -0.1049  0.0195
  813POPE   PO412104  15.686   0.353   6.000  0.0840  0.1409 -0.2243
  813POPE   GL112105  15.554   0.231   6.377  0.2969  0.0229 -0.1381
  813POPE   GL212106  15.256   0.183   6.346 -0.0072  0.1992 -0.1294
  813POPE   C1A12107  15.603   0.286   6.819  0.3587 -0.0898 -0.2610
  813POPE   D2A12108  15.880   0.216   7.057 -0.1612 -0.0693 -0.2902
  813POPE   C3A12109  15.945  -0.197   7.188 -0.0010 -0.1242  0.0144
  813POPE   C4A12110  15.997  -0.512   7.540 -0.0593 -0.1567  0.0462
  813POPE   C1B12111  15.143   0.457   6.703 -0.2435  0.2726 -0.0571
  813POPE   C2B12112  15.355   0.618   7.141  0.1447  0.0534  0.2436
  813POPE   C3B12113  15.169   0.670   7.530  0.0910 -0.2037  0.0258
  813POPE   C4B12114  15.381   0.550   7.956 -0.1435  0.0063 -0.0126
  814POPE   NH312115   6.665   8.551   6.023  0.0461 -0.1427 -0.0744
  814POPE   PO412116   6.358   8.861   6.136  0.0385  0.1130 -0.0050
  814POPE   GL112117   6.272   8.485   6.349  0.1699 -0.0618  0.0517
  814POPE   GL212118   6.176   8.684   6.667  0.2169 -0.0239 -0.1017
  814POPE   C1A12119   6.288   8.097   6.648 -0.1611  0.1850  0.1201
  814POPE   D2A12120   6.361   7.926   7.063 -0.0217 -0.0550  0.1604
  814POPE   C3A12121   6.120   8.210   7.284  0.0755 -0.3161 -0.2435
  814POPE   C4A12122   5.915   8.181   7.677  0.2089  0.4480  0.1911
  814POPE   C1B12123   5.958   8.837   7.067  0.0560  0.2646  0.0177
  814POPE   C2B12124   5.787   8.626   7.373  0.0533  0.1703  0.1465
  814POPE   C3B12125   5.607   8.551   7.762 -0.4317  0.0549  0.1621
  814POPE   C4B12126   5.399   8.421   8.124 -0.3277 -0.0870  0.2010
  815POPE   NH312127  11.485   2.609   6.225  0.0111  0.2072 -0.2985
  815POPE   PO412128  11.644   2.208   6.174  0.3925 -0.0816  0.1685
  815POPE   GL112129  11.180   2.320   6.501 -0.0913 -0.1671 -0.1413
  815POPE   GL212130  11.357   2.546   6.704 -0.3190 -0.3034 -0.3171
  815POPE   C1A12131  10.795   2.434   6.560  0.0626 -0.2711  0.1291
  815POPE   D2A12132  10.589   2.428   6.961 -0.0260 -0.4093  0.0221
  815POPE   C3A12133  10.478   2.863   7.044  0.0593  0.2765  0.0933
  815POPE   C4A12134  10.431   3.216   7.202 -0.3808  0.2731 -0.0025
  815POPE   C1B12135  11.455   2.527   7.125 -0.4403  0.0128  0.0685
  815POPE   C2B12136  11.515   2.249   7.415 -0.0967  0.0956  0.0876
  815POPE   C3B12137  11.724   1.778   7.508  0.1402 -0.1677 -0.3187
  815POPE   C4B12138  12.174   1.600   7.631 -0.2870  0.2179  0.0490
  816POPE   NH312139  16.713   0.305   5.286 -0.0031 -0.0701  0.1427
  816POPE   PO412140  16.803   0.469   5.752 -0.1226 -0.2960 -0.4774
  816POPE   GL112141  16.684   0.363   6.157 -0.0955  0.3907 -0.2679
  816POPE   GL212142  16.598   0.523   6.410  0.0186 -0.3071 -0.1673
  816POPE   C1A12143  16.633   0.122   6.622  0.3293 -0.0097  0.2085
  816POPE   D2A12144  16.367   0.175   6.984 -0.3483  0.1330  0.0050
  816POPE   C3A12145  16.488   0.002   7.439 -0.0747  0.3568 -0.2315
  816POPE   C4A12146  16.354  -0.250   7.807 -0.2634 -0.2802  0.0540
  816POPE   C1B12147  16.750   0.527   6.855  0.1701  0.0140  0.1262
  816POPE   C2B12148  16.777   0.360   7.230 -0.1713 -0.0280  0.2445
  816POPE   C3B12149  16.655   0.422   7.699 -0.2696 -0.1651 -0.1991
  816POPE   C4B12150  16.355   0.686   7.869 -0.0561  0.0218  0.0750
  817POPE   NH312151  17.483   7.924   5.984  0.0982  0.1518  0.0429
  817POPE   PO412152  17.745   7.592   5.855 -0.1823  0.2112  0.1436
  817POPE   GL112153  17.815   7.676   6.275  0.0745 -0.2125 -0.0693
  817POPE   GL212154  17.691   7.970   6.432 -0.1380 -0.0400  0.2111
  817POPE   C1A12155  17.796   7.380   6.576  0.0760  0.3029 -0.0497
  817POPE   D2A12156  17.819   7.172   6.995  0.1491  0.3422 -0.0023
  817POPE   C3A12157  17.701   7.216   7.373 -0.1406  0.0363  0.0095
  817POPE   C4A12158  18.025   7.348   7.662  0.1227  0.1278 -0.1687
  817POPE   C1B12159  17.793   7.835   6.891 -0.1289  0.1419  0.1634
  817POPE   C2B12160  17.826   7.704   7.331  0.1114 -0.0278  0.0893
  817POPE   C3B12161  17.615   7.760   7.714 -0.0788 -0.3327  0.0409
  817POPE   C4B12162  17.291   7.740   7.984  0.1621 -0.0206  0.0322
  818POPE   NH312163  14.261  17.837   5.693 -0.2787 -0.2735  0.0589
  818POPE   PO412164  14.698  17.672   5.652  0.0536  0.0007 -0.0582
  818POPE   GL112165  14.666  17.678   6.123 -0.0632  0.0529  0.0581
  818POPE   GL212166  14.920  17.528   6.334  0.1947  0.1208 -0.1254
  818POPE   C1A12167  14.286  17.482   6.457 -0.0374 -0.0860 -0.1810
  818POPE   D2A12168  14.181  17.527   6.872  0.2813 -0.2532  0.4312
  818POPE   C3A12169  14.107  17.223   7.142 -0.0475  0.1588  0.3032
  818POPE   C4A12170  13.756  17.194   7.503  0.0658  0.1908 -0.2171
  818POPE   C1B12171  14.817  17.593   6.782  0.2592 -0.0436  0.4480
  818POPE   C2B12172  14.862  17.555   7.224 -0.1109 -0.0389 -0.1468
  818POPE   C3B12173  14.871  17.472   7.661  0.0906  0.0592  0.0694
  818POPE   C4B12174  15.183  17.582   7.883  0.0850 -0.0316 -0.1264
  819POPE   NH312175  12.310   4.769   5.801  0.1690 -0.0796 -0.0475
  819POPE   PO412176  11.790   4.881   5.849  0.4194 -0.1473  0.0097
  819POPE   GL112177  11.707   5.073   6.176 -0.2517  0.1786 -0.3781
  819POPE   GL212178  11.514   4.939   6.253  0.3403  0.1916 -0.2899
  819POPE   C1A12179  11.501   5.500   6.455 -0.2255 -0.0025 -0.1025
  819POPE   D2A12180  11.233   5.556   6.842  0.1498  0.0403  0.0372
  819POPE   C3A12181  10.995   5.862   6.766  0.2032  0.2409 -0.1694
  819POPE   C4A12182  11.057   6.219   6.770  0.2615  0.2711  0.0604
  819POPE   C1B12183  11.237   5.113   6.576 -0.1916 -0.0232 -0.3354
  819POPE   C2B12184  10.925   4.943   6.916  0.0774 -0.0367  0.0627
  819POPE   C3B12185  10.825   5.130   7.215  0.2862 -0.1128 -0.0153
  819POPE   C4B12186  11.164   5.242   7.483 -0.2564  0.1167 -0.0623
  820POPE   NH312187  11.066   3.395   5.888 -0.0515 -0.2711  0.0747
  820POPE   PO412188  11.194   2.961   5.953  0.1078  0.1456  0.1367
  820POPE   GL112189  11.374   3.194   6.266 -0.3116  0.2962  0.0780
  820POPE   GL212190  11.203   3.347   6.383  0.0802 -0.2287  0.0358
  820POPE   C1A12191  11.533   3.081   6.667  0.1603  0.1187  0.0486
  820POPE   D2A12192  11.598   3.049   7.106  0.0531 -0.2522 -0.0118
  820POPE   C3A12193  11.392   3.308   7.480 -0.1539  0.2453 -0.1352
  820POPE   C4A12194  11.447   3.318   7.889 -0.0658  0.0359 -0.0040
  820POPE   C1B12195  11.181   3.592   6.756 -0.1237 -0.0307  0.3106
  820POPE   C2B12196  11.039   3.922   6.906 -0.1027  0.0640 -0.5544
  820POPE   C3B12197  11.222   4.364   6.851 -0.4550 -0.1254  0.1275
  820POPE   C4B12198  11.284   4.592   6.595 -0.2828  0.3068  0.1838
  821POPE   NH312199  17.307  14.703   6.067 -0.0042 -0.0905 -0.0121
  821POPE   PO412200  16.947  14.901   6.309 -0.1584 -0.1333 -0.0114
  821POPE   GL112201  16.791  15.145   6.642 -0.1021 -0.3096  0.4700
  821POPE   GL212202  16.862  15.027   6.948  0.6336  0.1490 -0.0702
  821POPE   C1A12203  16.628  15.477   6.946 -0.1502  0.0896  0.2666
  821POPE   D2A12204  16.758  15.780   7.307 -0.1507 -0.1403 -0.0938
  821POPE   C3A12205  16.696  15.665   7.734 -0.0937 -0.0144 -0.1166
  821POPE   C4A12206  16.339  15.636   7.934  0.0878  0.0330 -0.4769
  821POPE   C1B12207  17.020  15.350   7.276  0.0897  0.1736  0.0970
  821POPE   C2B12208  17.182  15.732   7.568  0.0400 -0.6930 -0.1189
  821POPE   C3B12209  17.498  15.937   7.721 -0.1498 -0.0613 -0.1122
  821POPE   C4B12210  17.730  16.342   7.550 -0.0464 -0.0704 -0.2510
  822POPE   NH312211   3.119   3.516   5.933  0.0665  0.2193 -0.2114
  822POPE   PO412212   3.196   3.050   5.923  0.1140  0.0115  0.1743
  822POPE   GL112213   3.122   3.046   6.307 -0.1779  0.0929  0.2174
  822POPE   GL212214   2.845   3.259   6.328 -0.0675 -0.1589  0.3065
  822POPE   C1A12215   3.001   2.695   6.586 -0.0434  0.6232  0.0054
  822POPE   D2A12216   3.084   2.525   6.971 -0.0024 -0.1326 -0.0768
  822POPE   C3A12217   3.339   2.707   7.253 -0.0071  0.0169 -0.0496
  822POPE   C4A12218   3.236   2.903   7.592  0.0193 -0.0441 -0.0599
  822POPE   C1B12219   3.111   3.373   6.668 -0.2149  0.1748 -0.1120
  822POPE   C2B12220   3.159   3.762   6.990 -0.1617  0.1822 -0.1641
  822POPE   C3B12221   3.061   3.744   7.421 -0.0510 -0.1079  0.0288
  822POPE   C4B12222   3.036   3.356   7.744  0.2010  0.4433  0.2990
  823POPE   NH312223  14.918  11.394   6.474  0.0533 -0.1412  0.1385
  823POPE   PO412224  15.319  11.488   6.629  0.0536 -0.0695 -0.1030
  823POPE   GL112225  15.155  11.879   6.753  0.1915  0.1458 -0.1460
  823POPE   GL212226  14.812  11.836   6.840 -0.0334 -0.0325  0.2147
  823POPE   C1A12227  15.309  12.161   7.110 -0.1375 -0.2705  0.0279
  823POPE   D2A12228  15.478  12.324   7.439 -0.1971 -0.1044 -0.2508
  823POPE   C3A12229  15.863  12.220   7.698 -0.1749  0.1497  0.3125
  823POPE   C4A12230  15.955  12.487   8.063 -0.0241  0.3416  0.0981
  823POPE   C1B12231  14.590  11.524   7.127 -0.1329 -0.0904  0.0735
  823POPE   C2B12232  14.690  11.337   7.351 -0.3035  0.0384  0.0076
  823POPE   C3B12233  14.605  11.303   7.817 -0.2016 -0.0299 -0.0754
  823POPE   C4B12234  14.332  10.959   8.055 -0.2756  0.1563 -0.0263
  824POPE   NH312235  15.463  13.843   6.370  0.2808  0.2036  0.0079
  824POPE   PO412236  15.161  14.110   6.245  0.0022  0.4712 -0.1809
  824POPE   GL112237  15.336  14.315   6.564  0.0426 -0.1420 -0.2625
  824POPE   GL212238  15.676  14.147   6.647  0.0999 -0.0953 -0.0542
  824POPE   C1A12239  15.328  14.756   6.781  0.0800  0.3252 -0.1456
  824POPE   D2A12240  15.429  14.812   7.219  0.2169 -0.1543 -0.0703
  824POPE   C3A12241  15.119  14.963   7.484 -0.0289 -0.5054 -0.1402
  824POPE   C4A12242  14.785  14.865   7.762 -0.2126  0.0801  0.0157
  824POPE   C1B12243  15.524  14.311   7.027  0.1141 -0.1100  0.2654
  824POPE   C2B12244  15.572  14.325   7.458 -0.0518 -0.0928 -0.1368
  824POPE   C3B12245  15.463  14.151   7.880 -0.1144 -0.3681  0.3354
  824POPE   C4B12246  15.389  14.307   8.321 -0.0640 -0.2186 -0.0534
  825POPE   NH312247  13.192  14.601   6.181 -0.1145 -0.1523 -0.1788
  825POPE   PO412248  12.792  14.737   6.212  0.0916 -0.3567 -0.0458
  825POPE   GL112249  12.740  14.785   6.617  0.0489 -0.1577  0.0064
  825POPE   GL212250  12.661  15.034   6.752 -0.0758 -0.0208  0.3997
  825POPE   C1A12251  12.676  14.406   6.926  0.1615 -0.1602 -0.1531
  825POPE   D2A12252  12.917  13.959   6.935 -0.3986 -0.0500 -0.1068
  825POPE   C3A12253  13.269  14.007   7.102 -0.1579  0.0831  0.5021
  825POPE   C4A12254  13.675  13.929   7.280  0.0117  0.0592  0.1074
  825POPE   C1B12255  12.415  14.951   7.199  0.1061  0.0991 -0.1953
  825POPE   C2B12256  12.322  14.846   7.653  0.1605  0.0160 -0.0115
  825POPE   C3B12257  12.046  15.050   8.026 -0.3346  0.0213  0.0544
  825POPE   C4B12258  12.043  15.388   8.286  0.0473 -0.0675 -0.1111
  826POPE   NH312259  12.785   4.689   5.868 -0.0102 -0.1180 -0.0961
  826POPE   PO412260  13.027   4.299   5.849 -0.0291  0.1380 -0.0462
  826POPE   GL112261  13.272   4.252   6.240 -0.3318 -0.0489 -0.2377
  826POPE   GL212262  12.919   4.320   6.339 -0.0623 -0.1079 -0.0716
  826POPE   C1A12263  13.217   4.114   6.681  0.3436  0.2756  0.0153
  826POPE   D2A12264  13.078   4.115   7.100  0.0243 -0.2761 -0.2375
  826POPE   C3A12265  13.176   3.915   7.362 -0.4737 -0.0508  0.1329
  826POPE   C4A12266  13.445   3.996   7.710  0.4201  0.0355 -0.3324
  826POPE   C1B12267  12.719   4.730   6.497 -0.2918  0.1394 -0.1899
  826POPE   C2B12268  12.461   4.833   6.870 -0.1942  0.1329  0.3821
  826POPE   C3B12269  12.189   4.732   7.168  0.1225  0.0179  0.2294
  826POPE   C4B12270  11.950   4.943   7.393  0.1082 -0.0182 -0.1522
  827POPE   NH312271   9.982   1.847   5.733  0.3313 -0.0213 -0.5122
  827POPE   PO412272   9.501   1.881   5.656  0.1616  0.4210 -0.1554
  827POPE   GL112273   9.679   2.147   5.989  0.0812 -0.4318 -0.1342
  827POPE   GL212274   9.829   2.030   6.261  0.0642  0.4085  0.3998
  827POPE   C1A12275   9.407   2.305   6.377 -0.0401 -0.0319 -0.1702
  827POPE   D2A12276   9.383   2.429   6.885 -0.0627  0.3840 -0.1139
  827POPE   C3A12277   9.691   2.462   7.138 -0.2331  0.0767  0.0177
  827POPE   C4A12278   9.768   2.907   7.359 -0.1062 -0.1356 -0.2040
  827POPE   C1B12279  10.079   2.099   6.635  0.1157 -0.0254 -0.0744
  827POPE   C2B12280  10.141   2.155   7.003 -0.4657  0.0182 -0.0229
  827POPE   C3B12281  10.517   1.971   7.269 -0.1272  0.2991 -0.1527
  827POPE   C4B12282  10.779   1.750   7.542 -0.1049  0.0993  0.3970
  828POPE   NH312283  15.434  17.387   6.114 -0.1608 -0.0494  0.1704
  828POPE   PO412284  15.953  17.333   5.979  0.1148 -0.1885 -0.1395
  828POPE   GL112285  16.076  17.040   6.278 -0.1286  0.1500  0.1418
  828POPE   GL212286  16.304  16.840   6.188  0.3273 -0.0305 -0.2585
  828POPE   C1A12287  16.036  16.594   6.557 -0.0756  0.1352  0.0346
  828POPE   D2A12288  16.355  16.405   6.791 -0.0745 -0.0366  0.2721
  828POPE   C3A12289  16.116  16.031   7.026 -0.1415  0.1572  0.0905
  828POPE   C4A12290  16.297  15.905   7.460 -0.1275 -0.2285  0.1357
  828POPE   C1B12291  16.725  16.466   6.260  0.2821 -0.1522  0.3335
  828POPE   C2B12292  16.818  16.285   6.541 -0.3720 -0.0060  0.0262
  828POPE   C3B12293  16.822  16.167   6.951  0.1716 -0.1053 -0.4060
  828POPE   C4B12294  17.111  16.223   7.320  0.1660  0.0752  0.3712
  829POPE   NH312295   9.089   0.099   5.836 -0.0144  0.0892  0.1154
  829POPE   PO412296   9.316  -0.152   5.999 -0.0285 -0.1410  0.3632
  829POPE   GL112297   9.290  -0.387   6.430  0.0974  0.5234 -0.2854
  829POPE   GL212298   9.202  -0.718   6.437 -0.2197 -0.0319  0.1186
  829POPE   C1A12299   9.253  -0.371   6.913  0.0327  0.4121  0.1764
  829POPE   D2A12300   9.069  -0.231   7.224 -0.2102  0.3651  0.1698
  829POPE   C3A12301   9.353  -0.230   7.537  0.2777  0.1557 -0.0595
  829POPE   C4A12302   9.722  -0.390   7.941  0.2761  0.4369 -0.1165
  829POPE   C1B12303   9.463  -0.836   6.769  0.4744 -0.2013 -0.0833
  829POPE   C2B12304   9.428  -0.693   7.268 -0.0760  0.0051 -0.1213
  829POPE   C3B12305   9.017  -0.628   7.482 -0.2693  0.0474  0.0707
  829POPE   C4B12306   8.491  -0.740   7.626  0.0402 -0.3828 -0.1553
  830POPE   NH312307  16.496   0.820   5.999 -0.1353 -0.1591 -0.1593
  830POPE   PO412308  16.131   0.594   5.963 -0.1544  0.2301  0.1607
  830POPE   GL112309  16.062   0.775   6.247 -0.1306 -0.1563  0.1500
  830POPE   GL212310  16.271   0.887   6.468 -0.0811 -0.0615  0.1913
  830POPE   C1A12311  15.816   0.673   6.594 -0.2457 -0.2721  0.0013
  830POPE   D2A12312  15.722   0.866   7.041  0.0752  0.2218 -0.0781
  830POPE   C3A12313  15.455   1.045   7.344  0.0507  0.0927  0.2200
  830POPE   C4A12314  15.411   1.418   7.517 -0.1398 -0.3863 -0.1657
  830POPE   C1B12315  16.224   0.648   6.851  0.0735  0.0070 -0.1968
  830POPE   C2B12316  16.237   0.556   7.307 -0.1419 -0.0900  0.1900
  830POPE   C3B12317  16.168   0.277   7.632  0.2172 -0.0147  0.0118
  830POPE   C4B12318  15.748   0.078   7.808 -0.2862  0.1705  0.0143
  831YOPE   NH312319  16.959  18.224   5.914 -0.2005  0.2527  0.0799
  831YOPE   PO412320  17.265  18.012   5.835 -0.2541  0.0478 -0.1048
  831YOPE   GL112321  17.147  17.736   6.336  0.2909  0.0013 -0.0570
  831YOPE   GL212322  17.443  17.637   6.383  0.1005 -0.0821  0.0994
  831YOPE   C1A12323  17.193  17.543   6.813 -0.2637 -0.0229  0.3786
  831YOPE   D2A12324  16.975  17.607   7.195 -0.0892  0.3383 -0.1108
  831YOPE   C3A12325  17.119  17.514   7.524 -0.2943  0.0230 -0.1180
  831YOPE   C4A12326  17.116  17.531   8.011 -0.2411  0.1635 -0.0956
  831YOPE   C1B12327  17.484  17.940   6.623 -0.3978 -0.2816  0.1555
  831YOPE   C2B12328  17.327  17.983   6.996 -0.0548 -0.4895 -0.0863
  831YOPE   D3B12329  17.326  17.955   7.421  0.0937 -0.2851 -0.0993
  831YOPE   C4B12330  17.407  17.889   7.901  0.0231 -0.1722  0.2305
  832YOPE   NH312331  18.014  17.795   5.511 -0.2466 -0.1120 -0.0652
  832YOPE   PO412332  18.225  17.412   5.819 -0.1542  0.3753 -0.0159
  832YOPE   GL112333  18.274  17.810   6.112  0.1097 -0.0382  0.1963
  832YOPE   GL212334  18.677  17.999   6.121  0.1173 -0.1171  0.1857
  832YOPE   C1A12335  18.228  18.157   6.263  0.0388  0.0717  0.0525
  832YOPE   D2A12336  18.246  18.561   6.478  0.0096 -0.3324 -0.1700
  832YOPE   C3A12337  18.422  18.456   6.843 -0.0063 -0.1913  0.0627
  832YOPE   C4A12338  18.799  18.273   6.976  0.1688  0.0608  0.0977
  832YOPE   C1B12339  18.707  18.229   6.489  0.0757  0.0520  0.1371
  832YOPE   C2B12340  18.800  18.610   6.592 -0.0171 -0.2011 -0.1259
  832YOPE   D3B12341  19.099  18.685   6.412  0.1174 -0.2409 -0.2073
  832YOPE   C4B12342  19.561  18.534   6.469 -0.2644  0.4985  0.0081
  833YOPE   NH312343   4.301  16.866   5.612  0.2206  0.0207  0.0233
  833YOPE   PO412344   4.634  16.624   5.905 -0.2521  0.1991  0.0410
  833YOPE   GL112345   4.293  16.807   6.199 -0.1539 -0.2867 -0.2009
  833YOPE   GL212346   4.189  17.146   6.388 -0.3508  0.0449 -0.0101
  833YOPE   C1A12347   4.272  16.696   6.639 -0.3103  0.3148  0.0263
  833YOPE   D2A12348   4.183  16.983   6.959 -0.0168  0.1727 -0.2212
  833YOPE   C3A12349   4.114  17.071   7.400  0.0524  0.2299 -0.2214
  833YOPE   C4A12350   3.914  16.916   7.793 -0.3514 -0.2054  0.2421
  833YOPE   C1B12351   4.516  17.330   6.692  0.2506 -0.1374  0.0156
  833YOPE   C2B12352   4.931  17.480   6.840  0.0345 -0.0072 -0.2075
  833YOPE   D3B12353   5.113  17.685   6.478 -0.4396 -0.3215  0.0701
  833YOPE   C4B12354   5.004  18.149   6.394  0.3668  0.0520 -0.1599
  834YOPE   NH312355  14.853   9.903   6.412  0.2144  0.0828 -0.4046
  834YOPE   PO412356  14.988   9.532   6.479  0.1123 -0.0910  0.3038
  834YOPE   GL112357  15.113   9.268   6.884  0.1557  0.1855  0.1724
  834YOPE   GL212358  15.243   8.968   6.731 -0.0784  0.0384  0.0016
  834YOPE   C1A12359  15.129   9.242   7.357 -0.0338 -0.1158 -0.2033
  834YOPE   D2A12360  15.343   9.525   7.577  0.0649  0.0612  0.1440
  834YOPE   C3A12361  15.514   9.419   7.963 -0.3959  0.1282 -0.1245
  834YOPE   C4A12362  15.666   9.560   8.255 -0.0460 -0.2050  0.0285
  834YOPE   C1B12363  15.461   8.910   7.170  0.0714  0.3492 -0.6915
  834YOPE   C2B12364  15.534   8.883   7.606 -0.0727 -0.0049  0.3025
  834YOPE   D3B12365  15.301   8.827   7.913  0.2341  0.1678  0.1176
  834YOPE   C4B12366  15.026   8.925   8.264 -0.0107 -0.3684  0.0136
  835YOPE   NH312367   1.098   4.897   5.776  0.0672 -0.3072 -0.2886
  835YOPE   PO412368   0.706   5.153   5.768  0.0163  0.1780 -0.0211
  835YOPE   GL112369   0.743   5.421   6.163  0.1933  0.1713 -0.0297
  835YOPE   GL212370   0.837   5.725   6.061  0.0221 -0.4199 -0.0720
  835YOPE   C1A12371   1.023   5.326   6.420  0.1601 -0.0990  0.1367
  835YOPE   D2A12372   1.068   5.624   6.680  0.0805  0.2395  0.1761
  835YOPE   C3A12373   1.023   5.391   6.990  0.2409  0.2391 -0.6104
  835YOPE   C4A12374   0.881   5.489   7.410  0.0147 -0.0652  0.0328
  835YOPE   C1B12375   0.512   5.837   6.480  0.2200  0.0469  0.1233
  835YOPE   C2B12376   0.685   5.850   6.894  0.4612 -0.1577  0.1494
  835YOPE   D3B12377   0.634   5.935   7.401  0.0800 -0.2354 -0.0766
  835YOPE   C4B12378   0.346   5.934   7.822  0.0129  0.0487 -0.0631
  836YOPE   NH312379   1.862   6.610   5.743 -0.2286 -0.3225  0.4274
  836YOPE   PO412380   2.249   6.703   5.852  0.0406  0.3474 -0.1034
  836YOPE   GL112381   2.250   6.486   6.150  0.0840 -0.2094 -0.3829
  836YOPE   GL212382   2.596   6.354   6.127  0.1428  0.0926 -0.1861
  836YOPE   C1A12383   1.974   6.461   6.499 -0.0078 -0.0706  0.1804
  836YOPE   D2A12384   1.616   6.365   6.776 -0.0037  0.0191 -0.1438
  836YOPE   C3A12385   1.632   6.081   7.148  0.0760 -0.3250  0.2650
  836YOPE   C4A12386   1.632   5.910   7.485  0.0579 -0.1101  0.0555
  836YOPE   C1B12387   2.729   5.999   6.407 -0.4274 -0.1757 -0.0712
  836YOPE   C2B12388   3.022   5.826   6.714  0.1223 -0.0264  0.0998
  836YOPE   D3B12389   3.021   5.759   7.137 -0.1146 -0.0972 -0.2629
  836YOPE   C4B12390   3.006   5.398   7.438  0.2356 -0.3286  0.4185
  837YOPE   NH312391  17.251   2.152   5.849 -0.2713  0.1205 -0.0913
  837YOPE   PO412392  17.104   2.573   6.024 -0.2571 -0.0134 -0.0061
  837YOPE   GL112393  17.096   2.754   6.449 -0.1810  0.3339 -0.2392
  837YOPE   GL212394  17.312   3.065   6.440 -0.3079 -0.0459 -0.1707
  837YOPE   C1A12395  17.052   2.700   6.831  0.1348 -0.0129  0.1657
  837YOPE   D2A12396  17.185   2.718   7.177  0.1538 -0.0875  0.0611
  837YOPE   C3A12397  17.221   2.491   7.410 -0.2067 -0.0325 -0.3817
  837YOPE   C4A12398  17.364   2.400   7.780 -0.1968 -0.0300 -0.1553
  837YOPE   C1B12399  17.510   2.883   6.842 -0.1328  0.0160  0.0172
  837YOPE   C2B12400  17.668   2.541   6.989 -0.2869  0.0615  0.1172
  837YOPE   D3B12401  17.794   2.283   7.425 -0.0201  0.1798 -0.3638
  837YOPE   C4B12402  18.137   1.924   7.532  0.0428  0.2520 -0.1198
  838YOPE   NH312403  14.981  14.556   5.916  0.3720  0.3027 -0.1232
  838YOPE   PO412404  15.340  14.595   6.053 -0.1711  0.0166 -0.4243
  838YOPE   GL112405  15.662  14.739   6.394  0.1161  0.1935 -0.0668
  838YOPE   GL212406  15.697  15.156   6.476 -0.2910  0.0552  0.0416
  838YOPE   C1A12407  15.867  14.666   6.827 -0.0466 -0.2363 -0.0102
  838YOPE   D2A12408  15.906  14.613   7.247 -0.1932  0.1180 -0.1466
  838YOPE   C3A12409  16.007  14.974   7.397 -0.4518  0.1227  0.0979
  838YOPE   C4A12410  16.116  15.192   7.768 -0.3726 -0.0953 -0.0892
  838YOPE   C1B12411  15.851  15.127   6.926 -0.0063 -0.1761  0.2641
  838YOPE   C2B12412  15.816  15.448   7.315  0.0659  0.0583 -0.2001
  838YOPE   D3B12413  15.869  15.684   7.687  0.0657  0.2012  0.2934
  838YOPE   C4B12414  15.613  15.931   7.999 -0.1558  0.3991  0.0479
  839YOPE   NH312415   3.821  14.585   6.257  0.1999  0.0761  0.1061
  839YOPE   PO412416   4.171  14.581   5.982 -0.1829 -0.1544 -0.0281
  839YOPE   GL112417   4.250  14.604   6.453  0.0554 -0.0122 -0.4046
  839YOPE   GL212418   4.525  14.900   6.400 -0.1718 -0.0224  0.0548
  839YOPE   C1A12419   4.045  14.787   6.858  0.1942 -0.0719 -0.3840
  839YOPE   D2A12420   4.024  14.919   7.291 -0.0303 -0.0982 -0.0167
  839YOPE   C3A12421   4.152  14.639   7.549  0.2012 -0.0611 -0.1755
  839YOPE   C4A12422   4.423  14.702   7.887 -0.1417 -0.2496  0.1806
  839YOPE   C1B12423   4.481  14.947   6.787  0.1622 -0.1275 -0.3700
  839YOPE   C2B12424   4.534  14.945   7.171 -0.0139 -0.1362  0.0465
  839YOPE   D3B12425   4.820  14.912   7.545 -0.0449 -0.2267  0.1029
  839YOPE   C4B12426   4.983  14.769   7.968  0.2194 -0.0461  0.0340
  840YOPE   NH312427  18.233   7.585   6.057  0.2636 -0.1865 -0.2940
  840YOPE   PO412428  18.537   7.877   6.097  0.1045  0.0291  0.1172
  840YOPE   GL112429  18.474   7.720   6.486 -0.0539 -0.2185  0.0275
  840YOPE   GL212430  18.197   7.620   6.589  0.2051 -0.0771  0.0335
  840YOPE   C1A12431  18.641   7.521   6.958 -0.2484 -0.1628  0.4632
  840YOPE   D2A12432  18.772   7.338   7.362 -0.4989  0.1315 -0.1164
  840YOPE   C3A12433  18.831   7.320   7.811 -0.0301 -0.1089 -0.1176
  840YOPE   C4A12434  19.093   7.252   8.201  0.0696 -0.3710  0.2219
  840YOPE   C1B12435  18.212   7.619   7.073  0.4214  0.0308 -0.3261
  840YOPE   C2B12436  18.422   7.660   7.446 -0.0792 -0.0254 -0.0908
  840YOPE   D3B12437  18.392   7.634   7.884 -0.0622  0.0282  0.2597
  840YOPE   C4B12438  18.376   7.379   8.234 -0.0523  0.0602 -0.0175
  841YOPE   NH312439   5.898   2.389   6.072 -0.0606  0.4136 -0.0183
  841YOPE   PO412440   6.152   1.964   5.924 -0.0743 -0.0679  0.0865
  841YOPE   GL112441   6.302   2.085   6.310 -0.2633 -0.2387  0.4624
  841YOPE   GL212442   6.340   1.823   6.499  0.1276  0.0402  0.1784
  841YOPE   C1A12443   6.481   2.314   6.634  0.1270 -0.1203  0.4028
  841YOPE   D2A12444   6.606   2.342   7.060  0.3368  0.3693  0.1198
  841YOPE   C3A12445   6.838   2.044   7.159  0.1282 -0.1129 -0.1207
  841YOPE   C4A12446   7.096   2.027   7.487  0.0021 -0.1246 -0.2140
  841YOPE   C1B12447   6.431   1.898   6.891 -0.0109 -0.6496 -0.0133
  841YOPE   C2B12448   6.358   2.013   7.313  0.0610 -0.0006  0.3856
  841YOPE   D3B12449   6.096   1.841   7.568 -0.2072 -0.1455 -0.4431
  841YOPE   C4B12450   5.816   1.567   7.579  0.1554 -0.0727 -0.2550
  842YOPE   NH312451   0.499  17.376   5.902  0.1071  0.1975 -0.1045
  842YOPE   PO412452   0.349  16.967   5.978 -0.1592 -0.0958 -0.0235
  842YOPE   GL112453   0.582  17.047   6.340  0.0422 -0.4120 -0.1805
  842YOPE   GL212454   0.834  16.808   6.344 -0.0870 -0.0144  0.0041
  842YOPE   C1A12455   0.739  17.259   6.575 -0.2511 -0.1365  0.1640
  842YOPE   D2A12456   0.851  17.465   6.993 -0.1533 -0.1686  0.5135
  842YOPE   C3A12457   0.554  17.808   7.115  0.0703 -0.1124 -0.1102
  842YOPE   C4A12458   0.339  17.940   7.492  0.0182 -0.1548  0.2633
  842YOPE   C1B12459   0.897  16.785   6.727 -0.0968  0.1229  0.0732
  842YOPE   C2B12460   0.987  16.911   7.132 -0.0250 -0.1176 -0.0856
  842YOPE   D3B12461   1.127  17.243   7.480 -0.0300 -0.0446  0.0243
  842YOPE   C4B12462   0.977  17.620   7.585  0.1752 -0.1576  0.4951
  843YOPE   NH312463   3.933   9.937   5.895  0.0604 -0.0740 -0.2280
  843YOPE   PO412464   3.521   9.686   5.997 -0.0854  0.1832 -0.0855
  843YOPE   GL112465   3.548   9.865   6.428 -0.2369 -0.2047  0.5084
  843YOPE   GL212466   3.919   9.959   6.415 -0.0644 -0.0443 -0.1255
  843YOPE   C1A12467   3.415   9.874   6.832  0.0280 -0.2199 -0.0425
  843YOPE   D2A12468   3.145   9.687   7.160  0.2240  0.3735 -0.4994
  843YOPE   C3A12469   3.209   9.274   7.387  0.0951  0.2382 -0.0614
  843YOPE   C4A12470   3.248   9.412   7.828  0.3378 -0.2429  0.4657
  843YOPE   C1B12471   3.948  10.004   6.775 -0.0228 -0.1407  0.4159
  843YOPE   C2B12472   3.763   9.993   7.192 -0.3455  0.1343 -0.1997
  843YOPE   D3B12473   3.504   9.834   7.602 -0.1359  0.0014 -0.0136
  843YOPE   C4B12474   3.060   9.812   7.642  0.2645  0.3090  0.1710
  844YOPE   NH312475   8.457  18.014   5.483  0.0336 -0.2709 -0.0340
  844YOPE   PO412476   8.755  17.984   5.877 -0.1128 -0.0306 -0.1581
  844YOPE   GL112477   8.850  18.076   6.286 -0.0582  0.1539 -0.3247
  844YOPE   GL212478   8.599  18.441   6.308 -0.1418 -0.0979 -0.1585
  844YOPE   C1A12479   8.849  18.146   6.764 -0.0716 -0.0545 -0.0260
  844YOPE   D2A12480   8.483  18.040   7.025  0.0550  0.3420 -0.1516
  844YOPE   C3A12481   8.605  17.982   7.466 -0.0606  0.0543 -0.2047
  844YOPE   C4A12482   8.960  18.053   7.860 -0.1488 -0.0262 -0.1062
  844YOPE   C1B12483   8.344  18.535   6.669 -0.1157 -0.0984  0.1181
  844YOPE   C2B12484   8.225  18.573   7.101 -0.1443  0.0187 -0.0239
  844YOPE   D3B12485   7.894  18.687   7.434 -0.0892  0.2441  0.0081
  844YOPE   C4B12486   7.432  18.731   7.613 -0.1691 -0.1918 -0.3075
  845YOPE   NH312487  11.181   9.436   5.852 -0.0676  0.0198 -0.0252
  845YOPE   PO412488  10.812   9.178   5.904 -0.1499 -0.1460  0.1829
  845YOPE   GL112489  10.862   9.412   6.302 -0.0478  0.2637  0.2811
  845YOPE   GL212490  11.115   9.349   6.374  0.5146  0.2741 -0.0181
  845YOPE   C1A12491  10.696   9.653   6.718  0.1232 -0.1836  0.0629
  845YOPE   D2A12492  10.728   9.669   7.262  0.2187 -0.1159  0.3669
  845YOPE   C3A12493  10.389   9.645   7.443  0.2351  0.2192  0.1098
  845YOPE   C4A12494  10.320   9.778   7.891 -0.1635  0.1959 -0.1610
  845YOPE   C1B12495  11.221   9.043   6.733  0.0410 -0.3517 -0.1133
  845YOPE   C2B12496  11.101   8.946   7.149  0.1131  0.4216 -0.0626
  845YOPE   D3B12497  10.713   9.086   7.424 -0.0155 -0.1323  0.0260
  845YOPE   C4B12498  10.280   9.068   7.535  0.2344  0.1920 -0.0955
  846YOPE   NH312499  15.358   0.009   5.890  0.2718  0.1779 -0.3431
  846YOPE   PO412500  14.967   0.284   5.997  0.3873  0.0952 -0.2758
  846YOPE   GL112501  14.756   0.359   6.375 -0.1580 -0.1496  0.1651
  846YOPE   GL212502  14.810   0.721   6.481 -0.1999  0.2494 -0.4326
  846YOPE   C1A12503  14.695   0.236   6.787  0.1160  0.0045 -0.3320
  846YOPE   D2A12504  14.929   0.252   7.201 -0.1226  0.0979  0.2688
  846YOPE   C3A12505  14.734   0.329   7.498 -0.1464  0.0611  0.2672
  846YOPE   C4A12506  14.773   0.225   7.852 -0.2561  0.0173  0.1263
  846YOPE   C1B12507  14.506   0.854   6.848 -0.0394 -0.0725  0.1609
  846YOPE   C2B12508  14.124   0.992   7.101  0.0764  0.0461 -0.0166
  846YOPE   D3B12509  13.865   1.121   7.390 -0.0881  0.1270 -0.0307
  846YOPE   C4B12510  13.864   1.198   7.811 -0.0670 -0.1502 -0.0954
  847YOPE   NH312511  15.189  15.635   5.755  0.1808  0.1396 -0.0617
  847YOPE   PO412512  14.907  15.781   6.060  0.1359 -0.0014  0.2243
  847YOPE   GL112513  14.597  15.770   6.446  0.1173  0.4305 -0.0843
  847YOPE   GL212514  14.270  15.709   6.358  0.2980  0.1130  0.1688
  847YOPE   C1A12515  14.359  15.886   6.847 -0.1152  0.1673 -0.2418
  847YOPE   D2A12516  14.212  15.770   7.249 -0.0403  0.1036 -0.0906
  847YOPE   C3A12517  14.427  15.695   7.585 -0.2851  0.2134 -0.2310
  847YOPE   C4A12518  14.554  15.663   8.033 -0.3312  0.1666 -0.1857
  847YOPE   C1B12519  14.090  15.433   6.758 -0.1252 -0.0472 -0.0615
  847YOPE   C2B12520  14.287  15.286   7.195  0.0763  0.2763 -0.0731
  847YOPE   D3B12521  14.282  15.222   7.614  0.0861 -0.0545  0.1770
  847YOPE   C4B12522  14.459  15.132   7.979 -0.1416 -0.0715  0.2012
  848YOPE   NH312523   2.886  11.941   6.034 -0.2371  0.1167  0.0062
  848YOPE   PO412524   2.479  12.047   5.922 -0.2046 -0.2727  0.1198
  848YOPE   GL112525   2.506  12.023   6.357 -0.0266 -0.1748 -0.1781
  848YOPE   GL212526   2.328  12.215   6.522 -0.1914 -0.0546 -0.6654
  848YOPE   C1A12527   2.696  11.986   6.812 -0.0144 -0.1255  0.1221
  848YOPE   D2A12528   2.517  11.773   7.178 -0.1980 -0.1971  0.2549
  848YOPE   C3A12529   2.525  11.916   7.582  0.3173 -0.0008 -0.4295
  848YOPE   C4A12530   2.510  11.924   8.030  0.2382  0.1484  0.1195
  848YOPE   C1B12531   2.186  12.125   6.942 -0.1385 -0.1654  0.0967
  848YOPE   C2B12532   2.170  12.318   7.352  0.1504  0.1474 -0.0354
  848YOPE   D3B12533   2.089  12.307   7.813  0.1231  0.0844  0.0538
  848YOPE   C4B12534   2.126  12.182   8.237 -0.0486  0.0318  0.0950
  849YOPE   NH312535  13.670  13.206   5.914  0.1173 -0.0631 -0.1397
  849YOPE   PO412536  13.597  13.046   6.294  0.1501 -0.2866  0.0783
  849YOPE   GL112537  13.588  13.075   6.719  0.3617  0.1869  0.0640
  849YOPE   GL212538  13.683  12.702   6.806  0.1029  0.0587 -0.0741
  849YOPE   C1A12539  13.492  13.070   7.144 -0.0077  0.0674  0.1541
  849YOPE   D2A12540  13.631  13.170   7.604  0.0791  0.2553 -0.2402
  849YOPE   C3A12541  13.572  12.893   8.046 -0.0105  0.2257 -0.2069
  849YOPE   C4A12542  13.607  13.026   8.424  0.0705 -0.1343  0.3223
  849YOPE   C1B12543  13.820  12.365   7.003  0.2120 -0.1703  0.1238
  849YOPE   C2B12544  13.619  12.287   7.332 -0.1613  0.2265 -0.0257
  849YOPE   D3B12545  13.154  12.215   7.542 -0.1201  0.0991  0.1070
  849YOPE   C4B12546  13.072  11.979   7.909 -0.0302  0.1939 -0.0729
  850YOPE   NH312547   4.442  13.391   5.974 -0.0389  0.2466 -0.1259
  850YOPE   PO412548   4.593  13.039   5.937 -0.0583  0.0537 -0.4415
  850YOPE   GL112549   4.589  13.052   6.387 -0.0750  0.4872 -0.0786
  850YOPE   GL212550   4.580  13.324   6.636  0.0143  0.3877  0.0582
  850YOPE   C1A12551   4.890  12.939   6.772 -0.1716 -0.0042  0.0758
  850YOPE   D2A12552   5.072  13.050   7.220  0.1525  0.0618  0.2143
  850YOPE   C3A12553   5.430  13.212   7.311  0.0123 -0.2375  0.3832
  850YOPE   C4A12554   5.826  13.204   7.224 -0.0875  0.0376 -0.0837
  850YOPE   C1B12555   4.546  13.386   7.103  0.1072  0.0043  0.1017
  850YOPE   C2B12556   4.578  13.344   7.568 -0.1154 -0.0812  0.1711
  850YOPE   D3B12557   4.360  13.405   7.889 -0.0102  0.3459 -0.1761
  850YOPE   C4B12558   4.343  13.173   8.215 -0.1384  0.1022 -0.1280
  851YOPE   NH312559  10.359  16.582   5.636 -0.0093 -0.0464 -0.1359
  851YOPE   PO412560  10.138  16.692   5.872 -0.2370 -0.1500 -0.2772
  851YOPE   GL112561  10.153  16.755   6.227 -0.2661 -0.2527  0.0856
  851YOPE   GL212562   9.897  16.603   6.348  0.0257 -0.0841  0.1190
  851YOPE   C1A12563  10.176  16.894   6.629  0.1431 -0.1273 -0.1554
  851YOPE   D2A12564  10.198  16.919   7.075 -0.2219 -0.0553  0.0919
  851YOPE   C3A12565  10.316  17.105   7.406 -0.1703 -0.1353 -0.0082
  851YOPE   C4A12566  10.421  16.970   7.837  0.2741 -0.3601 -0.2611
  851YOPE   C1B12567   9.936  16.457   6.743  0.1855  0.0985 -0.1194
  851YOPE   C2B12568  10.044  16.479   7.125  0.3339  0.3208 -0.0483
  851YOPE   D3B12569  10.047  16.214   7.421 -0.0010  0.0790  0.0389
  851YOPE   C4B12570  10.064  16.146   7.845 -0.0740  0.0617 -0.2771
  852YOPE   NH312571   5.840  10.699   6.128  0.3589  0.1673  0.0276
  852YOPE   PO412572   5.766  11.043   5.950 -0.0124  0.2941  0.1964
  852YOPE   GL112573   5.498  11.077   6.264 -0.1536 -0.1937 -0.0325
  852YOPE   GL212574   5.516  10.865   6.438 -0.0583  0.0994  0.0853
  852YOPE   C1A12575   5.574  11.315   6.646  0.1683 -0.0889  0.1706
  852YOPE   D2A12576   5.500  11.504   6.957  0.1037  0.0788 -0.0024
  852YOPE   C3A12577   5.623  11.844   7.047  0.0800  0.0007 -0.2767
  852YOPE   C4A12578   5.463  12.271   7.006  0.4852  0.0245  0.0066
  852YOPE   C1B12579   5.339  10.959   6.922  0.0076 -0.1223 -0.1101
  852YOPE   C2B12580   5.306  11.135   7.300 -0.3063 -0.0368 -0.3328
  852YOPE   D3B12581   5.441  11.478   7.446 -0.2238 -0.3165 -0.1072
  852YOPE   C4B12582   5.363  11.852   7.434  0.1598  0.1920  0.0164
  853YOPE   NH312583   0.241  10.200   6.434  0.0429  0.1406  0.0376
  853YOPE   PO412584  -0.176  10.268   6.281  0.3364 -0.1380  0.3361
  853YOPE   GL112585  -0.157  10.428   6.697 -0.0081  0.0304 -0.1107
  853YOPE   GL212586  -0.446  10.567   6.885 -0.2068 -0.1714 -0.1745
  853YOPE   C1A12587   0.058  10.665   6.881  0.2098 -0.2779 -0.0705
  853YOPE   D2A12588   0.455  10.866   6.939 -0.2812 -0.1424  0.1469
  853YOPE   C3A12589   0.525  11.196   7.222  0.0671 -0.2259 -0.1307
  853YOPE   C4A12590   0.531  11.435   7.550  0.2231  0.0964 -0.2246
  853YOPE   C1B12591  -0.667  10.780   7.263 -0.1666 -0.0783  0.3805
  853YOPE   C2B12592  -0.832  10.409   7.615  0.3584  0.1529  0.0363
  853YOPE   D3B12593  -0.999  10.494   8.054  0.2469 -0.2120  0.1357
  853YOPE   C4B12594  -0.955  10.450   8.569  0.0716 -0.1451  0.0243
  854YOPE   NH312595   2.593   4.050   5.759 -0.0470  0.0198 -0.0717
  854YOPE   PO412596   3.074   3.901   5.667  0.0296  0.1590 -0.3439
  854YOPE   GL112597   3.090   3.980   6.117  0.3593  0.2144  0.1891
  854YOPE   GL212598   3.014   3.782   6.395 -0.2328 -0.1011  0.0727
  854YOPE   C1A12599   3.129   4.305   6.388 -0.2417 -0.0899  0.0220
  854YOPE   D2A12600   3.152   4.288   6.784 -0.3077  0.1184  0.2616
  854YOPE   C3A12601   3.209   4.697   6.957 -0.0972 -0.1162 -0.1854
  854YOPE   C4A12602   3.541   4.984   7.094  0.1947 -0.2518  0.0367
  854YOPE   C1B12603   3.408   3.862   6.553 -0.0089 -0.1759 -0.3972
  854YOPE   C2B12604   3.772   4.011   6.794 -0.2054  0.3427 -0.0460
  854YOPE   D3B12605   3.919   4.098   7.247 -0.2548 -0.1015  0.1929
  854YOPE   C4B12606   4.300   4.215   7.504 -0.2608 -0.1524  0.1324
  855YOPE   NH312607   3.155   2.557   5.883  0.0757  0.0680  0.0422
  855YOPE   PO412608   3.673   2.429   5.823  0.0578 -0.1672 -0.1275
  855YOPE   GL112609   3.683   2.154   6.189 -0.2532 -0.0275 -0.0687
  855YOPE   GL212610   3.907   2.086   6.472 -0.1788  0.0082  0.1568
  855YOPE   C1A12611   3.498   1.917   6.615  0.1894 -0.0786  0.1685
  855YOPE   D2A12612   3.191   2.043   6.970 -0.0744  0.0548  0.0914
  855YOPE   C3A12613   3.220   2.178   7.408 -0.3161  0.1111  0.2567
  855YOPE   C4A12614   3.519   2.438   7.621 -0.1333 -0.0742 -0.4060
  855YOPE   C1B12615   3.949   2.046   6.835 -0.2620 -0.2612  0.2645
  855YOPE   C2B12616   4.049   1.806   7.268 -0.2251  0.1596 -0.1508
  855YOPE   D3B12617   4.218   1.588   7.737  0.1769  0.1383  0.3186
  855YOPE   C4B12618   4.043   1.368   8.134  0.3322  0.1299 -0.1118
  856YOPE   NH312619   6.127   6.320   5.502  0.0381 -0.1774 -0.1798
  856YOPE   PO412620   5.979   6.717   5.607 -0.0016  0.0057 -0.0206
  856YOPE   GL112621   5.972   6.528   6.036 -0.3467  0.1739  0.1049
  856YOPE   GL212622   5.656   6.443   6.076  0.4212  0.1266  0.1209
  856YOPE   C1A12623   5.729   6.117   6.372 -0.1997 -0.0412 -0.0017
  856YOPE   D2A12624   5.752   5.671   6.521 -0.1699  0.0266 -0.0260
  856YOPE   C3A12625   5.435   5.376   6.300  0.0433  0.2450  0.2035
  856YOPE   C4A12626   5.174   5.269   6.033  0.0399  0.1096 -0.2337
  856YOPE   C1B12627   5.679   6.575   6.500  0.1271 -0.2652 -0.0730
  856YOPE   C2B12628   5.684   6.546   6.952 -0.3471 -0.1210 -0.0120
  856YOPE   D3B12629   5.878   6.729   7.363  0.2272  0.0800 -0.2279
  856YOPE   C4B12630   6.185   6.836   7.709 -0.0693  0.2851  0.0009
  857YOPE   NH312631   5.214   1.215   5.813 -0.0827 -0.0439  0.0407
  857YOPE   PO412632   5.590   1.211   5.873 -0.2207  0.0238  0.2682
  857YOPE   GL112633   5.576   1.024   6.235 -0.0848 -0.0647 -0.0483
  857YOPE   GL212634   5.879   0.872   6.347  0.4911  0.0433  0.2083
  857YOPE   C1A12635   5.518   1.163   6.655 -0.1791  0.0227  0.0817
  857YOPE   D2A12636   5.628   1.231   7.181 -0.1849 -0.2042  0.2543
  857YOPE   C3A12637   5.883   0.983   7.343  0.1994  0.1568  0.1970
  857YOPE   C4A12638   6.241   0.800   7.124  0.0790 -0.2434 -0.0204
  857YOPE   C1B12639   5.915   0.444   6.575  0.0724  0.0948 -0.0345
  857YOPE   C2B12640   5.667   0.268   6.839 -0.2714 -0.2446 -0.3439
  857YOPE   D3B12641   5.483   0.129   7.200 -0.1786 -0.2306 -0.0798
  857YOPE   C4B12642   5.724   0.058   7.527  0.0288 -0.2388  0.0851
  858YOPE   NH312643   0.010   9.379   6.660 -0.0268  0.2543  0.1175
  858YOPE   PO412644  -0.237   8.975   6.359  0.2687 -0.1758  0.1352
  858YOPE   GL112645  -0.161   8.817   6.718 -0.1669 -0.1006  0.2140
  858YOPE   GL212646   0.142   8.827   6.784  0.0697 -0.1243  0.0939
  858YOPE   C1A12647  -0.284   8.681   7.053 -0.1798  0.3255 -0.3198
  858YOPE   D2A12648  -0.619   8.606   7.550 -0.0430 -0.0717  0.0437
  858YOPE   C3A12649  -0.418   8.958   7.801 -0.1772 -0.3834  0.1293
  858YOPE   C4A12650  -0.497   9.048   8.246 -0.1797  0.1494  0.2112
  858YOPE   C1B12651   0.144   9.016   7.178  0.1511  0.0406  0.1368
  858YOPE   C2B12652   0.105   9.030   7.608 -0.1776  0.2434  0.0628
  858YOPE   D3B12653   0.312   8.884   7.930  0.1606 -0.2238  0.2215
  858YOPE   C4B12654   0.395   8.764   8.334  0.0177 -0.1862  0.0492
  859YOPE   NH312655   9.127  10.718   5.826 -0.0177 -0.1753 -0.0135
  859YOPE   PO412656   9.270  10.355   5.834  0.1591  0.0276  0.1177
  859YOPE   GL112657   9.068  10.171   6.203 -0.1207  0.1933 -0.0176
  859YOPE   GL212658   9.396  10.015   6.402  0.4335 -0.0762  0.0582
  859YOPE   C1A12659   8.642  10.037   6.433  0.0148  0.1411  0.1875
  859YOPE   D2A12660   8.397   9.847   6.787 -0.0135 -0.0936  0.1797
  859YOPE   C3A12661   8.599   9.852   7.178 -0.0017  0.1525  0.1779
  859YOPE   C4A12662   9.018   9.807   7.228 -0.2262  0.0783  0.0211
  859YOPE   C1B12663   9.624   9.712   6.688  0.0030 -0.2138 -0.2856
  859YOPE   C2B12664   9.765   9.311   6.792 -0.0365 -0.2167  0.2319
  859YOPE   D3B12665   9.561   8.941   6.906  0.0937 -0.0478 -0.3036
  859YOPE   C4B12666   9.189   8.767   6.480 -0.0958  0.3296 -0.0230
  860YOPE   NH312667   5.831   9.443   6.141 -0.1016 -0.0437 -0.1814
  860YOPE   PO412668   5.387   9.327   5.868  0.0727 -0.3180 -0.1695
  860YOPE   GL112669   5.537   9.007   6.166  0.1094  0.1034 -0.0564
  860YOPE   GL212670   5.829   8.965   6.301  0.0056  0.2093 -0.2094
  860YOPE   C1A12671   5.428   8.851   6.576  0.0174  0.1153  0.0353
  860YOPE   D2A12672   5.486   8.667   6.917  0.0466 -0.1868 -0.0105
  860YOPE   C3A12673   5.768   8.344   6.871 -0.3030  0.1985  0.0151
  860YOPE   C4A12674   5.876   7.877   6.933  0.0312 -0.3015 -0.0020
  860YOPE   C1B12675   5.766   8.524   6.394 -0.1903  0.1780  0.0411
  860YOPE   C2B12676   5.384   8.276   6.558 -0.0575 -0.1515  0.0332
  860YOPE   D3B12677   5.332   8.228   7.011 -0.0871 -0.0414  0.1560
  860YOPE   C4B12678   5.514   8.237   7.356  0.5417  0.0999 -0.1203
  861YOPE   NH312679  14.877   0.786   5.937 -0.0076 -0.1541  0.0424
  861YOPE   PO412680  14.645   1.330   5.986  0.0204 -0.1607 -0.0327
  861YOPE   GL112681  14.743   1.598   6.252 -0.0746  0.1407  0.0128
  861YOPE   GL212682  14.423   1.622   6.402  0.0452  0.2278 -0.0074
  861YOPE   C1A12683  14.831   1.985   6.543  0.2095  0.0645 -0.2513
  861YOPE   D2A12684  14.668   2.360   6.766  0.0089  0.0039 -0.0280
  861YOPE   C3A12685  14.395   2.734   6.704  0.0346  0.3002 -0.2733
  861YOPE   C4A12686  13.976   2.945   6.858  0.4328 -0.1188 -0.1261
  861YOPE   C1B12687  14.339   1.880   6.788 -0.2184  0.0007 -0.2225
  861YOPE   C2B12688  14.633   1.943   7.081  0.1419  0.1298  0.1356
  861YOPE   D3B12689  14.927   1.828   7.489  0.0839 -0.3905  0.0519
  861YOPE   C4B12690  15.154   1.899   7.790  0.1276 -0.2414  0.0646
  862YOPE   NH312691   3.612  16.756   5.923  0.1897 -0.0080 -0.1263
  862YOPE   PO412692   4.000  16.495   5.840  0.2420 -0.2619 -0.1526
  862YOPE   GL112693   3.936  16.493   6.388  0.1864  0.1189  0.1628
  862YOPE   GL212694   4.003  16.264   6.569 -0.1769  0.0883 -0.3386
  862YOPE   C1A12695   3.770  16.764   6.786  0.0619  0.2334 -0.2467
  862YOPE   D2A12696   3.795  16.717   7.272  0.0557  0.1215 -0.0511
  862YOPE   C3A12697   4.188  16.598   7.497  0.1401 -0.1814  0.2179
  862YOPE   C4A12698   4.412  16.838   7.742 -0.0360 -0.2589 -0.0859
  862YOPE   C1B12699   4.090  16.348   7.020  0.1451  0.2582 -0.0921
  862YOPE   C2B12700   3.805  16.235   7.367  0.1063  0.1014 -0.0877
  862YOPE   D3B12701   3.840  16.283   7.781 -0.0089 -0.0886 -0.3387
  862YOPE   C4B12702   3.787  16.384   8.248 -0.2075 -0.0333  0.1533
  863YOPE   NH312703   3.605  10.779   6.002 -0.2389 -0.0835 -0.1717
  863YOPE   PO412704   3.901  10.928   5.750  0.1525  0.0074  0.0056
  863YOPE   GL112705   4.170  11.243   6.033 -0.3109 -0.1174  0.1873
  863YOPE   GL212706   4.276  11.500   5.972  0.1457  0.0466  0.1019
  863YOPE   C1A12707   4.390  11.222   6.393  0.2559  0.0970  0.1003
  863YOPE   D2A12708   4.691  11.079   6.699 -0.1682 -0.2588 -0.1657
  863YOPE   C3A12709   4.982  10.823   6.593 -0.1534  0.1194 -0.1857
  863YOPE   C4A12710   5.071  10.452   6.734 -0.1065  0.0949 -0.1105
  863YOPE   C1B12711   4.300  11.851   6.290 -0.2890  0.1722  0.1736
  863YOPE   C2B12712   4.252  11.782   6.622  0.0011  0.5146  0.1031
  863YOPE   D3B12713   4.237  11.482   6.895  0.0439  0.0631 -0.0856
  863YOPE   C4B12714   4.192  11.531   7.321  0.2588 -0.1589  0.2594
  864YOPE   NH312715   7.794   6.451   5.494 -0.2367  0.0222  0.2033
  864YOPE   PO412716   7.842   6.790   5.858  0.3153 -0.0859 -0.0904
  864YOPE   GL112717   7.650   6.736   6.300  0.0372  0.1658 -0.0951
  864YOPE   GL212718   7.430   6.796   6.303  0.4798 -0.0485  0.1750
  864YOPE   C1A12719   7.908   6.787   6.665 -0.4045 -0.3131 -0.3882
  864YOPE   D2A12720   8.024   6.540   6.994  0.0903 -0.0958  0.0380
  864YOPE   C3A12721   8.021   6.698   7.323 -0.0225 -0.4124 -0.1157
  864YOPE   C4A12722   7.990   6.981   7.588 -0.0054  0.0082 -0.3619
  864YOPE   C1B12723   7.504   7.082   6.697  0.2671  0.0514  0.1229
  864YOPE   C2B12724   7.502   7.363   7.074  0.0535 -0.1675 -0.0930
  864YOPE   D3B12725   7.501   7.111   7.358 -0.0187 -0.1086 -0.1811
  864YOPE   C4B12726   7.332   6.850   7.814  0.3509  0.0839  0.3618
  865YOPE   NH312727  10.681  12.410   5.904 -0.0066 -0.0693  0.0528
  865YOPE   PO412728  10.678  12.860   5.885 -0.1046  0.0222  0.1994
  865YOPE   GL112729  10.611  12.774   6.264 -0.1712  0.1626  0.0369
  865YOPE   GL212730  10.868  12.806   6.510  0.4775 -0.0177  0.0999
  865YOPE   C1A12731  10.391  12.495   6.545 -0.1326 -0.0339  0.0010
  865YOPE   D2A12732  10.303  12.060   6.569 -0.1110 -0.1407  0.0526
  865YOPE   C3A12733   9.986  11.913   6.815 -0.2854  0.4045 -0.1018
  865YOPE   C4A12734   9.627  12.057   6.888  0.1161 -0.0184 -0.0451
  865YOPE   C1B12735  10.831  12.627   7.007  0.0845  0.1322 -0.3826
  865YOPE   C2B12736  10.861  12.713   7.453 -0.2146 -0.0681  0.2486
  865YOPE   D3B12737  10.836  12.601   7.817  0.2513  0.0880  0.0023
  865YOPE   C4B12738  10.467  12.510   7.951 -0.2719 -0.5265 -0.1521
  866YOPE   NH312739  13.657   5.916   5.190  0.0258  0.2521  0.1502
  866YOPE   PO412740  13.301   5.889   5.603  0.1845 -0.0987  0.1878
  866YOPE   GL112741  13.031   5.796   6.031 -0.2119  0.3746 -0.0360
  866YOPE   GL212742  13.172   5.490   6.086  0.2804 -0.0855  0.0720
  866YOPE   C1A12743  12.904   5.693   6.465 -0.0691 -0.0113  0.0892
  866YOPE   D2A12744  12.889   5.539   6.903 -0.0262  0.2064  0.1850
  866YOPE   C3A12745  13.155   5.381   7.219 -0.1827 -0.0139  0.0944
  866YOPE   C4A12746  13.622   5.194   7.458 -0.2736  0.2674 -0.2343
  866YOPE   C1B12747  13.444   5.588   6.323  0.0914 -0.2454  0.2180
  866YOPE   C2B12748  13.543   6.105   6.421 -0.2585  0.0738 -0.0820
  866YOPE   D3B12749  13.353   6.301   6.773  0.0003 -0.0618  0.2106
  866YOPE   C4B12750  13.233   6.233   7.214  0.2123 -0.0674  0.0582
  867YOPE   NH312751  11.993  15.819   6.304 -0.0319 -0.0413 -0.2305
  867YOPE   PO412752  11.509  15.938   6.287  0.1166  0.0792  0.2438
  867YOPE   GL112753  11.420  15.688   6.665  0.0260 -0.2650 -0.1871
  867YOPE   GL212754  11.080  15.798   6.806 -0.0850  0.0540  0.0580
  867YOPE   C1A12755  11.313  15.371   7.025  0.0207  0.1343  0.1316
  867YOPE   D2A12756  11.059  15.473   7.443 -0.1965  0.0942 -0.4268
  867YOPE   C3A12757  11.052  15.779   7.710  0.0436  0.2446  0.4393
  867YOPE   C4A12758  11.121  15.953   8.183  0.0816 -0.1659 -0.0914
  867YOPE   C1B12759  11.347  15.828   7.163 -0.1469  0.0911 -0.3850
  867YOPE   C2B12760  11.350  16.125   7.485  0.0838  0.2377 -0.1198
  867YOPE   D3B12761  11.560  16.167   7.954 -0.2575 -0.0222  0.1370
  867YOPE   C4B12762  11.408  16.358   8.231  0.0014 -0.1035  0.0725
  868YOPE   NH312763  18.111  12.584   6.239 -0.3519  0.0017  0.3211
  868YOPE   PO412764  18.093  13.073   6.183 -0.0637  0.0323 -0.1496
  868YOPE   GL112765  18.154  13.164   6.638 -0.3053 -0.1771  0.1594
  868YOPE   GL212766  18.457  13.165   6.698 -0.2321  0.0428  0.1088
  868YOPE   C1A12767  18.024  13.213   7.113  0.0598 -0.0323 -0.2067
  868YOPE   D2A12768  17.719  13.265   7.523 -0.0889 -0.2332  0.0483
  868YOPE   C3A12769  17.523  12.983   7.632 -0.2519  0.1540 -0.1367
  868YOPE   C4A12770  17.175  12.963   7.921  0.0096  0.0880  0.0467
  868YOPE   C1B12771  18.667  12.971   6.727 -0.0767 -0.1635  0.0517
  868YOPE   C2B12772  18.796  12.679   6.912 -0.0167 -0.0466 -0.4308
  868YOPE   D3B12773  18.638  12.480   7.269  0.1892  0.1608  0.1898
  868YOPE   C4B12774  18.553  12.277   7.661  0.0554 -0.0975  0.1234
  869YOPE   NH312775  14.493   5.905   5.635  0.2729  0.2011  0.3126
  869YOPE   PO412776  14.123   5.743   5.678  0.1920 -0.0941 -0.1861
  869YOPE   GL112777  14.125   5.851   6.033  0.2525  0.0085  0.0541
  869YOPE   GL212778  14.419   6.025   6.145  0.0652  0.1313  0.0706
  869YOPE   C1A12779  14.042   5.944   6.545  0.4952  0.0468 -0.0764
  869YOPE   D2A12780  14.182   5.903   6.889 -0.2733  0.3413  0.1966
  869YOPE   C3A12781  14.021   6.139   7.273  0.0369 -0.0934  0.1269
  869YOPE   C4A12782  13.876   6.036   7.585 -0.0159 -0.2328  0.0514
  869YOPE   C1B12783  14.490   6.395   6.411  0.1626  0.0812  0.2967
  869YOPE   C2B12784  14.308   6.687   6.686  0.0148  0.0145  0.0524
  869YOPE   D3B12785  14.134   6.976   6.889 -0.0048 -0.0303  0.0837
  869YOPE   C4B12786  13.787   7.029   7.075  0.2210 -0.3378  0.0343
  870YOPE   NH312787   6.574   3.829   6.027  0.0426 -0.1743  0.0116
  870YOPE   PO412788   6.787   3.530   6.087  0.1090 -0.0784 -0.2705
  870YOPE   GL112789   6.919   3.553   6.471  0.0962  0.0953  0.2555
  870YOPE   GL212790   7.010   3.256   6.515 -0.2087  0.1678 -0.0112
  870YOPE   C1A12791   6.814   3.503   6.888  0.1539  0.1069 -0.0610
  870YOPE   D2A12792   6.615   3.405   7.267 -0.2253 -0.2909  0.2592
  870YOPE   C3A12793   6.236   3.506   7.594  0.0601  0.3055  0.1200
  870YOPE   C4A12794   5.882   3.382   7.922  0.3095 -0.2579 -0.1624
  870YOPE   C1B12795   7.028   3.059   6.955 -0.3621  0.2054  0.2560
  870YOPE   C2B12796   6.993   2.705   7.102  0.1545  0.0835  0.2537
  870YOPE   D3B12797   6.843   2.519   7.394  0.1159 -0.0471  0.1380
  870YOPE   C4B12798   6.710   2.539   7.710 -0.1080 -0.2097  0.1218
  871YOPE   NH312799   5.106  13.891   5.833  0.1421 -0.1195  0.0081
  871YOPE   PO412800   5.380  13.697   6.069 -0.2553  0.0183  0.5830
  871YOPE   GL112801   5.282  13.624   6.521  0.3892  0.0331  0.1966
  871YOPE   GL212802   5.229  13.937   6.580  0.2110  0.1315 -0.2132
  871YOPE   C1A12803   5.094  13.383   6.866 -0.1975 -0.0748 -0.0545
  871YOPE   D2A12804   4.992  13.497   7.242 -0.0435 -0.1071 -0.1567
  871YOPE   C3A12805   5.176  13.393   7.671 -0.0532  0.1165 -0.0069
  871YOPE   C4A12806   5.375  13.087   7.859 -0.2207 -0.2244 -0.0910
  871YOPE   C1B12807   4.841  13.814   6.805  0.1129  0.2260  0.0065
  871YOPE   C2B12808   4.594  13.950   7.091  0.2721 -0.0378  0.4272
  871YOPE   D3B12809   4.671  13.871   7.502  0.0434 -0.4791 -0.0632
  871YOPE   C4B12810   4.736  13.855   7.988  0.2174 -0.0187  0.1381
  872YOPE   NH312811  16.795   9.047   6.404 -0.1876 -0.1997 -0.1457
  872YOPE   PO412812  17.047   8.667   6.602 -0.0653 -0.1762 -0.0778
  872YOPE   GL112813  17.228   8.603   7.052 -0.4915 -0.4030  0.0894
  872YOPE   GL212814  17.461   8.883   7.121 -0.0886 -0.0160  0.2387
  872YOPE   C1A12815  17.125   8.570   7.598 -0.2897  0.4278 -0.1998
  872YOPE   D2A12816  17.369   8.232   7.829 -0.0689 -0.0042 -0.1480
  872YOPE   C3A12817  17.681   8.032   8.124  0.3076 -0.2915  0.4997
  872YOPE   C4A12818  17.809   8.180   8.512 -0.0666 -0.0365 -0.3400
  872YOPE   C1B12819  17.760   9.086   7.330 -0.1009 -0.0525 -0.1134
  872YOPE   C2B12820  18.063   9.417   7.641 -0.0900 -0.1409 -0.1398
  872YOPE   D3B12821  17.946   9.650   7.952  0.0362  0.0994 -0.3909
  872YOPE   C4B12822  17.950   9.853   8.295  0.3078 -0.2322  0.2532
  873YOPE   NH312823  15.499   2.928   5.782 -0.1658 -0.0092  0.0150
  873YOPE   PO412824  15.569   3.290   6.040  0.0436 -0.3364  0.2713
  873YOPE   GL112825  15.374   3.224   6.393  0.1097 -0.0278  0.1865
  873YOPE   GL212826  15.122   3.227   6.354 -0.3033  0.0279  0.1755
  873YOPE   C1A12827  15.387   3.097   6.768  0.1846 -0.0025  0.3526
  873YOPE   D2A12828  15.369   3.247   7.203 -0.2467  0.1986 -0.0258
  873YOPE   C3A12829  15.654   3.081   7.416  0.1780 -0.0298 -0.3180
  873YOPE   C4A12830  15.691   3.040   7.895 -0.0984 -0.2022 -0.2197
  873YOPE   C1B12831  15.013   3.425   6.738 -0.0723  0.0603 -0.0294
  873YOPE   C2B12832  14.734   3.509   7.100 -0.0491  0.0529  0.2373
  873YOPE   D3B12833  14.679   3.169   7.442 -0.0218  0.2578  0.1420
  873YOPE   C4B12834  14.491   3.188   7.836 -0.0303  0.1202 -0.3282
  874YOPE   NH312835   9.052   7.190   5.735 -0.1390  0.3495  0.0886
  874YOPE   PO412836   9.173   6.639   5.693 -0.0119 -0.3181  0.0203
  874YOPE   GL112837   9.219   6.826   6.106 -0.1501  0.0022  0.0683
  874YOPE   GL212838   9.337   6.568   6.316  0.1690  0.0661  0.0536
  874YOPE   C1A12839   9.132   7.103   6.568 -0.1530  0.0254 -0.1687
  874YOPE   D2A12840   8.949   7.450   6.657 -0.0454  0.4458  0.3022
  874YOPE   C3A12841   8.498   7.457   6.989 -0.1304  0.3400  0.0626
  874YOPE   C4A12842   8.254   7.632   7.279 -0.1683 -0.0181 -0.1141
  874YOPE   C1B12843   9.308   6.603   6.657  0.1366 -0.3291  0.0374
  874YOPE   C2B12844   9.333   6.455   6.987  0.1008  0.4024  0.0237
  874YOPE   D3B12845   9.438   6.476   7.338  0.1292 -0.0574 -0.0168
  874YOPE   C4B12846   9.559   6.105   7.522  0.0441  0.0049 -0.0028
  875YOPE   NH312847   5.984  11.555   6.095 -0.0024  0.1887 -0.2904
  875YOPE   PO412848   6.450  11.541   6.028 -0.1001 -0.0165 -0.0014
  875YOPE   GL112849   6.572  11.252   6.305 -0.0408 -0.0892 -0.2192
  875YOPE   GL212850   6.669  11.362   6.643  0.0986  0.0643 -0.0474
  875YOPE   C1A12851   6.453  10.867   6.629 -0.2587 -0.0785 -0.0520
  875YOPE   D2A12852   6.383  10.653   6.995 -0.2693 -0.0607 -0.0988
  875YOPE   C3A12853   6.708  10.409   7.208  0.0654  0.1781 -0.2312
  875YOPE   C4A12854   6.814  10.263   7.566 -0.0281 -0.1112  0.1727
  875YOPE   C1B12855   6.659  11.293   7.010  0.1466  0.3060  0.1850
  875YOPE   C2B12856   6.964  11.301   7.367 -0.1004  0.0608 -0.0050
  875YOPE   D3B12857   7.170  11.183   7.613  0.0381  0.0016 -0.0772
  875YOPE   C4B12858   7.530  11.045   7.498  0.1672  0.3365 -0.2775
  876YOPE   NH312859   7.879  14.377   5.305 -0.1498 -0.0721 -0.1918
  876YOPE   PO412860   7.454  14.251   5.535  0.3191 -0.1834 -0.0897
  876YOPE   GL112861   7.467  14.516   5.855 -0.2735  0.2177 -0.0840
  876YOPE   GL212862   7.227  14.272   6.018 -0.1331 -0.1880  0.1109
  876YOPE   C1A12863   7.749  14.687   6.264 -0.0804 -0.3205 -0.1171
  876YOPE   D2A12864   7.617  14.838   6.606 -0.3588  0.0066  0.3232
  876YOPE   C3A12865   7.602  14.539   6.857 -0.1346  0.0108  0.0908
  876YOPE   C4A12866   7.412  14.260   6.987 -0.0211 -0.0855 -0.0818
  876YOPE   C1B12867   6.895  14.106   6.376 -0.1246  0.3373  0.0695
  876YOPE   C2B12868   6.883  14.203   6.849  0.4405  0.0730 -0.1540
  876YOPE   D3B12869   6.617  14.171   7.189  0.1019  0.0197 -0.0088
  876YOPE   C4B12870   6.274  14.056   7.521 -0.0048  0.0798 -0.1264
  877YOPE   NH312871   8.239   9.025   5.924  0.0308 -0.3240  0.2813
  877YOPE   PO412872   8.432   8.792   5.660 -0.1790  0.0926 -0.1057
  877YOPE   GL112873   8.448   8.437   5.897  0.0874  0.2598 -0.2426
  877YOPE   GL212874   8.470   8.609   6.145 -0.2840  0.1643  0.0990
  877YOPE   C1A12875   8.442   8.117   6.382 -0.1471  0.0329  0.1858
  877YOPE   D2A12876   8.805   7.904   6.589  0.1115 -0.1075 -0.2547
  877YOPE   C3A12877   8.850   7.854   7.058  0.1378  0.2330  0.0899
  877YOPE   C4A12878   8.620   8.026   7.377  0.1160 -0.2099 -0.0585
  877YOPE   C1B12879   8.710   8.511   6.545  0.2617  0.2348  0.0102
  877YOPE   C2B12880   8.816   8.295   6.912 -0.2699  0.0555 -0.0585
  877YOPE   D3B12881   9.025   8.313   7.316 -0.1491 -0.0161 -0.0621
  877YOPE   C4B12882   8.967   8.517   7.680  0.0003 -0.1713 -0.0485
  878YOPE   NH312883  15.067   9.326   6.001 -0.2584  0.1591 -0.1533
  878YOPE   PO412884  15.236   8.933   6.121  0.2609 -0.0870 -0.1347
  878YOPE   GL112885  15.074   8.627   6.409  0.2405 -0.3110  0.0125
  878YOPE   GL212886  15.186   8.417   6.560 -0.1316  0.0018 -0.0042
  878YOPE   C1A12887  14.800   8.649   6.812 -0.1555 -0.3074  0.0703
  878YOPE   D2A12888  14.930   8.831   7.095 -0.1920 -0.0548 -0.0709
  878YOPE   C3A12889  14.997   8.674   7.583 -0.3399  0.2574 -0.1146
  878YOPE   C4A12890  14.957   8.260   7.716  0.0053  0.2363  0.1101
  878YOPE   C1B12891  15.281   8.503   6.985  0.3049  0.1169  0.3986
  878YOPE   C2B12892  15.459   8.401   7.409  0.3327  0.3861  0.1101
  878YOPE   D3B12893  15.418   8.283   7.890 -0.2485 -0.1016 -0.1612
  878YOPE   C4B12894  15.611   8.240   8.345  0.4945  0.0690 -0.1029
  879YOPE   NH312895   9.908  11.280   6.029 -0.0420 -0.0819  0.0292
  879YOPE   PO412896  10.404  11.246   6.066 -0.0434 -0.2746  0.0286
  879YOPE   GL112897  10.448  11.078   6.439  0.0505 -0.1345  0.0655
  879YOPE   GL212898  10.108  11.009   6.374  0.4866 -0.1033  0.2434
  879YOPE   C1A12899  10.282  10.946   6.855 -0.2709  0.2640 -0.3166
  879YOPE   D2A12900  10.385  10.840   7.232 -0.0525 -0.1953  0.3570
  879YOPE   C3A12901  10.201  10.658   7.626 -0.0268 -0.0200  0.2334
  879YOPE   C4A12902  10.109  10.742   7.954 -0.0195 -0.2588  0.1303
  879YOPE   C1B12903   9.703  11.106   6.645 -0.0007  0.0617  0.2282
  879YOPE   C2B12904   9.754  11.067   7.084  0.3503 -0.1766  0.0038
  879YOPE   D3B12905   9.955  11.027   7.390  0.1952  0.0704  0.2548
  879YOPE   C4B12906   9.957  11.249   7.766  0.0217  0.3568 -0.0287
  880YOPE   NH312907   6.735  13.065   5.810 -0.2015 -0.1185 -0.0658
  880YOPE   PO412908   6.450  13.387   5.670 -0.1704 -0.3303 -0.3371
  880YOPE   GL112909   6.763  13.575   5.843 -0.1208 -0.0768  0.1662
  880YOPE   GL212910   6.643  13.534   6.194 -0.0719 -0.0748 -0.0142
  880YOPE   C1A12911   7.064  13.671   6.035  0.0697 -0.0280 -0.0900
  880YOPE   D2A12912   7.423  13.525   6.314 -0.0179 -0.1983  0.0884
  880YOPE   C3A12913   7.189  13.247   6.606 -0.0135 -0.4976 -0.0064
  880YOPE   C4A12914   7.112  12.985   6.872  0.1540  0.3133 -0.1945
  880YOPE   C1B12915   6.838  13.598   6.502 -0.0340  0.0124 -0.1924
  880YOPE   C2B12916   7.059  13.705   6.928 -0.2835  0.2395  0.0930
  880YOPE   D3B12917   7.118  13.859   7.394  0.0162  0.1649 -0.2288
  880YOPE   C4B12918   6.813  14.067   7.683 -0.0498 -0.0699 -0.2012
  881YOPE   NH312919   6.095  16.361   5.986  0.3546  0.2390 -0.2774
  881YOPE   PO412920   5.990  16.014   6.193  0.1492  0.0614 -0.0736
  881YOPE   GL112921   5.702  15.959   6.439 -0.0030  0.1163 -0.2569
  881YOPE   GL212922   5.358  15.912   6.405  0.2071  0.0474  0.1285
  881YOPE   C1A12923   5.837  15.962   6.867  0.1859  0.0100  0.1541
  881YOPE   D2A12924   5.805  16.477   7.068  0.4699  0.2520  0.1859
  881YOPE   C3A12925   5.428  16.648   7.121  0.1956  0.0400 -0.0360
  881YOPE   C4A12926   5.177  16.800   7.498  0.0464 -0.3051  0.0547
  881YOPE   C1B12927   5.400  15.674   6.790 -0.2469  0.0214 -0.0366
  881YOPE   C2B12928   5.516  15.685   7.228 -0.3043 -0.0259  0.3240
  881YOPE   D3B12929   5.610  15.747   7.512  0.3045 -0.1921  0.1962
  881YOPE   C4B12930   5.836  15.638   7.847  0.0068 -0.1256 -0.1544
  882YOPE   NH312931   9.907   5.917   5.744  0.2205  0.3583  0.3998
  882YOPE   PO412932  10.095   6.349   5.859  0.0958 -0.1971 -0.1589
  882YOPE   GL112933  10.311   6.296   6.193  0.0236  0.1295 -0.0525
  882YOPE   GL212934  10.382   6.629   6.343 -0.2391  0.0277 -0.1400
  882YOPE   C1A12935  10.530   6.099   6.554  0.1015 -0.2359 -0.2174
  882YOPE   D2A12936  10.595   6.298   6.930 -0.1698  0.4483  0.1483
  882YOPE   C3A12937  10.656   6.003   7.199 -0.0809 -0.2560 -0.0339
  882YOPE   C4A12938  10.593   5.844   7.588  0.1052 -0.1130 -0.0016
  882YOPE   C1B12939  10.351   6.701   6.796 -0.0734  0.0012  0.1111
  882YOPE   C2B12940  10.600   6.682   7.300 -0.2138 -0.1625  0.3255
  882YOPE   D3B12941  10.884   6.707   7.648  0.0980 -0.0873 -0.1296
  882YOPE   C4B12942  10.771   6.943   8.060  0.0897  0.0121 -0.5660
  883YOPE   NH312943   6.099   8.486   5.830 -0.0574  0.0535  0.0329
  883YOPE   PO412944   5.850   8.133   5.777 -0.0858 -0.1040 -0.0658
  883YOPE   GL112945   5.917   7.762   5.978  0.1500 -0.1489  0.0250
  883YOPE   GL212946   6.014   7.457   5.889 -0.0157  0.2331 -0.0214
  883YOPE   C1A12947   5.767   7.581   6.340 -0.1518 -0.1456  0.3467
  883YOPE   D2A12948   5.449   7.736   6.645  0.0570  0.0826 -0.0423
  883YOPE   C3A12949   5.415   7.726   7.149  0.0469  0.0374 -0.0389
  883YOPE   C4A12950   5.646   7.798   7.554  0.1153  0.0292 -0.2271
  883YOPE   C1B12951   6.174   7.185   6.279  0.0383 -0.0501  0.2356
  883YOPE   C2B12952   6.368   6.834   6.509  0.0546 -0.1407  0.0553
  883YOPE   D3B12953   6.077   6.475   6.682  0.0958 -0.0289  0.0112
  883YOPE   C4B12954   6.010   6.225   7.222  0.0481  0.2059  0.1516
  884YOPE   NH312955  10.459   1.340   5.903 -0.2725 -0.0739  0.2492
  884YOPE   PO412956  10.418   1.700   5.858 -0.0804 -0.0108 -0.0060
  884YOPE   GL112957  10.121   1.605   6.204  0.2499 -0.0800  0.0284
  884YOPE   GL212958  10.303   1.715   6.359  0.0641 -0.0767  0.0524
  884YOPE   C1A12959  10.000   1.601   6.706  0.1804  0.2091 -0.1029
  884YOPE   D2A12960  10.191   1.640   6.985 -0.0439 -0.2606  0.1426
  884YOPE   C3A12961  10.008   1.734   7.463  0.0858 -0.0618 -0.2553
  884YOPE   C4A12962   9.937   1.772   7.940  0.3908  0.0341 -0.0711
  884YOPE   C1B12963  10.540   1.970   6.578  0.0992  0.3447 -0.1577
  884YOPE   C2B12964  10.889   1.974   6.895  0.0331  0.1817  0.1272
  884YOPE   D3B12965  11.036   2.271   7.233 -0.1737 -0.1122  0.1132
  884YOPE   C4B12966  10.835   2.225   7.735 -0.0463 -0.0598  0.4091
  885YOPE   NH312967   3.761  11.512   5.669 -0.1052 -0.2938  0.1770
  885YOPE   PO412968   3.481  11.204   5.806 -0.1955  0.0468  0.2583
  885YOPE   GL112969   3.630  11.334   6.159  0.2351  0.0066  0.1188
  885YOPE   GL212970   3.414  11.610   6.312 -0.1063 -0.1348  0.3505
  885YOPE   C1A12971   3.860  11.445   6.522 -0.1928  0.1846 -0.1293
  885YOPE   D2A12972   3.736  11.450   6.874 -0.2655 -0.0575 -0.2427
  885YOPE   C3A12973   3.741  11.614   7.288 -0.1002  0.0349  0.3380
  885YOPE   C4A12974   3.927  11.836   7.619 -0.1242 -0.2428  0.0038
  885YOPE   C1B12975   3.566  11.897   6.658 -0.0504  0.0845 -0.0034
  885YOPE   C2B12976   3.896  11.871   6.918 -0.2682  0.2077  0.0854
  885YOPE   D3B12977   4.105  12.107   7.188  0.1430  0.1329 -0.1310
  885YOPE   C4B12978   3.838  12.332   7.471  0.2489 -0.0444 -0.0297
  886YOPE   NH312979   4.243   8.655   5.763  0.2550 -0.3390 -0.2104
  886YOPE   PO412980   3.960   8.312   5.731  0.2720  0.1115 -0.1582
  886YOPE   GL112981   4.182   8.229   6.134  0.2801 -0.1401 -0.2705
  886YOPE   GL212982   4.138   7.918   6.323  0.1336 -0.0818  0.2141
  886YOPE   C1A12983   4.328   8.266   6.623  0.1522 -0.2855  0.1005
  886YOPE   D2A12984   4.139   8.137   7.022 -0.2842 -0.0045 -0.4449
  886YOPE   C3A12985   4.195   7.733   7.097  0.2035  0.1223 -0.0272
  886YOPE   C4A12986   4.411   7.505   7.505  0.1225  0.0464  0.0427
  886YOPE   C1B12987   3.794   7.935   6.525  0.0650 -0.0715  0.1110
  886YOPE   C2B12988   3.450   7.752   6.716  0.0431  0.3980  0.0666
  886YOPE   D3B12989   3.366   7.746   7.174 -0.1426 -0.0059  0.1509
  886YOPE   C4B12990   3.051   7.729   7.605  0.2127  0.0642 -0.0328
  887YOPE   NH312991  14.005   9.386   6.270  0.0255  0.2282  0.2420
  887YOPE   PO412992  13.806   9.857   6.389  0.1670  0.4233 -0.1965
  887YOPE   GL112993  13.563   9.828   6.642  0.1906  0.2166  0.1549
  887YOPE   GL212994  13.584   9.385   6.551  0.0474  0.1194 -0.0994
  887YOPE   C1A12995  13.336   9.883   7.069 -0.3229  0.2146  0.2643
  887YOPE   D2A12996  12.899   9.841   7.223  0.3299 -0.0671  0.1622
  887YOPE   C3A12997  12.686   9.544   7.455 -0.0082  0.2684  0.1569
  887YOPE   C4A12998  12.496   9.084   7.462  0.1261 -0.2074 -0.2877
  887YOPE   C1B12999  13.362   9.394   6.915  0.0554 -0.2610 -0.0946
  887YOPE   C2B13000  13.549   9.071   7.228 -0.3823  0.0859  0.0169
  887YOPE   D3B13001  13.867   8.991   7.624  0.4186 -0.1348 -0.0393
  887YOPE   C4B13002  14.124   8.707   7.911 -0.3418 -0.1324  0.0480
  888YOPE   NH313003  13.131  12.834   6.225  0.2006  0.2444 -0.0151
  888YOPE   PO413004  12.952  13.226   6.138  0.1634 -0.1703 -0.0584
  888YOPE   GL113005  12.915  13.173   6.539  0.0627 -0.1295 -0.2538
  888YOPE   GL213006  12.863  13.488   6.631  0.0248 -0.1073 -0.2591
  888YOPE   C1A13007  12.842  12.996   6.954  0.0103 -0.1039  0.0261
  888YOPE   D2A13008  12.959  13.188   7.265 -0.1236  0.0871 -0.0490
  888YOPE   C3A13009  12.898  13.073   7.633 -0.4510  0.1346 -0.2708
  888YOPE   C4A13010  13.080  12.893   8.009  0.0112 -0.0051 -0.1151
  888YOPE   C1B13011  12.664  13.500   6.999  0.1555 -0.1237  0.2150
  888YOPE   C2B13012  12.857  13.686   7.338  0.2984 -0.1372  0.0988
  888YOPE   D3B13013  13.097  13.652   7.750  0.1266 -0.0831 -0.1428
  888YOPE   C4B13014  13.343  13.380   7.988  0.0937  0.2404 -0.1946
  889YOPE   NH313015  16.842   3.513   6.069 -0.0087  0.2357  0.2140
  889YOPE   PO413016  16.881   3.950   6.259  0.1662  0.2739  0.2146
  889YOPE   GL113017  16.994   3.666   6.551  0.1921 -0.0116 -0.0021
  889YOPE   GL213018  16.858   3.660   6.867  0.0363 -0.0985 -0.1880
  889YOPE   C1A13019  17.382   3.434   6.761  0.3485 -0.2202  0.3666
  889YOPE   D2A13020  17.343   3.316   7.127 -0.0176  0.0876  0.2781
  889YOPE   C3A13021  17.662   3.203   7.266  0.2277  0.3446 -0.3161
  889YOPE   C4A13022  17.596   2.808   7.518  0.1825 -0.0299 -0.3920
  889YOPE   C1B13023  16.737   3.879   7.263 -0.1732 -0.1082  0.3176
  889YOPE   C2B13024  16.908   4.042   7.686 -0.0791  0.1694 -0.0052
  889YOPE   D3B13025  16.963   4.216   8.091  0.0172  0.3653 -0.2870
  889YOPE   C4B13026  17.184   4.590   8.174  0.1003 -0.1050  0.0604
  890YOPE   NH313027  11.354   6.770   5.608  0.2379  0.1923  0.4052
  890YOPE   PO413028  10.948   6.563   5.589  0.3299  0.1950 -0.3095
  890YOPE   GL113029  10.867   6.378   6.010  0.1868 -0.1529  0.0121
  890YOPE   GL213030  10.716   6.064   6.046  0.2707 -0.1446 -0.0132
  890YOPE   C1A13031  10.910   6.483   6.410  0.1427 -0.2420 -0.2629
  890YOPE   D2A13032  10.851   6.751   6.878  0.1611  0.2665  0.0315
  890YOPE   C3A13033  11.062   6.493   7.195 -0.3307 -0.0993 -0.0238
  890YOPE   C4A13034  11.101   6.260   7.612  0.2444 -0.0878 -0.2714
  890YOPE   C1B13035  10.986   5.956   6.256 -0.1520  0.4639 -0.3367
  890YOPE   C2B13036  11.039   5.566   6.316  0.0089 -0.1076 -0.4825
  890YOPE   D3B13037  10.777   5.178   6.459 -0.0336 -0.1777 -0.1124
  890YOPE   C4B13038  10.611   4.780   6.399 -0.0036  0.1256  0.0630
  891YOPE   NH313039   1.279   8.869   6.260 -0.0952 -0.1459 -0.2196
  891YOPE   PO413040   1.321   8.456   6.398  0.1163  0.1183 -0.0032
  891YOPE   GL113041   1.278   8.347   6.854  0.2923  0.1178 -0.1653
  891YOPE   GL213042   0.841   8.252   6.925  0.0439 -0.1012  0.3241
  891YOPE   C1A13043   1.386   8.246   7.330  0.0337 -0.0300 -0.1644
  891YOPE   D2A13044   1.445   7.972   7.758 -0.0897 -0.4147  0.0486
  891YOPE   C3A13045   1.323   7.589   7.590 -0.1261  0.2397 -0.0083
  891YOPE   C4A13046   1.008   7.361   7.568 -0.1089 -0.0310 -0.1038
  891YOPE   C1B13047   0.795   8.389   7.239  0.1896 -0.3529  0.0818
  891YOPE   C2B13048   1.105   8.588   7.600 -0.0269 -0.3283  0.2579
  891YOPE   D3B13049   1.104   8.256   7.937  0.3220 -0.0204 -0.1606
  891YOPE   C4B13050   1.095   8.071   8.347  0.1434 -0.3601 -0.2194
  892YOPE   NH313051  14.339   8.093   5.955 -0.2485 -0.4919 -0.0768
  892YOPE   PO413052  14.106   8.481   5.980 -0.1591 -0.5847 -0.0902
  892YOPE   GL113053  14.038   8.386   6.304 -0.0877  0.0098  0.3240
  892YOPE   GL213054  13.741   8.200   6.217 -0.3360 -0.0190  0.1708
  892YOPE   C1A13055  13.833   8.366   6.781 -0.2231 -0.0239 -0.1310
  892YOPE   D2A13056  13.993   8.680   7.178 -0.1539 -0.0704 -0.0876
  892YOPE   C3A13057  13.940   8.275   7.605 -0.2155  0.1913  0.0355
  892YOPE   C4A13058  13.729   8.099   7.924  0.2516 -0.1307  0.3747
  892YOPE   C1B13059  13.457   8.209   6.463 -0.1167  0.1456 -0.1151
  892YOPE   C2B13060  13.331   8.181   6.824 -0.0282 -0.0429 -0.0233
  892YOPE   D3B13061  13.092   8.032   7.205 -0.1778  0.1107 -0.0208
  892YOPE   C4B13062  12.756   8.097   7.254 -0.1474 -0.1005  0.2930
  893YOPE   NH313063   2.397  12.502   6.131  0.1361  0.0556 -0.0558
  893YOPE   PO413064   2.807  12.435   5.906  0.1396  0.0388 -0.0770
  893YOPE   GL113065   2.956  12.378   6.275  0.1320 -0.2595  0.0474
  893YOPE   GL213066   2.820  12.709   6.474  0.1102  0.0480  0.2402
  893YOPE   C1A13067   3.166  12.255   6.635 -0.0114 -0.0766 -0.0458
  893YOPE   D2A13068   3.092  12.179   7.059  0.0970  0.0006  0.2452
  893YOPE   C3A13069   2.971  11.881   7.358 -0.2072 -0.0236 -0.0154
  893YOPE   C4A13070   2.983  11.795   7.738  0.0062  0.0280  0.1750
  893YOPE   C1B13071   2.712  12.492   6.849 -0.1085  0.0932  0.2451
  893YOPE   C2B13072   2.602  12.288   7.268 -0.1850  0.1223  0.0278
  893YOPE   D3B13073   2.896  12.311   7.629  0.0635 -0.2859 -0.1457
  893YOPE   C4B13074   2.995  12.275   8.102  0.0531 -0.0606  0.2723
  894YOPE   NH313075   8.938   4.544   5.637 -0.1526  0.2487 -0.0822
  894YOPE   PO413076   9.373   4.634   5.492  0.0978  0.0170 -0.1229
  894YOPE   GL113077   9.677   4.640   5.836 -0.0966 -0.3592 -0.3635
  894YOPE   GL213078   9.950   4.859   5.856 -0.0427  0.1289  0.1853
  894YOPE   C1A13079   9.839   4.472   6.313  0.0781  0.0944  0.1336
  894YOPE   D2A13080   9.802   4.189   6.709 -0.0007 -0.0678 -0.3971
  894YOPE   C3A13081   9.401   4.345   7.011  0.0625  0.4722  0.1444
  894YOPE   C4A13082   9.284   4.275   7.468  0.1225 -0.0662  0.3430
  894YOPE   C1B13083  10.130   4.910   6.278 -0.1757 -0.0683  0.1197
  894YOPE   C2B13084  10.238   4.979   6.658  0.4050  0.0671  0.1484
  894YOPE   D3B13085  10.284   4.967   7.092  0.2268 -0.1762  0.4468
  894YOPE   C4B13086  10.142   4.753   7.417  0.3110 -0.1234  0.0089
  895YOPE   NH313087   2.990   0.559   5.789 -0.1468  0.0667  0.2947
  895YOPE   PO413088   2.903   0.148   5.838  0.0645  0.0821  0.2120
  895YOPE   GL113089   2.862   0.310   6.241  0.0682 -0.0908  0.1525
  895YOPE   GL213090   3.057   0.564   6.336 -0.0940 -0.0807  0.0790
  895YOPE   C1A13091   2.843   0.282   6.828 -0.0604  0.0367  0.0297
  895YOPE   D2A13092   2.870   0.174   7.285 -0.3149 -0.0143  0.1506
  895YOPE   C3A13093   2.679   0.295   7.649  0.1678 -0.1391  0.0610
  895YOPE   C4A13094   2.275   0.185   7.883 -0.1446 -0.0133 -0.0751
  895YOPE   C1B13095   3.293   0.417   6.751 -0.1522 -0.2299 -0.0976
  895YOPE   C2B13096   3.202   0.506   7.110 -0.0552  0.0123  0.1624
  895YOPE   D3B13097   3.246   0.370   7.514 -0.3263 -0.1867  0.0741
  895YOPE   C4B13098   3.530   0.586   7.813  0.1371 -0.1641 -0.0649
  896YOPE   NH313099   7.350   4.291   6.051  0.0362 -0.1335 -0.1118
  896YOPE   PO413100   7.249   4.678   5.897 -0.0937 -0.4435  0.0177
  896YOPE   GL113101   7.336   4.786   6.232 -0.2642  0.0341 -0.1301
  896YOPE   GL213102   7.393   4.539   6.495  0.2258  0.1119 -0.1388
  896YOPE   C1A13103   7.293   5.036   6.569 -0.4157 -0.0572  0.0089
  896YOPE   D2A13104   7.307   5.316   6.931  0.0908 -0.0209 -0.1444
  896YOPE   C3A13105   7.215   5.231   7.361  0.0148  0.1111  0.1866
  896YOPE   C4A13106   7.060   4.834   7.587  0.1713  0.1614 -0.0557
  896YOPE   C1B13107   7.071   4.381   6.886 -0.3372 -0.2646 -0.0631
  896YOPE   C2B13108   7.202   4.486   7.267  0.1593 -0.1425 -0.0893
  896YOPE   D3B13109   7.086   4.357   7.643 -0.3092 -0.0733  0.0112
  896YOPE   C4B13110   6.782   4.200   7.859 -0.0190  0.2170 -0.1010
  897YOPE   NH313111   7.550  10.090   5.548 -0.1473  0.3042  0.1954
  897YOPE   PO413112   7.734  10.388   5.845  0.1118  0.2245 -0.1779
  897YOPE   GL113113   8.003  10.300   6.196  0.4076  0.1674 -0.1294
  897YOPE   GL213114   8.149   9.952   6.318 -0.1690 -0.2133 -0.2917
  897YOPE   C1A13115   8.164  10.317   6.673 -0.1893 -0.1962  0.5830
  897YOPE   D2A13116   8.260  10.231   7.136  0.0014 -0.3486  0.0229
  897YOPE   C3A13117   8.703  10.281   7.305  0.1079 -0.3391  0.2936
  897YOPE   C4A13118   9.080  10.190   7.500 -0.1385 -0.0399  0.0270
  897YOPE   C1B13119   7.904   9.743   6.558 -0.0394  0.0666 -0.0541
  897YOPE   C2B13120   7.945   9.691   7.002  0.3488 -0.0293  0.0536
  897YOPE   D3B13121   7.981   9.660   7.476  0.0254  0.0065  0.1664
  897YOPE   C4B13122   7.894   9.840   7.885  0.0749 -0.1130  0.0795
  898YOPE   NH313123   8.300   8.384   5.417 -0.1523 -0.1119  0.0075
  898YOPE   PO413124   8.267   7.909   5.229  0.0195  0.2698 -0.0978
  898YOPE   GL113125   8.496   7.919   5.624  0.1366  0.2318  0.1890
  898YOPE   GL213126   8.815   8.109   5.655  0.0960 -0.2334 -0.0872
  898YOPE   C1A13127   8.637   7.686   6.052 -0.1729  0.0080  0.0384
  898YOPE   D2A13128   8.250   7.676   6.250  0.0827  0.1116 -0.0464
  898YOPE   C3A13129   8.204   7.837   6.703  0.3557  0.0898 -0.0644
  898YOPE   C4A13130   8.334   8.198   6.955  0.1580 -0.1824  0.2060
  898YOPE   C1B13131   8.870   8.184   6.088 -0.0580 -0.0127  0.1934
  898YOPE   C2B13132   9.137   8.248   6.503  0.2094 -0.2131  0.0802
  898YOPE   D3B13133   9.322   8.359   6.886  0.0517 -0.2368 -0.1024
  898YOPE   C4B13134   9.509   8.571   7.240 -0.3647  0.2077  0.1549
  899YOPE   NH313135  10.797   6.028   5.560 -0.0099  0.3462  0.1739
  899YOPE   PO413136  10.364   5.811   5.617 -0.3393 -0.1859 -0.3858
  899YOPE   GL113137  10.257   5.766   6.091 -0.0696  0.2316  0.2413
  899YOPE   GL213138   9.998   5.457   6.010 -0.0928  0.3355  0.0801
  899YOPE   C1A13139  10.324   5.509   6.485 -0.2373 -0.3869  0.0173
  899YOPE   D2A13140  10.570   5.400   6.871 -0.0724 -0.2660 -0.0626
  899YOPE   C3A13141  10.490   5.497   7.207 -0.2352 -0.0398  0.0079
  899YOPE   C4A13142  10.714   5.376   7.685 -0.1223  0.1257  0.4146
  899YOPE   C1B13143   9.789   5.433   6.387 -0.2032  0.2402 -0.0931
  899YOPE   C2B13144  10.035   5.420   6.843  0.1796  0.0059 -0.2802
  899YOPE   D3B13145  10.012   5.332   7.251 -0.1530  0.0512 -0.0673
  899YOPE   C4B13146  10.142   5.523   7.745  0.1403 -0.2428  0.2769
  900YOPE   NH313147   5.807   1.643   5.784  0.1456 -0.0287 -0.1393
  900YOPE   PO413148   6.063   1.298   5.651  0.1114  0.0693 -0.1509
  900YOPE   GL113149   6.210   1.181   6.049  0.2103 -0.0832  0.0355
  900YOPE   GL213150   6.446   1.487   6.120  0.2430  0.0346 -0.2607
  900YOPE   C1A13151   6.386   1.024   6.384 -0.4996 -0.1461 -0.1313
  900YOPE   D2A13152   6.273   0.796   6.653  0.1843  0.1859  0.2668
  900YOPE   C3A13153   5.877   0.866   6.841 -0.2823 -0.3915 -0.1335
  900YOPE   C4A13154   5.562   0.717   7.073  0.3838  0.1565  0.1279
  900YOPE   C1B13155   6.563   1.420   6.625 -0.2110  0.0037  0.2037
  900YOPE   C2B13156   6.764   1.521   6.992 -0.0768 -0.0040  0.2551
  900YOPE   D3B13157   6.732   1.570   7.448 -0.0293 -0.0464 -0.3276
  900YOPE   C4B13158   6.997   1.702   7.786 -0.1278 -0.0682 -0.2756
  901POPC   NC313159  15.101   1.525   5.926 -0.5477  0.1635 -0.1105
  901POPC   PO413160  15.337   1.173   5.812 -0.0031  0.1759 -0.2209
  901POPC   GL113161  15.593   1.105   6.265 -0.1892  0.2422  0.2728
  901POPC   GL213162  15.870   1.252   6.375 -0.3839  0.2597  0.0955
  901POPC   C1A13163  15.349   0.931   6.690  0.0806 -0.0042  0.3896
  901POPC   D2A13164  15.009   1.072   6.858  0.1739  0.5334 -0.1472
  901POPC   C3A13165  14.867   0.757   7.158  0.0251 -0.2579  0.0322
  901POPC   C4A13166  14.435   0.651   7.255 -0.0530 -0.2071 -0.0737
  901POPC   C1B13167  16.022   1.195   6.818  0.1234  0.2522 -0.3057
  901POPC   C2B13168  16.172   1.021   7.261 -0.3829 -0.0208 -0.0679
  901POPC   C3B13169  16.137   1.095   7.684 -0.0254 -0.0476 -0.3377
  901POPC   C4B13170  15.895   1.461   7.720  0.1570  0.2349  0.1480
  902POPC   NC313171  12.680  16.310   5.953  0.0596  0.1726 -0.2288
  902POPC   PO413172  12.624  16.746   6.032 -0.0199 -0.0027  0.0582
  902POPC   GL113173  12.952  16.666   6.313  0.1074 -0.0952 -0.0267
  902POPC   GL213174  13.033  16.378   6.357 -0.1868  0.4428  0.0265
  902POPC   C1A13175  13.024  17.013   6.711  0.0024 -0.1440  0.3021
  902POPC   D2A13176  13.027  17.301   7.048 -0.5382  0.0772 -0.0350
  902POPC   C3A13177  13.120  17.091   7.442 -0.1625 -0.0474 -0.0136
  902POPC   C4A13178  13.391  16.840   7.488 -0.1188  0.2964 -0.0240
  902POPC   C1B13179  12.999  16.535   6.845  0.0591  0.0634  0.1507
  902POPC   C2B13180  12.975  16.609   7.303  0.0878  0.2540 -0.0776
  902POPC   C3B13181  12.873  16.647   7.791 -0.5270  0.3088  0.0822
  902POPC   C4B13182  12.817  16.518   8.204 -0.1518 -0.1352  0.0690
  903POPC   NC313183  14.013  13.677   5.883 -0.0581 -0.0512  0.0895
  903POPC   PO413184  14.121  13.263   5.720  0.1814 -0.1046 -0.1216
  903POPC   GL113185  14.112  13.431   6.266  0.3072 -0.1295  0.2166
  903POPC   GL213186  13.853  13.528   6.461 -0.0050 -0.1622 -0.1870
  903POPC   C1A13187  14.350  13.646   6.649 -0.2834 -0.1086  0.1898
  903POPC   D2A13188  14.684  13.709   6.960  0.0083  0.2882 -0.1370
  903POPC   C3A13189  14.619  14.106   7.264  0.2040  0.5908  0.0992
  903POPC   C4A13190  14.147  14.263   7.280  0.0826  0.1253  0.2185
  903POPC   C1B13191  13.838  13.531   6.959  0.2060 -0.1517  0.0151
  903POPC   C2B13192  13.981  13.301   7.313 -0.1867 -0.0298  0.0088
  903POPC   C3B13193  14.154  13.529   7.695 -0.0116  0.3226  0.0544
  903POPC   C4B13194  14.306  13.569   8.168  0.1031  0.0885 -0.0634
  904POPC   NC313195   5.450  16.998   5.955  0.0583  0.0749  0.0884
  904POPC   PO413196   5.285  17.370   6.057  0.2219 -0.2510 -0.1068
  904POPC   GL113197   5.341  17.313   6.347 -0.0185  0.2680  0.2612
  904POPC   GL213198   5.169  17.028   6.410  0.0516  0.2816  0.0149
  904POPC   C1A13199   5.448  17.422   6.791 -0.3147  0.2911  0.3365
  904POPC   D2A13200   5.321  17.155   7.111  0.1085 -0.1711  0.0252
  904POPC   C3A13201   4.925  16.998   7.057 -0.0418  0.1410 -0.4282
  904POPC   C4A13202   4.623  16.672   7.245 -0.0882  0.0412 -0.1408
  904POPC   C1B13203   5.150  16.714   6.654 -0.2455 -0.0292 -0.1351
  904POPC   C2B13204   5.347  16.364   6.704  0.0229 -0.1411  0.0574
  904POPC   C3B13205   5.308  16.113   7.099 -0.0239 -0.1115 -0.2002
  904POPC   C4B13206   5.654  16.214   7.441  0.0829  0.0117  0.0984
  905POPC   NC313207   6.086  12.966   5.664 -0.2988 -0.3486  0.0474
  905POPC   PO413208   6.459  12.666   5.755 -0.0570  0.1770  0.3800
  905POPC   GL113209   6.415  12.552   6.205  0.2926  0.2300  0.1534
  905POPC   GL213210   6.687  12.333   6.447 -0.2557  0.2537 -0.2286
  905POPC   C1A13211   6.244  12.825   6.504  0.1347 -0.1402  0.0713
  905POPC   D2A13212   5.985  13.020   6.766  0.2585 -0.0652  0.0361
  905POPC   C3A13213   6.275  13.165   7.027  0.0592  0.1450  0.1115
  905POPC   C4A13214   6.455  13.147   7.374 -0.3285  0.1502  0.0326
  905POPC   C1B13215   6.315  12.347   6.663 -0.2478 -0.2121 -0.1774
  905POPC   C2B13216   5.966  12.558   6.831  0.1101  0.0796  0.1985
  905POPC   C3B13217   5.831  12.502   7.237  0.0252  0.0979 -0.2218
  905POPC   C4B13218   5.549  12.256   7.563 -0.2260 -0.1737  0.0401
  906POPC   NC313219  14.222  16.748   5.751  0.1511  0.0776 -0.0284
  906POPC   PO413220  14.165  17.004   6.107 -0.0994 -0.1693 -0.4469
  906POPC   GL113221  14.332  16.744   6.461 -0.2708  0.2557 -0.1377
  906POPC   GL213222  14.600  17.076   6.447  0.0519  0.2048 -0.1549
  906POPC   C1A13223  14.346  16.717   6.918  0.4831 -0.0085  0.0968
  906POPC   D2A13224  14.143  16.299   7.138 -0.0052  0.3176 -0.2194
  906POPC   C3A13225  14.089  16.164   7.630  0.4510 -0.3186 -0.0413
  906POPC   C4A13226  14.278  16.118   8.016 -0.1087 -0.1507  0.1246
  906POPC   C1B13227  14.565  17.196   6.874  0.1768  0.0866 -0.0200
  906POPC   C2B13228  14.590  17.136   7.330  0.0523  0.2387  0.2196
  906POPC   C3B13229  14.661  16.981   7.652  0.1457 -0.0624  0.1794
  906POPC   C4B13230  14.611  17.017   8.082  0.0043  0.3286 -0.3915
  907POPC   NC313231   8.346  16.320   5.765  0.1419  0.0920  0.0153
  907POPC   PO413232   8.746  16.085   5.849  0.0639  0.1223  0.1769
  907POPC   GL113233   8.799  16.387   6.249 -0.0753  0.0042 -0.2494
  907POPC   GL213234   8.897  16.234   6.553  0.0983 -0.0241  0.0141
  907POPC   C1A13235   8.851  16.714   6.534 -0.0269  0.1634  0.2228
  907POPC   D2A13236   8.799  16.772   7.025 -0.0486  0.2255  0.1069
  907POPC   C3A13237   8.875  16.627   7.429 -0.4628  0.2115 -0.0796
  907POPC   C4A13238   9.096  16.660   7.711 -0.0682  0.2280  0.1410
  907POPC   C1B13239   8.819  16.222   6.931 -0.2232 -0.1676  0.1373
  907POPC   C2B13240   8.700  15.996   7.329 -0.2173 -0.0847 -0.0122
  907POPC   C3B13241   8.705  15.656   7.600 -0.0563 -0.3165  0.1074
  907POPC   C4B13242   8.872  15.244   7.718 -0.2612 -0.0900  0.4573
  908POPC   NC313243  15.542   3.753   5.824 -0.0908  0.1040  0.3051
  908POPC   PO413244  15.183   4.082   5.816  0.0764  0.0364  0.1820
  908POPC   GL113245  14.992   4.192   6.105 -0.2662 -0.0376 -0.1503
  908POPC   GL213246  14.790   4.388   6.075  0.0810 -0.1389 -0.1411
  908POPC   C1A13247  15.013   4.510   6.465  0.0502  0.3134  0.1380
  908POPC   D2A13248  15.012   4.890   6.668 -0.0413 -0.4942 -0.2746
  908POPC   C3A13249  15.036   5.029   7.082  0.0036  0.0097  0.2765
  908POPC   C4A13250  14.654   4.967   7.326 -0.0990  0.3962 -0.2063
  908POPC   C1B13251  14.598   4.228   6.409  0.0621 -0.3486 -0.3659
  908POPC   C2B13252  14.518   3.870   6.718  0.1403  0.0117 -0.2312
  908POPC   C3B13253  14.276   3.666   7.045 -0.1438 -0.0294 -0.0257
  908POPC   C4B13254  14.296   3.528   7.442 -0.0685 -0.1667 -0.0169
  909POPC   NC313255  12.362  14.912   6.279 -0.1854  0.3803  0.0037
  909POPC   PO413256  12.015  14.684   6.348 -0.0429 -0.0947  0.0788
  909POPC   GL113257  12.075  14.506   6.708  0.0861 -0.1810  0.2088
  909POPC   GL213258  12.000  14.180   6.661  0.1194 -0.2170  0.0455
  909POPC   C1A13259  12.196  14.524   7.132  0.1380 -0.0343  0.1763
  909POPC   D2A13260  12.542  14.424   7.420 -0.0685  0.1806  0.0421
  909POPC   C3A13261  12.911  14.198   7.340 -0.0230  0.2463 -0.0364
  909POPC   C4A13262  13.245  14.170   7.664  0.1304 -0.2365 -0.0735
  909POPC   C1B13263  11.777  13.911   6.938  0.1902  0.0290  0.2828
  909POPC   C2B13264  11.810  13.645   7.320 -0.3798  0.2606 -0.2023
  909POPC   C3B13265  11.747  13.713   7.693 -0.0859 -0.4744 -0.0453
  909POPC   C4B13266  11.777  14.129   7.919  0.1472 -0.1497  0.3302
  910POPC   NC313267   7.504  12.727   5.563  0.1783  0.0406  0.1529
  910POPC   PO413268   7.088  12.791   5.599  0.1648  0.1670 -0.1461
  910POPC   GL113269   7.215  12.886   6.007  0.0834 -0.0256 -0.0366
  910POPC   GL213270   7.134  13.121   6.152 -0.1850  0.1498  0.0206
  910POPC   C1A13271   7.453  12.823   6.467  0.2759  0.1790 -0.0496
  910POPC   D2A13272   7.607  12.866   6.794  0.0232  0.4097 -0.0783
  910POPC   C3A13273   7.420  12.878   7.249 -0.3391  0.3968 -0.2366
  910POPC   C4A13274   7.158  12.810   7.653 -0.0866 -0.0289 -0.0489
  910POPC   C1B13275   6.872  12.799   6.395  0.0805  0.2616  0.2155
  910POPC   C2B13276   6.623  12.755   6.808  0.0892 -0.1369 -0.0631
  910POPC   C3B13277   6.369  12.719   7.070  0.2587  0.0034 -0.3956
  910POPC   C4B13278   6.100  12.847   7.453 -0.0173  0.2122 -0.0799
  911POPC   NC313279  16.915   3.965   5.727 -0.0441 -0.0997  0.4300
  911POPC   PO413280  17.356   3.994   5.809  0.1352  0.2026  0.0240
  911POPC   GL113281  17.468   4.175   6.208  0.0054  0.2215 -0.0152
  911POPC   GL213282  17.838   4.192   6.504 -0.0155  0.3312  0.1220
  911POPC   C1A13283  17.382   4.432   6.628  0.2314  0.3739  0.2199
  911POPC   D2A13284  17.610   4.460   6.873 -0.2356 -0.0408  0.0682
  911POPC   C3A13285  17.767   4.172   7.106  0.2801  0.1811  0.1950
  911POPC   C4A13286  17.797   4.218   7.499 -0.1552  0.0784 -0.1015
  911POPC   C1B13287  17.447   3.935   6.686 -0.1065  0.1281  0.1156
  911POPC   C2B13288  17.076   4.133   6.890 -0.1432 -0.0574  0.0126
  911POPC   C3B13289  17.287   4.290   7.306  0.0221 -0.0635  0.1179
  911POPC   C4B13290  17.247   4.689   7.623  0.0254  0.0464  0.0108
  912POPC   NC313291   0.389   0.935   5.978  0.1605  0.0227  0.0424
  912POPC   PO413292   0.023   0.766   6.137  0.1552 -0.2179  0.3299
  912POPC   GL113293   0.060   0.973   6.561  0.0880 -0.1724  0.4360
  912POPC   GL213294   0.262   1.190   6.493 -0.2169  0.1795  0.1312
  912POPC   C1A13295  -0.113   1.064   6.940 -0.1846  0.1404  0.1754
  912POPC   D2A13296  -0.276   1.090   7.313 -0.1659  0.0401 -0.1508
  912POPC   C3A13297  -0.007   1.420   7.424 -0.0909  0.0168  0.0261
  912POPC   C4A13298   0.523   1.486   7.495  0.2531 -0.1912  0.0006
  912POPC   C1B13299   0.435   1.431   6.592  0.0150 -0.0539 -0.0920
  912POPC   C2B13300   0.684   1.692   6.923 -0.0048  0.2676  0.2439
  912POPC   C3B13301   0.890   1.793   7.199  0.0450 -0.1933 -0.2537
  912POPC   C4B13302   0.987   1.846   7.582  0.1613  0.1911  0.1578
  913POPC   NC313303  15.666  15.049   5.847  0.0268  0.2112 -0.1523
  913POPC   PO413304  15.103  15.104   5.890 -0.2442  0.0600 -0.0540
  913POPC   GL113305  14.970  14.945   6.262 -0.2337 -0.1880 -0.1718
  913POPC   GL213306  14.979  14.642   6.411 -0.2196 -0.2898  0.2461
  913POPC   C1A13307  14.824  14.970   6.777  0.1074 -0.3284  0.0239
  913POPC   D2A13308  14.775  15.022   7.112  0.1026 -0.2148  0.0983
  913POPC   C3A13309  14.812  15.327   7.462 -0.1792  0.0993 -0.3274
  913POPC   C4A13310  14.956  15.299   7.955 -0.3122  0.3915  0.1318
  913POPC   C1B13311  14.840  14.493   6.681  0.1528 -0.0279 -0.0813
  913POPC   C2B13312  14.982  14.540   7.166 -0.0350 -0.0479 -0.0061
  913POPC   C3B13313  15.120  14.507   7.490  0.0716  0.0653 -0.4458
  913POPC   C4B13314  15.415  14.620   7.880 -0.0217  0.1146  0.0732
  914POPC   NC313315  16.375   4.024   6.216 -0.5005  0.0986  0.0542
  914POPC   PO413316  16.013   3.685   6.233 -0.2129 -0.2873  0.2065
  914POPC   GL113317  15.967   3.531   6.695  0.2839  0.0341  0.0479
  914POPC   GL213318  15.831   3.198   6.680 -0.0617  0.0109  0.1339
  914POPC   C1A13319  15.900   3.496   7.138 -0.0817  0.1541  0.1376
  914POPC   D2A13320  15.835   3.806   7.409  0.1242 -0.0341  0.0314
  914POPC   C3A13321  15.548   3.643   7.623  0.0494 -0.0311 -0.1247
  914POPC   C4A13322  15.285   3.654   7.957  0.2730  0.0120  0.1555
  914POPC   C1B13323  16.153   3.073   6.871  0.2390 -0.0138 -0.0760
  914POPC   C2B13324  16.486   2.857   7.069  0.2990 -0.1219 -0.2256
  914POPC   C3B13325  16.645   2.807   7.446 -0.3170 -0.0242  0.2533
  914POPC   C4B13326  16.954   2.752   7.738 -0.1048  0.0255  0.1249
  915POPC   NC313327   7.257   0.860   5.662  0.0949 -0.3327  0.1574
  915POPC   PO413328   7.388   1.264   5.806  0.1385 -0.3150 -0.4390
  915POPC   GL113329   7.395   1.133   6.241  0.0285 -0.2794 -0.1515
  915POPC   GL213330   7.293   0.957   6.157 -0.1293 -0.2271 -0.1363
  915POPC   C1A13331   7.404   0.845   6.697  0.0244 -0.1150  0.0942
  915POPC   D2A13332   7.118   0.513   6.828  0.1488 -0.2522 -0.1258
  915POPC   C3A13333   7.089   0.287   7.176  0.0593  0.1889 -0.0704
  915POPC   C4A13334   7.471   0.078   7.184  0.1371 -0.1279 -0.3537
  915POPC   C1B13335   6.939   0.971   6.594 -0.0079  0.1032 -0.1270
  915POPC   C2B13336   6.678   1.000   6.904 -0.1101 -0.0282  0.0007
  915POPC   C3B13337   6.639   1.068   7.263 -0.2330  0.2618  0.1974
  915POPC   C4B13338   6.948   1.126   7.622 -0.2813 -0.3935  0.1227
  916POPC   NC313339  16.656   8.297   5.834  0.2203 -0.0673  0.0872
  916POPC   PO413340  16.990   7.966   5.945 -0.0057 -0.0499  0.1019
  916POPC   GL113341  17.084   7.858   6.344 -0.1063  0.1606  0.0488
  916POPC   GL213342  17.232   8.147   6.581  0.1200  0.0447  0.0103
  916POPC   C1A13343  16.964   7.365   6.569 -0.1624 -0.0321  0.0277
  916POPC   D2A13344  17.255   7.043   6.660  0.1223  0.1378 -0.0611
  916POPC   C3A13345  17.417   6.889   7.054 -0.0533  0.1046 -0.0040
  916POPC   C4A13346  17.238   6.942   7.487 -0.1813 -0.1547 -0.2481
  916POPC   C1B13347  17.380   7.683   6.735 -0.1504  0.1711  0.3052
  916POPC   C2B13348  17.354   7.427   7.032 -0.1648  0.2351  0.1461
  916POPC   C3B13349  17.048   7.183   7.104 -0.3194  0.1463  0.0889
  916POPC   C4B13350  16.656   7.015   6.927  0.0880  0.0962 -0.1880
  917POPC   NC313351   8.799   2.460   6.006 -0.0321 -0.0273 -0.3093
  917POPC   PO413352   8.605   2.147   6.038  0.1054 -0.0188  0.3635
  917POPC   GL113353   8.856   2.015   6.280  0.1847 -0.1893  0.1711
  917POPC   GL213354   9.212   1.836   6.298  0.0058 -0.1308  0.4755
  917POPC   C1A13355   9.020   2.146   6.668 -0.0323  0.2788  0.1124
  917POPC   D2A13356   8.879   2.279   7.085 -0.0262 -0.1613 -0.0546
  917POPC   C3A13357   8.962   2.621   7.084  0.1168  0.1372 -0.0523
  917POPC   C4A13358   9.174   2.645   7.386 -0.3469 -0.1307 -0.1952
  917POPC   C1B13359   9.108   1.660   6.727 -0.0890 -0.0551 -0.4294
  917POPC   C2B13360   9.238   1.903   7.114  0.1706  0.0253 -0.0893
  917POPC   C3B13361   9.181   2.098   7.418 -0.0586  0.0319 -0.2001
  917POPC   C4B13362   9.415   2.458   7.782  0.1170  0.3013 -0.0910
  918POPC   NC313363  14.223   5.191   5.654 -0.0766 -0.0189 -0.0130
  918POPC   PO413364  13.749   5.110   5.707  0.0697 -0.1163 -0.0235
  918POPC   GL113365  13.892   5.255   6.047 -0.0481 -0.0249 -0.1900
  918POPC   GL213366  14.107   5.179   6.194 -0.2172  0.4810  0.1121
  918POPC   C1A13367  13.834   5.390   6.508  0.1080  0.2337  0.2755
  918POPC   D2A13368  13.972   5.454   6.843 -0.4264  0.1725  0.4823
  918POPC   C3A13369  14.080   5.614   7.301  0.0588  0.0951  0.2263
  918POPC   C4A13370  14.150   5.509   7.770  0.1084 -0.0018  0.0080
  918POPC   C1B13371  14.196   5.048   6.548 -0.0703  0.1475 -0.3464
  918POPC   C2B13372  14.157   5.025   7.030  0.0715 -0.1750 -0.2138
  918POPC   C3B13373  14.114   5.101   7.447 -0.0588  0.1351  0.4911
  918POPC   C4B13374  13.995   5.034   7.774  0.2743 -0.2337 -0.0012
  919POPC   NC313375  11.420  11.935   5.765  0.2468  0.0113 -0.2260
  919POPC   PO413376  10.949  11.964   5.849  0.1627 -0.0854  0.0165
  919POPC   GL113377  10.759  12.044   6.255  0.1344  0.0252  0.2963
  919POPC   GL213378  10.602  11.737   6.304  0.1527 -0.2316  0.2725
  919POPC   C1A13379  10.786  12.253   6.620 -0.4267  0.0714 -0.2345
  919POPC   D2A13380  10.549  12.221   6.986 -0.0751 -0.2692 -0.0993
  919POPC   C3A13381  10.341  11.923   7.121 -0.0742  0.1045 -0.2105
  919POPC   C4A13382  10.250  11.802   7.605  0.3053  0.1198 -0.1576
  919POPC   C1B13383  10.609  11.677   6.767  0.0253  0.0488 -0.2007
  919POPC   C2B13384  10.499  11.359   7.026  0.0185 -0.1477 -0.2775
  919POPC   C3B13385  10.384  11.275   7.460 -0.1233 -0.1522  0.3966
  919POPC   C4B13386  10.430  11.022   7.765  0.0535 -0.2028  0.1455
  920POPC   NC313387   9.743   0.821   5.908 -0.0627 -0.1554 -0.1198
  920POPC   PO413388  10.201   0.721   5.908  0.0966 -0.1109 -0.0863
  920POPC   GL113389  10.037   0.628   6.363 -0.0707 -0.1141  0.1540
  920POPC   GL213390   9.986   0.289   6.463 -0.1549  0.0931  0.0164
  920POPC   C1A13391  10.045   0.712   6.723 -0.3767 -0.1874 -0.1055
  920POPC   D2A13392  10.128   0.815   7.154  0.3475 -0.0156 -0.2667
  920POPC   C3A13393  10.521   0.760   7.463  0.1348 -0.2127  0.0398
  920POPC   C4A13394  10.858   0.674   7.699  0.2454  0.0200  0.1424
  920POPC   C1B13395   9.992   0.171   6.882 -0.1043 -0.0898  0.1549
  920POPC   C2B13396  10.239   0.277   7.222 -0.2852  0.0446 -0.0270
  920POPC   C3B13397  10.364   0.240   7.626  0.2570  0.1875  0.0538
  920POPC   C4B13398  10.512   0.199   8.142 -0.0597  0.3493  0.0240
  921POPC   NC313399   0.611  12.230   6.036 -0.0332  0.3301 -0.4828
  921POPC   PO413400   0.312  12.273   6.401  0.2627  0.0487  0.1755
  921POPC   GL113401   0.365  12.140   6.902  0.3154 -0.1290  0.1379
  921POPC   GL213402   0.247  11.847   6.789 -0.1289  0.0606 -0.2139
  921POPC   C1A13403   0.545  11.986   7.282 -0.0952  0.1440 -0.0026
  921POPC   D2A13404   0.765  11.886   7.618 -0.1698 -0.0410  0.0340
  921POPC   C3A13405   0.808  12.180   7.924 -0.2699 -0.0031 -0.2976
  921POPC   C4A13406   0.837  12.546   8.084 -0.0911  0.0661 -0.0164
  921POPC   C1B13407  -0.033  12.046   7.171 -0.1058  0.2824  0.2406
  921POPC   C2B13408  -0.219  12.213   7.628  0.2051  0.0575  0.3856
  921POPC   C3B13409  -0.110  12.346   8.024 -0.2145  0.1034  0.1900
  921POPC   C4B13410  -0.082  12.158   8.373  0.2260 -0.2799 -0.1674
  922POPC   NC313411  11.150   7.996   5.658 -0.0012 -0.1675  0.3259
  922POPC   PO413412  10.790   8.255   5.488 -0.1085 -0.3029 -0.2326
  922POPC   GL113413  10.647   8.106   5.862  0.1515  0.1107 -0.3554
  922POPC   GL213414  10.661   8.371   6.180 -0.0124 -0.1368  0.1761
  922POPC   C1A13415  10.586   7.792   6.138 -0.0501 -0.2156 -0.2787
  922POPC   D2A13416  10.775   7.504   6.487 -0.1794 -0.1397  0.2501
  922POPC   C3A13417  10.631   7.776   6.829 -0.3798 -0.1939  0.2258
  922POPC   C4A13418  10.698   7.662   7.189  0.2022  0.2072 -0.0694
  922POPC   C1B13419  10.817   8.157   6.503 -0.1697  0.2283 -0.0238
  922POPC   C2B13420  10.929   8.205   6.897  0.0580  0.0325 -0.0548
  922POPC   C3B13421  11.053   8.020   7.196 -0.0776  0.1633  0.0043
  922POPC   C4B13422  11.417   7.967   7.314 -0.0544 -0.2881 -0.0144
  923POPC   NC313423   1.988  15.625   5.673  0.0831 -0.0115 -0.1913
  923POPC   PO413424   1.870  15.830   5.981  0.0233 -0.1943 -0.3558
  923POPC   GL113425   1.620  15.542   6.277 -0.0257  0.1324 -0.0923
  923POPC   GL213426   1.471  15.693   6.562  0.0507 -0.0535  0.1006
  923POPC   C1A13427   1.748  15.247   6.564 -0.2473  0.0364 -0.0304
  923POPC   D2A13428   1.597  14.870   6.739 -0.0383  0.0142 -0.1647
  923POPC   C3A13429   1.855  14.463   6.721 -0.1201 -0.0604  0.0622
  923POPC   C4A13430   2.183  14.461   7.006 -0.0477  0.0973  0.1360
  923POPC   C1B13431   1.636  15.727   6.954 -0.0167  0.1147  0.1326
  923POPC   C2B13432   1.778  15.759   7.367  0.0795  0.4075  0.0049
  923POPC   C3B13433   1.864  15.731   7.860 -0.1827  0.0129  0.1221
  923POPC   C4B13434   1.810  15.431   8.130  0.0498 -0.2860  0.4578
  924POPC   NC313435   7.764  15.820   5.505  0.2857  0.1457 -0.0984
  924POPC   PO413436   7.776  15.590   5.906 -0.2083  0.4147  0.1518
  924POPC   GL113437   7.769  15.529   6.305  0.2597  0.2300  0.0514
  924POPC   GL213438   7.592  15.677   6.513  0.0609 -0.0550 -0.0135
  924POPC   C1A13439   7.848  15.263   6.696 -0.0893  0.0001 -0.2195
  924POPC   D2A13440   8.056  14.993   7.103 -0.0190 -0.1050 -0.1528
  924POPC   C3A13441   8.026  14.482   7.138 -0.1293  0.0994  0.1071
  924POPC   C4A13442   8.099  14.238   6.986  0.1934  0.0342 -0.1101
  924POPC   C1B13443   7.456  15.724   6.893 -0.3199 -0.0667 -0.1449
  924POPC   C2B13444   7.229  15.568   7.299 -0.0861 -0.2757 -0.2797
  924POPC   C3B13445   7.268  15.175   7.630  0.1733  0.1461 -0.2136
  924POPC   C4B13446   7.581  14.814   7.817 -0.0255  0.1951  0.3020
  925POPC   NC313447  14.664   2.442   5.602  0.0241  0.3378  0.3652
  925POPC   PO413448  14.704   2.902   5.624  0.1652  0.1847  0.1861
  925POPC   GL113449  14.704   2.965   6.014 -0.1578  0.2485  0.1127
  925POPC   GL213450  15.025   2.837   6.046 -0.0012 -0.1469 -0.0203
  925POPC   C1A13451  14.716   3.124   6.552 -0.0239  0.1213 -0.3247
  925POPC   D2A13452  14.898   3.020   6.981  0.1110 -0.0665 -0.0858
  925POPC   C3A13453  14.725   2.697   7.201  0.1440 -0.1362 -0.0091
  925POPC   C4A13454  14.811   2.327   7.458 -0.1208  0.1686  0.0524
  925POPC   C1B13455  15.009   2.774   6.496  0.0341  0.1927 -0.0603
  925POPC   C2B13456  15.194   2.609   6.763 -0.1205  0.3395  0.2809
  925POPC   C3B13457  15.184   2.692   7.131  0.3370  0.0152  0.0418
  925POPC   C4B13458  15.076   2.836   7.509 -0.2722 -0.2425 -0.1146
  926POPC   NC313459  16.018   5.833   5.788  0.1440  0.0789 -0.1465
  926POPC   PO413460  16.293   6.192   5.948  0.3548 -0.2247 -0.2131
  926POPC   GL113461  16.623   6.077   6.269 -0.1597 -0.0278 -0.1418
  926POPC   GL213462  16.694   5.703   6.370 -0.1393  0.2853  0.1893
  926POPC   C1A13463  16.765   6.257   6.568 -0.0704 -0.2914  0.2047
  926POPC   D2A13464  16.513   6.461   6.877  0.0433  0.0993  0.0780
  926POPC   C3A13465  16.371   6.376   7.172  0.4323 -0.0889  0.3409
  926POPC   C4A13466  16.372   5.961   7.308 -0.3366  0.4720 -0.3434
  926POPC   C1B13467  16.810   5.369   6.640  0.0290 -0.0472 -0.1011
  926POPC   C2B13468  16.742   5.152   6.974 -0.0261 -0.3386  0.2546
  926POPC   C3B13469  16.613   4.833   7.232 -0.2411  0.0400  0.1900
  926POPC   C4B13470  16.296   4.676   7.457 -0.0261 -0.0402  0.0674
  927POPC   NC313471   3.976  12.387   5.599 -0.1969  0.0803  0.1958
  927POPC   PO413472   3.798  12.591   5.816  0.1411  0.3093  0.2682
  927POPC   GL113473   3.748  12.374   6.104 -0.1373  0.2217 -0.4640
  927POPC   GL213474   4.090  12.285   6.163  0.1208 -0.0965  0.0936
  927POPC   C1A13475   3.658  12.358   6.602 -0.0152  0.1124 -0.1715
  927POPC   D2A13476   3.573  12.232   7.058  0.0407 -0.0230  0.0383
  927POPC   C3A13477   3.468  11.984   7.453  0.0167 -0.2004  0.2655
  927POPC   C4A13478   3.458  12.036   7.855  0.0467 -0.1841  0.1180
  927POPC   C1B13479   4.137  12.317   6.695  0.1772  0.1318  0.1983
  927POPC   C2B13480   3.993  12.561   6.987  0.1308  0.0292 -0.1585
  927POPC   C3B13481   3.786  12.811   7.340 -0.3950  0.0405 -0.1585
  927POPC   C4B13482   3.478  12.934   7.672  0.0903  0.0366  0.0055
  928POPC   NC313483   6.915   0.294   5.365  0.0769 -0.0229 -0.2229
  928POPC   PO413484   6.687   0.588   5.466 -0.1324 -0.2043  0.5387
  928POPC   GL113485   6.909   0.468   5.819 -0.1680  0.1970 -0.0347
  928POPC   GL213486   6.764   0.140   6.061 -0.0869  0.2211 -0.1298
  928POPC   C1A13487   7.229   0.509   6.301 -0.0188 -0.3070  0.0134
  928POPC   D2A13488   7.689   0.518   6.400  0.1395 -0.2401 -0.4411
  928POPC   C3A13489   7.877   0.425   6.748  0.0438  0.2619 -0.0212
  928POPC   C4A13490   7.551   0.584   7.083  0.0286 -0.0795  0.0102
  928POPC   C1B13491   7.035   0.072   6.436  0.0005 -0.1108 -0.0475
  928POPC   C2B13492   7.420   0.113   6.703  0.0507  0.1367  0.1864
  928POPC   C3B13493   7.616  -0.296   6.813 -0.0220  0.0397  0.3413
  928POPC   C4B13494   7.574  -0.641   6.713 -0.3986 -0.2245  0.2654
  929POPC   NC313495   3.481   5.231   5.551  0.0682 -0.2704  0.0084
  929POPC   PO413496   3.073   5.356   5.523  0.0423 -0.2846 -0.0776
  929POPC   GL113497   2.595   5.484   5.833 -0.0829  0.0022 -0.3932
  929POPC   GL213498   2.454   5.769   5.928  0.4335 -0.0423 -0.0616
  929POPC   C1A13499   2.517   5.530   6.351  0.3436 -0.0021  0.0291
  929POPC   D2A13500   2.682   5.479   6.787 -0.4745  0.0326 -0.0744
  929POPC   C3A13501   2.564   5.642   7.317 -0.1623 -0.0538 -0.0822
  929POPC   C4A13502   2.379   5.857   7.654 -0.1190 -0.3188 -0.1878
  929POPC   C1B13503   2.122   5.462   6.063 -0.3291 -0.0565  0.2028
  929POPC   C2B13504   2.032   5.445   6.471 -0.0709 -0.0381 -0.0889
  929POPC   C3B13505   2.089   5.458   6.930  0.2124 -0.1958 -0.0727
  929POPC   C4B13506   1.920   5.523   7.347  0.0176  0.0222  0.0597
  930POPC   NC313507   4.335   5.778   5.430 -0.0026  0.2164  0.0474
  930POPC   PO413508   4.291   6.064   5.704 -0.1922  0.0665  0.5594
  930POPC   GL113509   4.306   5.938   6.178  0.0696 -0.0807 -0.1303
  930POPC   GL213510   4.248   5.621   6.294 -0.2568 -0.0493  0.0713
  930POPC   C1A13511   4.562   6.062   6.593  0.0480  0.0944 -0.1674
  930POPC   D2A13512   4.736   5.915   6.969  0.0420 -0.0750  0.0840
  930POPC   C3A13513   5.036   6.156   7.064  0.0375  0.0656  0.1558
  930POPC   C4A13514   5.440   6.179   7.225 -0.0662 -0.0849 -0.2398
  930POPC   C1B13515   4.569   5.526   6.701  0.2230 -0.3793 -0.1897
  930POPC   C2B13516   4.789   5.317   6.919 -0.1026  0.1858  0.2094
  930POPC   C3B13517   4.746   5.467   7.390  0.0764 -0.2564  0.0194
  930POPC   C4B13518   4.759   5.961   7.421 -0.2114  0.2622  0.1842
  931POPC   NC313519   2.626   1.890   5.481  0.4774  0.1013  0.3561
  931POPC   PO413520   2.918   2.020   5.655  0.0447 -0.0711  0.0092
  931POPC   GL113521   2.972   2.163   6.175 -0.1017  0.1637  0.0959
  931POPC   GL213522   3.182   2.288   6.318  0.0472 -0.0855  0.0326
  931POPC   C1A13523   2.851   2.186   6.666  0.2018  0.0168  0.0073
  931POPC   D2A13524   2.687   2.124   7.061 -0.0606 -0.1339 -0.3153
  931POPC   C3A13525   2.879   1.823   7.424 -0.0273 -0.2455  0.0254
  931POPC   C4A13526   3.211   1.685   7.617 -0.2425  0.0175  0.2303
  931POPC   C1B13527   3.563   2.408   6.604 -0.1275  0.1234  0.2160
  931POPC   C2B13528   3.623   2.394   7.050  0.0850  0.1055  0.0471
  931POPC   C3B13529   3.971   2.350   7.363 -0.0883  0.0643  0.2992
  931POPC   C4B13530   4.078   2.125   7.723 -0.0999  0.0381  0.0041
  932POPC   NC313531  13.646   0.274   5.946 -0.0494 -0.0342  0.4062
  932POPC   PO413532  14.022   0.484   6.082 -0.3151  0.2515 -0.3491
  932POPC   GL113533  14.212   0.546   6.448  0.0459  0.0654  0.0689
  932POPC   GL213534  14.024   0.835   6.580  0.0172  0.1013  0.1526
  932POPC   C1A13535  14.239   0.390   6.911 -0.1706 -0.0578  0.1467
  932POPC   D2A13536  14.372   0.131   7.221  0.0797  0.0591  0.1716
  932POPC   C3A13537  14.339  -0.205   7.404 -0.1690  0.1806  0.1066
  932POPC   C4A13538  14.397  -0.621   7.363 -0.0988 -0.0048  0.2441
  932POPC   C1B13539  13.822   0.573   6.937  0.1561  0.2064  0.1545
  932POPC   C2B13540  13.922   0.510   7.419 -0.1104 -0.0517  0.3561
  932POPC   C3B13541  14.230   0.328   7.708  0.1183  0.2780 -0.4220
  932POPC   C4B13542  14.383   0.061   8.104 -0.0971 -0.0218 -0.0674
  933POPC   NC313543   7.928  14.157   5.853  0.2472  0.1151 -0.1725
  933POPC   PO413544   8.058  13.860   5.566 -0.2039  0.4135  0.1206
  933POPC   GL113545   8.329  13.822   6.012 -0.0016 -0.0520 -0.3817
  933POPC   GL213546   7.986  13.825   6.236  0.1372  0.0976  0.0826
  933POPC   C1A13547   8.402  13.996   6.486 -0.1538  0.0181  0.0399
  933POPC   D2A13548   8.480  13.945   6.917  0.0147  0.1704  0.0725
  933POPC   C3A13549   8.531  14.279   7.201 -0.2512  0.1482 -0.0822
  933POPC   C4A13550   8.620  14.437   7.594 -0.1663 -0.3338  0.2608
  933POPC   C1B13551   7.968  13.773   6.666  0.1482 -0.1928  0.4186
  933POPC   C2B13552   7.646  13.828   6.987 -0.3620  0.2273  0.1622
  933POPC   C3B13553   7.693  13.907   7.406 -0.0851  0.1732 -0.0903
  933POPC   C4B13554   7.763  13.647   7.741 -0.2331 -0.0907  0.0364
  934POPC   NC313555   0.727   6.928   5.976  0.5708 -0.2119 -0.2826
  934POPC   PO413556   0.780   6.492   5.937 -0.1400  0.2351  0.3457
  934POPC   GL113557   0.668   6.536   6.450  0.1377 -0.2235  0.1956
  934POPC   GL213558   0.489   6.325   6.455 -0.1506  0.5336 -0.1557
  934POPC   C1A13559   0.763   6.453   6.944 -0.0538 -0.1387  0.1087
  934POPC   D2A13560   0.899   6.374   7.397 -0.1008 -0.1645 -0.1840
  934POPC   C3A13561   0.781   6.307   7.827  0.1204  0.0655 -0.0089
  934POPC   C4A13562   0.622   6.321   8.303 -0.0568 -0.2192 -0.1045
  934POPC   C1B13563   0.965   6.069   6.399  0.2456 -0.2477  0.4449
  934POPC   C2B13564   1.327   5.954   6.309 -0.0343  0.3212  0.1528
  934POPC   C3B13565   1.635   6.007   6.470 -0.1381  0.1327  0.0223
  934POPC   C4B13566   1.891   5.960   6.766  0.3477 -0.1248  0.1050
  935POPC   NC313567   6.795  12.336   5.539  0.0258  0.0844 -0.1795
  935POPC   PO413568   7.177  12.069   5.887  0.0233 -0.0442 -0.0379
  935POPC   GL113569   7.012  12.008   6.246  0.1372 -0.0146  0.2133
  935POPC   GL213570   6.764  11.785   6.381 -0.1007 -0.3572 -0.0165
  935POPC   C1A13571   7.074  11.966   6.726  0.4212 -0.0132 -0.1197
  935POPC   D2A13572   7.427  12.027   7.154  0.3058  0.0224  0.2143
  935POPC   C3A13573   7.404  11.805   7.551  0.1320  0.2082  0.1313
  935POPC   C4A13574   7.366  11.498   7.922  0.0621  0.1037  0.0472
  935POPC   C1B13575   6.579  11.781   6.871 -0.0677  0.0310  0.2535
  935POPC   C2B13576   6.421  11.762   7.350 -0.0534  0.0675 -0.1535
  935POPC   C3B13577   6.387  11.459   7.478  0.2809 -0.0919  0.0282
  935POPC   C4B13578   6.504  11.026   7.399  0.1520 -0.0309 -0.0818
  936POPC   NC313579   4.704   8.827   5.662 -0.2454  0.2562 -0.0379
  936POPC   PO413580   4.664   8.568   6.040  0.0859  0.1676  0.1841
  936POPC   GL113581   4.721   8.678   6.356 -0.0304 -0.0964  0.1654
  936POPC   GL213582   5.058   8.574   6.340  0.3687  0.1147  0.1570
  936POPC   C1A13583   4.570   8.749   6.844  0.5631 -0.0942  0.0257
  936POPC   D2A13584   4.391   8.755   7.250  0.1173 -0.2180 -0.3331
  936POPC   C3A13585   4.142   8.382   7.452 -0.2226  0.0485  0.1180
  936POPC   C4A13586   4.175   7.971   7.560  0.1392  0.0236  0.1735
  936POPC   C1B13587   5.007   8.554   6.729 -0.0657 -0.1332  0.0600
  936POPC   C2B13588   4.921   8.597   7.202 -0.0446  0.0252 -0.1820
  936POPC   C3B13589   4.671   8.745   7.628  0.0677 -0.0938  0.3733
  936POPC   C4B13590   4.675   8.766   8.151  0.1191  0.1039 -0.2053
  937POPC   NC313591  15.102  17.198   5.774  0.0106  0.2750  0.3014
  937POPC   PO413592  15.041  17.041   6.190  0.2150 -0.0244  0.3054
  937POPC   GL113593  15.075  16.751   6.441 -0.0134 -0.2010 -0.1092
  937POPC   GL213594  14.878  16.761   6.685 -0.0030  0.1091 -0.1070
  937POPC   C1A13595  15.231  16.488   6.870  0.0057  0.1284 -0.0893
  937POPC   D2A13596  15.322  16.461   7.203  0.1362  0.0556 -0.4345
  937POPC   C3A13597  15.022  16.537   7.433 -0.1608  0.0265 -0.1228
  937POPC   C4A13598  15.065  16.702   7.880 -0.2498  0.5159  0.1542
  937POPC   C1B13599  14.785  16.779   7.075 -0.1731 -0.1717 -0.0316
  937POPC   C2B13600  14.531  16.612   7.356 -0.0482  0.1977  0.1126
  937POPC   C3B13601  14.425  16.635   7.879 -0.2746  0.1416  0.2825
  937POPC   C4B13602  14.132  16.837   8.220  0.0394 -0.5355  0.2626
  938POPC   NC313603  16.576   2.582   6.047  0.0822  0.0777 -0.2673
  938POPC   PO413604  16.795   2.209   6.064  0.0164 -0.0256  0.1320
  938POPC   GL113605  16.679   2.068   6.381 -0.3131 -0.0999 -0.2900
  938POPC   GL213606  16.741   2.407   6.498  0.0771 -0.0353  0.1406
  938POPC   C1A13607  16.794   1.913   6.835 -0.2179  0.2181  0.1435
  938POPC   D2A13608  16.944   1.536   7.035 -0.2703 -0.1350  0.1277
  938POPC   C3A13609  17.351   1.480   6.980 -0.1639  0.1749  0.2942
  938POPC   C4A13610  17.590   1.160   6.972 -0.5140  0.1782  0.3457
  938POPC   C1B13611  16.707   2.370   6.930 -0.1186  0.0762  0.0018
  938POPC   C2B13612  16.840   2.288   7.236  0.1513 -0.1158  0.0206
  938POPC   C3B13613  16.936   2.183   7.661  0.0581 -0.5188 -0.0707
  938POPC   C4B13614  16.993   2.414   8.156 -0.5562  0.2569 -0.0039
  939POPC   NC313615   1.950  14.386   6.079 -0.0626  0.0884  0.0038
  939POPC   PO413616   2.200  14.055   6.161  0.2116 -0.2244  0.2026
  939POPC   GL113617   1.967  13.810   6.473 -0.0640  0.0141 -0.0742
  939POPC   GL213618   1.698  13.609   6.433  0.3403 -0.1313 -0.0177
  939POPC   C1A13619   1.884  13.956   6.851 -0.1592 -0.1567  0.1376
  939POPC   D2A13620   2.026  13.936   7.172 -0.0757 -0.1200  0.0094
  939POPC   C3A13621   1.797  14.056   7.503 -0.1269  0.5715  0.1503
  939POPC   C4A13622   1.771  14.401   7.736 -0.1120 -0.0088 -0.3474
  939POPC   C1B13623   1.535  13.549   6.834  0.0271 -0.1017  0.1714
  939POPC   C2B13624   1.360  13.292   7.190  0.0348  0.0878 -0.0213
  939POPC   C3B13625   1.472  13.086   7.565  0.1268 -0.1791 -0.0238
  939POPC   C4B13626   1.636  12.891   7.878  0.2010  0.0791 -0.0484
  940POPC   NC313627  17.230   2.215   6.338  0.0694 -0.0717 -0.1286
  940POPC   PO413628  17.602   2.041   6.266 -0.2022 -0.0033 -0.0129
  940POPC   GL113629  17.931   1.962   6.588 -0.1362  0.1522  0.0943
  940POPC   GL213630  17.765   2.116   6.738  0.2469 -0.2454  0.2082
  940POPC   C1A13631  18.303   1.833   6.703 -0.2480  0.0201 -0.0866
  940POPC   D2A13632  18.399   1.626   7.020  0.3122 -0.2075  0.2297
  940POPC   C3A13633  18.619   1.218   7.068 -0.1234  0.1183 -0.3532
  940POPC   C4A13634  18.650   0.727   7.062 -0.1112 -0.0121  0.1195
  940POPC   C1B13635  17.809   1.849   7.158  0.3415 -0.1255 -0.1047
  940POPC   C2B13636  17.750   1.596   7.498  0.1758 -0.1051 -0.1289
  940POPC   C3B13637  17.507   1.255   7.516  0.1746  0.2245  0.0534
  940POPC   C4B13638  17.025   1.251   7.462  0.3213 -0.0112  0.2388
  941YOPC   NC313639   7.369   2.504   6.070 -0.2456 -0.3245 -0.0771
  941YOPC   PO413640   7.758   2.473   6.380 -0.2188  0.1587 -0.0700
  941YOPC   GL113641   7.997   2.557   6.757  0.0292 -0.3359 -0.4828
  941YOPC   GL213642   7.984   2.410   7.036 -0.2620  0.2189 -0.1385
  941YOPC   C1A13643   8.019   2.923   6.925 -0.3361  0.1500  0.0360
  941YOPC   D2A13644   8.280   3.000   7.197  0.1620  0.0404  0.0412
  941YOPC   C3A13645   8.068   3.147   7.533  0.0635  0.0323  0.0311
  941YOPC   C4A13646   7.863   3.505   7.760  0.2974  0.2910 -0.2825
  941YOPC   C1B13647   7.864   2.213   7.506 -0.3031  0.0081 -0.0388
  941YOPC   C2B13648   7.975   2.193   7.890 -0.0664  0.3420 -0.1136
  941YOPC   D3B13649   8.181   2.236   8.224 -0.0048 -0.0141 -0.0933
  941YOPC   C4B13650   8.370   2.073   8.553  0.1574 -0.1575  0.2890
  942YOPC   NC313651  12.978   6.867   5.233  0.0885  0.2015 -0.0732
  942YOPC   PO413652  13.080   6.858   5.620  0.0932  0.2547 -0.1486
  942YOPC   GL113653  13.282   7.177   5.867  0.0745 -0.0889  0.0219
  942YOPC   GL213654  13.711   7.131   5.913 -0.0073 -0.3457 -0.4193
  942YOPC   C1A13655  13.117   7.157   6.343  0.0516  0.0909 -0.2770
  942YOPC   D2A13656  12.778   7.031   6.529  0.0871 -0.0538  0.2189
  942YOPC   C3A13657  12.948   7.041   6.897  0.3485 -0.2556 -0.0891
  942YOPC   C4A13658  12.829   7.082   7.198 -0.0800  0.1637  0.2313
  942YOPC   C1B13659  13.534   6.920   6.273 -0.0086  0.1249  0.0178
  942YOPC   C2B13660  13.616   6.745   6.646 -0.1371 -0.2551  0.0388
  942YOPC   D3B13661  13.377   6.734   6.990  0.1357  0.1782 -0.1719
  942YOPC   C4B13662  13.075   6.678   7.317  0.1589 -0.0387  0.0851
  943YOPC   NC313663   0.561  16.490   6.143  0.1376  0.1541  0.0399
  943YOPC   PO413664   0.944  16.353   6.148 -0.0834 -0.1416 -0.1050
  943YOPC   GL113665   0.866  16.126   6.468 -0.0926  0.1117 -0.1479
  943YOPC   GL213666   0.934  15.813   6.467  0.1477  0.2441  0.0507
  943YOPC   C1A13667   1.009  16.198   6.959 -0.1435 -0.0580  0.0541
  943YOPC   D2A13668   1.242  16.429   7.250  0.2348  0.1044  0.0554
  943YOPC   C3A13669   1.180  16.648   7.579 -0.0738  0.3377 -0.0441
  943YOPC   C4A13670   0.860  16.874   7.831 -0.0804  0.1051  0.0533
  943YOPC   C1B13671   1.038  15.743   6.859  0.2365 -0.0630  0.1532
  943YOPC   C2B13672   1.306  15.879   7.259 -0.2125 -0.6180  0.0256
  943YOPC   D3B13673   1.371  15.733   7.699 -0.0382 -0.0926 -0.2324
  943YOPC   C4B13674   1.564  15.323   7.739  0.1571 -0.0620 -0.0158
  944YOPC   NC313675  12.668  17.177   5.691 -0.2861  0.0523 -0.0545
  944YOPC   PO413676  12.684  17.667   5.777 -0.2080 -0.1133  0.0452
  944YOPC   GL113677  13.014  17.398   6.024  0.5294  0.2510  0.0931
  944YOPC   GL213678  12.708  17.215   6.213  0.0811  0.2194 -0.3568
  944YOPC   C1A13679  13.262  17.195   6.350 -0.0229 -0.0202 -0.2488
  944YOPC   D2A13680  13.458  16.832   6.383 -0.1030 -0.1954  0.2048
  944YOPC   C3A13681  13.508  16.767   6.724  0.0864  0.2111 -0.3154
  944YOPC   C4A13682  13.366  16.894   7.035 -0.1557  0.0127 -0.1147
  944YOPC   C1B13683  12.579  17.414   6.603 -0.2145  0.3083  0.0480
  944YOPC   C2B13684  12.545  17.561   7.063 -0.0218 -0.0661  0.0476
  944YOPC   D3B13685  12.242  17.447   7.160 -0.0137 -0.0285 -0.2506
  944YOPC   C4B13686  11.874  17.257   7.518 -0.1312 -0.2939  0.2883
  945YOPC   NC313687   3.601   1.759   5.200 -0.1496  0.2922 -0.2768
  945YOPC   PO413688   3.624   1.569   5.691 -0.3673 -0.0275 -0.1775
  945YOPC   GL113689   3.582   1.701   6.159  0.2330  0.0552 -0.2504
  945YOPC   GL213690   3.799   1.602   6.399  0.0136  0.1225  0.1675
  945YOPC   C1A13691   3.084   1.735   6.322 -0.0314 -0.0820  0.0477
  945YOPC   D2A13692   2.857   1.693   6.598  0.0047 -0.2166  0.0292
  945YOPC   C3A13693   2.840   1.645   6.978  0.0783  0.0348  0.0564
  945YOPC   C4A13694   2.869   1.303   7.152 -0.2689 -0.2333  0.0031
  945YOPC   C1B13695   3.839   1.552   6.766  0.0656  0.1020 -0.7592
  945YOPC   C2B13696   3.832   1.337   7.189  0.1418 -0.0330 -0.2297
  945YOPC   D3B13697   4.157   0.866   7.170  0.1749  0.0339 -0.0960
  945YOPC   C4B13698   4.192   0.558   6.930 -0.0758 -0.1858 -0.0012
  946YOPC   NC313699   7.400   8.386   5.310  0.1980 -0.0914  0.2892
  946YOPC   PO413700   7.842   8.517   5.467  0.0684  0.1398 -0.2421
  946YOPC   GL113701   7.884   8.569   5.925  0.0587 -0.1541 -0.2979
  946YOPC   GL213702   7.712   8.888   5.902  0.1987 -0.1534  0.3031
  946YOPC   C1A13703   7.579   8.562   6.331 -0.1593 -0.1715  0.1140
  946YOPC   D2A13704   7.650   8.551   6.675  0.0330 -0.1372  0.0381
  946YOPC   C3A13705   7.580   8.931   6.910 -0.1312  0.1657 -0.0848
  946YOPC   C4A13706   7.683   9.284   6.706 -0.0980  0.2370 -0.3690
  946YOPC   C1B13707   7.488   9.025   6.359 -0.2655 -0.0683 -0.3030
  946YOPC   C2B13708   7.212   9.299   6.496  0.0665 -0.1106  0.1222
  946YOPC   D3B13709   7.237   9.285   6.983  0.2684  0.1882  0.0291
  946YOPC   C4B13710   7.233   9.248   7.328 -0.0680 -0.3619  0.1225
  947YOPC   NC313711   8.305   5.464   5.749 -0.1198  0.1389 -0.1916
  947YOPC   PO413712   8.197   5.032   5.785  0.0212  0.0309  0.0871
  947YOPC   GL113713   8.291   5.079   6.206 -0.1364  0.0571 -0.0807
  947YOPC   GL213714   8.065   5.393   6.295  0.3671 -0.0055 -0.0798
  947YOPC   C1A13715   8.231   4.886   6.648 -0.6062  0.4267 -0.0998
  947YOPC   D2A13716   7.967   4.806   7.055  0.1552 -0.0302 -0.1899
  947YOPC   C3A13717   7.546   4.710   6.913 -0.0617  0.1149 -0.2219
  947YOPC   C4A13718   7.078   4.882   7.029  0.1906 -0.1577  0.0400
  947YOPC   C1B13719   8.279   5.388   6.644  0.0184  0.0939  0.0700
  947YOPC   C2B13720   8.127   5.677   6.932  0.3555  0.2059  0.0703
  947YOPC   D3B13721   8.046   5.671   7.378 -0.0127  0.0277 -0.0789
  947YOPC   C4B13722   8.018   5.648   7.868  0.1637 -0.2047  0.4049
  948YOPC   NC313723   7.076   3.163   5.985 -0.2082 -0.1589  0.1386
  948YOPC   PO413724   7.066   2.761   5.835 -0.1039  0.0921 -0.2415
  948YOPC   GL113725   7.057   2.741   6.394 -0.0713 -0.0869 -0.2297
  948YOPC   GL213726   7.259   2.598   6.596 -0.3603 -0.0886 -0.2506
  948YOPC   C1A13727   6.691   2.776   6.613  0.1183 -0.1376 -0.0004
  948YOPC   D2A13728   6.475   2.819   6.738  0.0385  0.0274  0.0631
  948YOPC   C3A13729   6.469   2.913   7.083 -0.2742 -0.1029 -0.1457
  948YOPC   C4A13730   6.215   3.121   7.295  0.2621  0.0455  0.0288
  948YOPC   C1B13731   6.976   2.378   6.708 -0.0616  0.1457  0.3283
  948YOPC   C2B13732   6.876   1.951   6.724 -0.0645  0.1531  0.2345
  948YOPC   D3B13733   7.196   1.730   7.078 -0.4828 -0.5073 -0.2262
  948YOPC   C4B13734   7.257   1.435   7.382 -0.0186  0.1041 -0.1293
  949YOPC   NC313735   4.621  11.179   5.190  0.1926 -0.2234 -0.0175
  949YOPC   PO413736   4.513  11.635   5.385 -0.0295 -0.1554 -0.3852
  949YOPC   GL113737   4.663  11.771   5.775  0.5682  0.1205  0.0956
  949YOPC   GL213738   4.906  11.602   5.914  0.2531 -0.1162 -0.0261
  949YOPC   C1A13739   4.682  12.047   6.039  0.0438  0.1157  0.3304
  949YOPC   D2A13740   5.063  12.131   6.218  0.0928  0.1698  0.0487
  949YOPC   C3A13741   5.197  11.966   6.642 -0.2324 -0.0513  0.1428
  949YOPC   C4A13742   5.116  11.860   7.018 -0.2096 -0.3323  0.0235
  949YOPC   C1B13743   4.744  11.662   6.330  0.1999 -0.0611  0.1321
  949YOPC   C2B13744   4.683  11.698   6.745 -0.2217  0.1828  0.4821
  949YOPC   D3B13745   4.572  11.763   7.150 -0.4107 -0.0340  0.3544
  949YOPC   C4B13746   4.513  11.829   7.525  0.0469  0.1376 -0.2190
  950YOPC   NC313747   1.176   1.566   5.566  0.2875  0.3796  0.0236
  950YOPC   PO413748   0.842   1.715   5.848 -0.1528 -0.0494  0.1075
  950YOPC   GL113749   1.073   1.692   6.180  0.0157 -0.0757  0.1103
  950YOPC   GL213750   0.826   1.825   6.425  0.1575  0.0916 -0.2746
  950YOPC   C1A13751   1.288   1.759   6.492  0.1023 -0.2451  0.1014
  950YOPC   D2A13752   1.476   1.777   6.924  0.1919  0.1437 -0.5294
  950YOPC   C3A13753   1.312   1.616   7.270  0.1440  0.1018 -0.0350
  950YOPC   C4A13754   1.510   1.394   7.462  0.2696 -0.0398  0.0762
  950YOPC   C1B13755   1.006   2.117   6.717 -0.2877 -0.1445 -0.1536
  950YOPC   C2B13756   1.279   2.141   7.160 -0.2697  0.1211  0.1993
  950YOPC   D3B13757   1.428   2.363   7.550  0.2334 -0.1511 -0.1285
  950YOPC   C4B13758   1.614   2.410   7.958 -0.0348  0.1323 -0.1863
  951YOPC   NC313759  11.808   2.936   5.481  0.0528  0.4320  0.1236
  951YOPC   PO413760  11.917   2.760   5.900  0.3368  0.1055 -0.0809
  951YOPC   GL113761  12.008   2.566   6.280 -0.1071 -0.0540  0.3186
  951YOPC   GL213762  12.166   2.425   6.435 -0.3079 -0.0808  0.0280
  951YOPC   C1A13763  11.867   2.695   6.741 -0.2525  0.1066  0.0098
  951YOPC   D2A13764  12.001   2.783   7.145  0.1034 -0.0967 -0.3290
  951YOPC   C3A13765  11.877   3.166   7.563 -0.4036  0.1578 -0.1497
  951YOPC   C4A13766  12.151   3.399   7.780 -0.1357  0.0213  0.0505
  951YOPC   C1B13767  12.197   2.244   6.820  0.4106  0.0030  0.0395
  951YOPC   C2B13768  12.017   2.282   7.294 -0.0822 -0.0555  0.1626
  951YOPC   D3B13769  12.313   2.558   7.494  0.2047 -0.0260 -0.1935
  951YOPC   C4B13770  12.689   2.638   7.397  0.0545  0.0237 -0.1999
  952YOPC   NC313771   9.994   7.356   5.724 -0.3534 -0.0412  0.0210
  952YOPC   PO413772  10.066   6.937   6.018 -0.2930  0.1093  0.2514
  952YOPC   GL113773  10.038   7.032   6.337  0.2459  0.0243  0.3354
  952YOPC   GL213774   9.668   6.955   6.330 -0.0285 -0.0594 -0.1712
  952YOPC   C1A13775   9.856   6.939   6.764  0.0214 -0.1628  0.2500
  952YOPC   D2A13776   9.559   6.954   7.039  0.1081  0.0447 -0.0031
  952YOPC   C3A13777   9.689   6.902   7.460  0.0811  0.3825 -0.0224
  952YOPC   C4A13778   9.992   7.145   7.670  0.0747  0.0685 -0.0248
  952YOPC   C1B13779   9.592   7.320   6.575 -0.1652 -0.0467 -0.1286
  952YOPC   C2B13780   9.499   7.428   6.991  0.1899 -0.1092 -0.0562
  952YOPC   D3B13781   9.114   7.343   7.160  0.2156 -0.4789  0.2089
  952YOPC   C4B13782   8.764   7.480   7.435  0.0764  0.1489 -0.1504
  953YOPC   NC313783  13.694   3.057   5.571  0.2948  0.1564  0.3045
  953YOPC   PO413784  13.670   2.524   5.604 -0.0758  0.1143 -0.0225
  953YOPC   GL113785  13.687   2.792   5.984 -0.1937  0.0784  0.1763
  953YOPC   GL213786  13.381   2.661   6.053  0.0114 -0.2613  0.1248
  953YOPC   C1A13787  13.770   2.650   6.440  0.1212  0.0041  0.2505
  953YOPC   D2A13788  13.456   2.697   6.803  0.0843 -0.0879 -0.3150
  953YOPC   C3A13789  13.671   2.693   7.236 -0.1852  0.1723  0.0574
  953YOPC   C4A13790  13.720   2.596   7.658 -0.2023 -0.1071  0.1909
  953YOPC   C1B13791  13.396   3.024   6.353  0.0588 -0.0364  0.0522
  953YOPC   C2B13792  13.504   3.440   6.492  0.0736 -0.0594 -0.1412
  953YOPC   D3B13793  13.837   3.492   6.856  0.2495  0.0284  0.0970
  953YOPC   C4B13794  13.890   3.255   7.269  0.0366  0.0519  0.0210
  954YOPC   NC313795   2.736  16.068   6.102  0.2065  0.1228 -0.1022
  954YOPC   PO413796   3.068  16.410   6.144  0.3094 -0.1656 -0.1796
  954YOPC   GL113797   2.856  16.346   6.541 -0.1081 -0.0141 -0.2002
  954YOPC   GL213798   3.060  16.140   6.714  0.2367 -0.0070  0.0822
  954YOPC   C1A13799   2.651  16.197   6.938 -0.1214 -0.0338  0.0235
  954YOPC   D2A13800   2.483  16.318   7.177  0.2988 -0.0125 -0.2475
  954YOPC   C3A13801   2.705  16.443   7.430 -0.0843 -0.1248  0.0974
  954YOPC   C4A13802   3.007  16.556   7.822 -0.3177  0.0599 -0.1063
  954YOPC   C1B13803   3.103  16.121   7.171 -0.0298  0.1199  0.2717
  954YOPC   C2B13804   3.339  16.269   7.564 -0.0330  0.3894 -0.1134
  954YOPC   D3B13805   3.407  16.089   7.979  0.1615  0.1705  0.2967
  954YOPC   C4B13806   3.199  16.113   8.401 -0.4474 -0.2067  0.0202
  955YOPC   NC313807   3.852  10.450   5.531 -0.0417  0.0991  0.0610
  955YOPC   PO413808   4.035  10.411   5.930  0.0477 -0.3033 -0.1877
  955YOPC   GL113809   4.108  10.461   6.286 -0.2579  0.1373  0.0961
  955YOPC   GL213810   4.054  10.813   6.328  0.0952 -0.0408  0.0734
  955YOPC   C1A13811   4.050  10.505   6.737  0.0277  0.4035  0.1823
  955YOPC   D2A13812   3.932  10.518   7.152 -0.3736  0.0266 -0.1883
  955YOPC   C3A13813   4.046  10.714   7.567  0.0204  0.0678  0.2842
  955YOPC   C4A13814   3.868  10.700   8.041 -0.1535 -0.2549 -0.0690
  955YOPC   C1B13815   4.009  10.970   6.757  0.0703 -0.0942  0.0820
  955YOPC   C2B13816   4.059  11.080   7.127 -0.0119 -0.0276 -0.0764
  955YOPC   D3B13817   4.516  11.118   7.208  0.1049 -0.0560  0.0844
  955YOPC   C4B13818   4.937  11.062   7.553  0.0798 -0.0932 -0.3177
  956YOPC   NC313819   4.151  15.184   6.176 -0.1000  0.0959 -0.2345
  956YOPC   PO413820   4.596  15.320   6.131  0.0080 -0.0980 -0.0301
  956YOPC   GL113821   4.609  15.449   6.527 -0.1677 -0.1340  0.0828
  956YOPC   GL213822   4.901  15.417   6.649  0.2257 -0.2311 -0.4818
  956YOPC   C1A13823   4.642  15.485   7.059  0.0220 -0.2019  0.0605
  956YOPC   D2A13824   4.561  15.607   7.383  0.2225  0.4098 -0.0388
  956YOPC   C3A13825   4.515  15.466   7.817  0.2272 -0.0788  0.1520
  956YOPC   C4A13826   4.624  15.163   8.064 -0.0526 -0.3547  0.0043
  956YOPC   C1B13827   5.141  15.217   7.030  0.1595 -0.1540  0.3527
  956YOPC   C2B13828   5.224  15.200   7.387  0.0717 -0.3362 -0.2566
  956YOPC   D3B13829   5.122  15.468   7.766 -0.0431 -0.0898  0.2089
  956YOPC   C4B13830   5.084  15.638   8.191  0.0311  0.0379  0.1730
  957YOPC   NC313831   8.977   1.838   5.830  0.3233 -0.0961 -0.0762
  957YOPC   PO413832   9.137   1.460   6.014 -0.2459 -0.1190  0.0428
  957YOPC   GL113833   9.005   1.319   6.390  0.2272  0.2924 -0.0374
  957YOPC   GL213834   9.241   1.116   6.569 -0.1883  0.1489  0.0248
  957YOPC   C1A13835   8.802   1.303   6.864  0.0937 -0.0446 -0.0981
  957YOPC   D2A13836   8.647   1.059   7.145 -0.0764  0.2423  0.0304
  957YOPC   C3A13837   8.432   0.992   7.477 -0.0986 -0.1665  0.3030
  957YOPC   C4A13838   8.161   0.961   7.653  0.0253 -0.0913 -0.0693
  957YOPC   C1B13839   9.121   0.872   6.912  0.2207  0.0873  0.0203
  957YOPC   C2B13840   9.037   0.740   7.337  0.0616  0.1466  0.1096
  957YOPC   D3B13841   9.065   1.024   7.756  0.1091 -0.0269  0.1194
  957YOPC   C4B13842   9.014   1.353   8.023 -0.1910 -0.3710 -0.0358
  958YOPC   NC313843   9.673  14.850   5.602 -0.0455  0.0966  0.1812
  958YOPC   PO413844   9.556  14.717   5.950 -0.1011  0.0250  0.0887
  958YOPC   GL113845   9.747  14.560   6.335  0.0366 -0.1018  0.3129
  958YOPC   GL213846  10.023  14.274   6.322  0.2863  0.0293  0.2293
  958YOPC   C1A13847   9.662  14.493   6.808  0.0172  0.3610  0.3671
  958YOPC   D2A13848   9.469  14.369   7.174  0.3442  0.1294  0.0234
  958YOPC   C3A13849   9.756  14.375   7.483 -0.0762 -0.0531 -0.1044
  958YOPC   C4A13850   9.798  14.260   7.965  0.0345  0.1809 -0.1593
  958YOPC   C1B13851  10.065  13.952   6.691  0.1685 -0.1755 -0.2796
  958YOPC   C2B13852  10.306  13.752   7.060 -0.3973 -0.1126 -0.3044
  958YOPC   D3B13853  10.156  13.509   7.430  0.1391 -0.4927 -0.1529
  958YOPC   C4B13854  10.137  13.228   7.814  0.2652  0.3128  0.2148
  959YOPC   NC313855  14.442   4.450   5.705  0.1552  0.3918 -0.0584
  959YOPC   PO413856  14.854   4.493   5.571 -0.0993 -0.0001 -0.3434
  959YOPC   GL113857  14.962   4.914   5.888  0.0869 -0.1139  0.0231
  959YOPC   GL213858  14.624   4.906   5.906  0.1449  0.1747  0.3050
  959YOPC   C1A13859  14.873   5.128   6.261 -0.0574  0.0542 -0.1076
  959YOPC   D2A13860  14.633   5.233   6.579  0.0920 -0.0594 -0.2316
  959YOPC   C3A13861  14.680   5.395   7.024  0.1284  0.0929  0.1663
  959YOPC   C4A13862  14.590   5.779   7.354 -0.0098  0.2288  0.1936
  959YOPC   C1B13863  14.465   4.762   6.247  0.1536  0.0700 -0.1118
  959YOPC   C2B13864  14.146   4.454   6.290  0.0386 -0.0812 -0.1631
  959YOPC   D3B13865  14.089   4.611   6.724  0.0641  0.1592  0.2605
  959YOPC   C4B13866  13.929   4.569   7.140 -0.3310  0.1684 -0.1384
  960YOPC   NC313867   0.390   6.615   5.532 -0.1040  0.1106 -0.0119
  960YOPC   PO413868   0.166   7.018   5.673 -0.1541  0.0217 -0.3062
  960YOPC   GL113869   0.204   6.985   6.206 -0.2786  0.0147 -0.0002
  960YOPC   GL213870   0.048   7.145   6.270 -0.0204  0.2670  0.2452
  960YOPC   C1A13871   0.255   6.759   6.629 -0.1045  0.1700  0.0008
  960YOPC   D2A13872   0.165   6.501   7.004 -0.2379 -0.4418  0.0396
  960YOPC   C3A13873  -0.037   6.295   7.313  0.0384  0.4061 -0.1100
  960YOPC   C4A13874  -0.071   6.430   7.674 -0.1157  0.1321  0.0782
  960YOPC   C1B13875   0.102   7.169   6.780 -0.1217 -0.3805 -0.0043
  960YOPC   C2B13876   0.050   7.134   7.227  0.0024 -0.1518  0.0106
  960YOPC   D3B13877  -0.078   6.875   7.487 -0.0128  0.1410 -0.1312
  960YOPC   C4B13878  -0.444   6.847   7.730 -0.2752  0.0870 -0.1289
  961YOPC   NC313879   4.984  15.037   6.135  0.0178 -0.0113  0.2222
  961YOPC   PO413880   5.405  14.691   6.072 -0.1005 -0.1908 -0.0296
  961YOPC   GL113881   5.755  14.778   6.388  0.1447 -0.1906 -0.0447
  961YOPC   GL213882   5.963  14.521   6.294  0.0964 -0.1241 -0.1837
  961YOPC   C1A13883   5.836  14.505   6.772 -0.0245 -0.1987  0.0564
  961YOPC   D2A13884   5.597  14.605   7.204 -0.0570  0.1968  0.1548
  961YOPC   C3A13885   5.755  14.156   7.436  0.0046  0.0392 -0.3900
  961YOPC   C4A13886   5.849  13.989   7.854  0.0046 -0.4450 -0.0158
  961YOPC   C1B13887   6.326  14.376   6.634 -0.0040  0.0105  0.0582
  961YOPC   C2B13888   6.445  14.001   6.613  0.0616  0.0973 -0.2163
  961YOPC   D3B13889   6.534  13.805   6.872  0.0394 -0.0464 -0.0382
  961YOPC   C4B13890   6.617  13.645   7.346  0.0328  0.0093  0.2063
  962YOPC   NC313891  15.858  10.026   6.664  0.0215  0.2997 -0.1102
  962YOPC   PO413892  15.467  10.188   6.460  0.0469  0.3005  0.1804
  962YOPC   GL113893  15.415  10.114   6.894 -0.1484 -0.0402  0.1969
  962YOPC   GL213894  15.156   9.883   6.804  0.0594  0.3869 -0.0160
  962YOPC   C1A13895  15.368  10.180   7.195 -0.1146 -0.0276 -0.2957
  962YOPC   D2A13896  15.216   9.995   7.565 -0.3718 -0.0422 -0.3298
  962YOPC   C3A13897  15.512   9.998   7.849 -0.1865 -0.1307 -0.3250
  962YOPC   C4A13898  15.822  10.010   8.081 -0.0750  0.5415  0.1055
  962YOPC   C1B13899  14.900   9.810   7.140 -0.0096  0.0610 -0.1233
  962YOPC   C2B13900  14.689   9.865   7.505  0.0377 -0.2267  0.0910
  962YOPC   D3B13901  14.762   9.613   7.777 -0.0830  0.1218 -0.4260
  962YOPC   C4B13902  14.951   9.268   7.923  0.0608  0.1750 -0.3011
  963YOPC   NC313903   0.006   3.334   5.606  0.1317  0.3002  0.1901
  963YOPC   PO413904  -0.321   2.982   5.749 -0.1155  0.0806  0.0645
  963YOPC   GL113905  -0.292   2.891   6.242 -0.0468 -0.0084  0.2681
  963YOPC   GL213906  -0.084   2.727   6.382 -0.1648 -0.1362  0.0992
  963YOPC   C1A13907  -0.356   3.187   6.694  0.0355  0.0467 -0.0070
  963YOPC   D2A13908  -0.105   3.265   7.105 -0.1633  0.1477 -0.2351
  963YOPC   C3A13909  -0.226   3.460   7.565 -0.0151  0.1194  0.0046
  963YOPC   C4A13910  -0.519   3.767   7.657  0.1899 -0.3582 -0.1691
  963YOPC   C1B13911  -0.147   2.735   6.848 -0.3862 -0.0675 -0.0598
  963YOPC   C2B13912  -0.175   2.674   7.280  0.1100 -0.3028 -0.0383
  963YOPC   D3B13913  -0.066   2.979   7.489  0.0763  0.0152 -0.0319
  963YOPC   C4B13914   0.235   3.084   7.874 -0.0046  0.0698  0.1725
  964YOPC   NC313915   3.205  10.121   5.919 -0.1218  0.0571 -0.1904
  964YOPC   PO413916   3.577  10.261   5.854 -0.1063  0.1135 -0.2426
  964YOPC   GL113917   3.591  10.312   6.284  0.0312 -0.0559  0.0201
  964YOPC   GL213918   3.287  10.356   6.341 -0.1639  0.1611 -0.2263
  964YOPC   C1A13919   3.489  10.333   6.865 -0.0679 -0.0904  0.4092
  964YOPC   D2A13920   3.179  10.630   7.080 -0.0324 -0.0909  0.0993
  964YOPC   C3A13921   3.180  10.683   7.598 -0.4563  0.0111  0.3899
  964YOPC   C4A13922   3.379  10.717   8.043 -0.3295  0.1228  0.1081
  964YOPC   C1B13923   3.297  10.708   6.596  0.2005 -0.3595  0.0052
  964YOPC   C2B13924   2.987  10.988   6.729  0.2285 -0.1068 -0.0556
  964YOPC   D3B13925   2.999  11.097   7.200  0.1991  0.1757  0.0976
  964YOPC   C4B13926   2.822  11.411   7.387  0.2035 -0.3080  0.0834
  965YOPC   NC313927   1.122  14.287   6.042 -0.1575  0.1422  0.1172
  965YOPC   PO413928   1.047  14.617   6.365  0.0499 -0.1597  0.1678
  965YOPC   GL113929   1.291  14.383   6.702  0.0233  0.3051  0.0929
  965YOPC   GL213930   1.493  14.146   6.583  0.2459  0.0226  0.0411
  965YOPC   C1A13931   1.647  14.399   7.123 -0.2181 -0.3420  0.0168
  965YOPC   D2A13932   1.929  14.691   7.350 -0.0548  0.1042  0.3695
  965YOPC   C3A13933   1.949  14.931   7.619 -0.2144  0.1272 -0.1360
  965YOPC   C4A13934   1.846  14.917   8.033 -0.0846 -0.0286 -0.1871
  965YOPC   C1B13935   1.320  13.971   6.937 -0.1170  0.2869 -0.2554
  965YOPC   C2B13936   1.472  13.804   7.243  0.0172 -0.0698  0.2303
  965YOPC   D3B13937   1.438  13.595   7.700 -0.1720  0.0401  0.2899
  965YOPC   C4B13938   1.345  13.669   8.180 -0.2325  0.0370 -0.4067
  966YOPC   NC313939   7.945  17.131   5.688  0.2904  0.0349  0.1889
  966YOPC   PO413940   8.370  17.028   5.549 -0.0884  0.3742 -0.1313
  966YOPC   GL113941   8.261  16.972   6.020 -0.3261  0.0140  0.0019
  966YOPC   GL213942   8.615  16.845   6.097  0.2576 -0.2741 -0.1107
  966YOPC   C1A13943   8.004  16.855   6.421 -0.1118 -0.0781 -0.0933
  966YOPC   D2A13944   7.787  16.995   6.742 -0.0814  0.0993  0.1338
  966YOPC   C3A13945   7.857  17.242   7.011 -0.0129 -0.1060 -0.3239
  966YOPC   C4A13946   8.020  17.327   7.541  0.1823  0.2650 -0.0853
  966YOPC   C1B13947   8.440  17.043   6.496  0.0162  0.0516  0.0352
  966YOPC   C2B13948   8.296  17.233   6.824 -0.2035 -0.2080 -0.0310
  966YOPC   D3B13949   8.435  17.186   7.163  0.1733 -0.1475  0.0809
  966YOPC   C4B13950   8.446  16.874   7.485 -0.0967 -0.1207 -0.0421
  967YOPC   NC313951   3.628  13.677   6.066  0.3761 -0.0241  0.0190
  967YOPC   PO413952   3.938  13.290   6.091 -0.2218  0.1135 -0.2281
  967YOPC   GL113953   4.078  13.371   6.478  0.0731 -0.2994  0.1912
  967YOPC   GL213954   3.728  13.344   6.537  0.2432 -0.4637 -0.2204
  967YOPC   C1A13955   4.128  13.092   6.879  0.1683 -0.0928  0.1091
  967YOPC   D2A13956   4.197  13.110   7.319 -0.2902  0.2875  0.1352
  967YOPC   C3A13957   4.193  12.694   7.578 -0.1570 -0.2384  0.0206
  967YOPC   C4A13958   4.315  12.229   7.703  0.0486  0.0088 -0.3328
  967YOPC   C1B13959   3.642  13.218   6.977 -0.3352  0.3459  0.0270
  967YOPC   C2B13960   3.710  13.409   7.358  0.0219  0.2374  0.1663
  967YOPC   D3B13961   3.874  13.292   7.708  0.0229  0.2578  0.1594
  967YOPC   C4B13962   3.942  12.988   7.996  0.0951 -0.1265  0.2166
  968YOPC   NC313963  10.453   3.480   5.517 -0.1996  0.2299 -0.1748
  968YOPC   PO413964  10.625   3.327   5.913  0.1436  0.0044  0.0155
  968YOPC   GL113965  10.678   3.265   6.357  0.0556  0.1173  0.0672
  968YOPC   GL213966  10.527   3.055   6.407  0.0506  0.1329 -0.2021
  968YOPC   C1A13967  10.760   3.328   6.804 -0.1156  0.2516 -0.1616
  968YOPC   D2A13968  10.941   3.510   7.199  0.1382 -0.0025 -0.1641
  968YOPC   C3A13969  10.617   3.768   7.373  0.1699 -0.4868 -0.0387
  968YOPC   C4A13970  10.619   3.938   7.718 -0.2629  0.2632  0.0105
  968YOPC   C1B13971  10.199   3.277   6.728  0.1477 -0.1534  0.4085
  968YOPC   C2B13972  10.091   3.560   7.060 -0.1054  0.2062 -0.2629
  968YOPC   D3B13973  10.284   3.414   7.551  0.0869  0.3362 -0.1614
  968YOPC   C4B13974  10.302   3.539   7.955  0.0897 -0.1168 -0.0219
  969YOPC   NC313975  16.489  15.065   6.208  0.0143 -0.2876 -0.1426
  969YOPC   PO413976  16.072  14.833   6.145  0.0088  0.2261 -0.1240
  969YOPC   GL113977  16.203  14.884   6.574 -0.1129  0.0089 -0.1139
  969YOPC   GL213978  16.565  14.683   6.680 -0.2236 -0.2015  0.4537
  969YOPC   C1A13979  16.303  14.889   7.047 -0.0256 -0.0965 -0.2516
  969YOPC   D2A13980  16.326  14.656   7.497  0.0201 -0.1856  0.1822
  969YOPC   C3A13981  15.909  14.570   7.725  0.3041 -0.1021 -0.0691
  969YOPC   C4A13982  15.887  14.363   8.109 -0.0352  0.0174 -0.3340
  969YOPC   C1B13983  16.736  14.541   7.083  0.0922  0.0483  0.0088
  969YOPC   C2B13984  17.030  14.732   7.333  0.1241  0.2814  0.0999
  969YOPC   D3B13985  17.229  14.853   7.788 -0.0603 -0.0372  0.2968
  969YOPC   C4B13986  17.540  15.023   8.155  0.2245  0.1791  0.1955
  970YOPC   NC313987   1.110   0.726   5.686 -0.2087  0.0759  0.2298
  970YOPC   PO413988   0.792   1.021   5.727 -0.2234 -0.1913  0.1533
  970YOPC   GL113989   0.962   0.876   6.211 -0.1310  0.0564  0.1260
  970YOPC   GL213990   1.305   0.710   6.196 -0.0759 -0.0895  0.1757
  970YOPC   C1A13991   1.136   1.159   6.525 -0.1918  0.2131 -0.0240
  970YOPC   D2A13992   1.094   1.455   6.843 -0.0877 -0.0005 -0.2141
  970YOPC   C3A13993   0.926   1.259   7.295 -0.2440 -0.1065 -0.0618
  970YOPC   C4A13994   0.975   1.393   7.783 -0.1566 -0.0406 -0.2020
  970YOPC   C1B13995   1.373   0.740   6.676 -0.0691  0.0664 -0.0459
  970YOPC   C2B13996   1.577   0.528   7.015 -0.1535 -0.2124 -0.0315
  970YOPC   D3B13997   1.691   0.753   7.379 -0.2390  0.0195  0.1760
  970YOPC   C4B13998   1.721   0.924   7.757 -0.1099  0.1478 -0.2399
  971YOPC   NC313999  10.697   2.843   5.947  0.1430 -0.0031  0.0146
  971YOPC   PO414000  10.502   2.448   5.822 -0.1276  0.0806  0.0710
  971YOPC   GL114001  10.293   2.599   6.198 -0.2703 -0.5606  0.1249
  971YOPC   GL214002   9.872   2.553   6.225  0.2505 -0.0375  0.2255
  971YOPC   C1A14003  10.233   2.565   6.667  0.2188  0.0262 -0.0220
  971YOPC   D2A14004  10.047   2.706   6.953 -0.0319 -0.2814  0.0640
  971YOPC   C3A14005  10.260   2.525   7.343  0.0631  0.0189  0.1557
  971YOPC   C4A14006  10.256   2.235   7.634 -0.0712  0.0981  0.1771
  971YOPC   C1B14007   9.827   2.860   6.518 -0.1212  0.3835 -0.0594
  971YOPC   C2B14008   9.786   3.127   6.916 -0.0419 -0.2127 -0.2313
  971YOPC   D3B14009   9.693   3.417   7.335 -0.2130  0.1509  0.3416
  971YOPC   C4B14010   9.757   3.445   7.814 -0.0721 -0.0912  0.0904
  972YOPC   NC314011   7.041   1.227   5.397  0.2202  0.1971 -0.0453
  972YOPC   PO414012   6.712   1.159   5.548  0.0199 -0.0614 -0.0750
  972YOPC   GL114013   6.786   0.913   5.875  0.2308 -0.0369 -0.2286
  972YOPC   GL214014   6.810   1.140   6.057  0.3402 -0.0253 -0.0094
  972YOPC   C1A14015   6.669   0.642   6.272 -0.1299 -0.1709 -0.0537
  972YOPC   D2A14016   6.703   0.414   6.575  0.0336 -0.0732 -0.4720
  972YOPC   C3A14017   6.275   0.329   6.882 -0.2270  0.0920  0.1941
  972YOPC   C4A14018   6.001   0.407   7.281 -0.2318  0.0084  0.3422
  972YOPC   C1B14019   6.932   1.384   6.302 -0.2122  0.1152 -0.0099
  972YOPC   C2B14020   7.119   1.528   6.660  0.0639 -0.2765  0.2315
  972YOPC   D3B14021   7.176   1.235   6.988 -0.2502  0.1406 -0.1189
  972YOPC   C4B14022   7.161   0.794   7.192 -0.1784 -0.0411  0.0603
  973YOPC   NC314023   4.344   4.789   5.629 -0.0718 -0.1437  0.0028
  973YOPC   PO414024   4.446   4.443   5.458 -0.2152  0.1432 -0.2317
  973YOPC   GL114025   4.799   4.582   5.770  0.1788 -0.1204 -0.0128
  973YOPC   GL214026   4.572   4.550   6.077 -0.0930 -0.0493  0.1899
  973YOPC   C1A14027   5.078   4.794   6.116  0.0188 -0.0097  0.1927
  973YOPC   D2A14028   5.424   4.821   6.345 -0.0566  0.3859 -0.0231
  973YOPC   C3A14029   5.542   4.685   6.834  0.0664 -0.1000  0.0868
  973YOPC   C4A14030   5.432   4.647   7.233  0.2039  0.0905 -0.2600
  973YOPC   C1B14031   4.706   4.373   6.388  0.1250  0.0156  0.0838
  973YOPC   C2B14032   4.638   4.476   6.873  0.2631 -0.0404  0.0415
  973YOPC   D3B14033   4.249   4.458   7.079  0.1541 -0.1029  0.2538
  973YOPC   C4B14034   3.950   4.584   7.382 -0.1838  0.1702  0.0285
  974YOPC   NC314035  12.121   8.078   5.684 -0.0581 -0.1009  0.1401
  974YOPC   PO414036  12.457   7.858   5.623  0.0197 -0.1968  0.0448
  974YOPC   GL114037  12.638   8.047   5.923 -0.0023  0.0302  0.2403
  974YOPC   GL214038  12.444   8.181   6.117 -0.0475  0.0043 -0.4266
  974YOPC   C1A14039  12.919   7.723   6.244  0.1443 -0.1073  0.4041
  974YOPC   D2A14040  13.216   7.667   6.619  0.1439 -0.3397  0.0140
  974YOPC   C3A14041  13.668   7.841   6.726 -0.1233 -0.1537 -0.0189
  974YOPC   C4A14042  14.112   7.986   6.751 -0.2953  0.1316  0.2761
  974YOPC   C1B14043  12.497   8.282   6.496  0.2084  0.0441  0.0190
  974YOPC   C2B14044  12.435   8.387   6.957 -0.3910  0.3363 -0.0388
  974YOPC   D3B14045  12.403   8.607   7.350  0.1985 -0.3645  0.1272
  974YOPC   C4B14046  12.639   8.459   7.594  0.0701  0.2676 -0.0768
  975YOPC   NC314047  11.710   7.174   5.700 -0.0817 -0.1184 -0.0018
  975YOPC   PO414048  11.394   7.573   5.822 -0.0795 -0.0964 -0.2012
  975YOPC   GL114049  11.400   7.351   6.205 -0.1997  0.0913  0.3827
  975YOPC   GL214050  11.383   7.113   6.066  0.1905  0.1616 -0.2494
  975YOPC   C1A14051  11.454   7.253   6.567 -0.0382 -0.0357 -0.0952
  975YOPC   D2A14052  11.436   7.209   7.058  0.4185 -0.0427  0.0219
  975YOPC   C3A14053  11.154   7.463   7.313 -0.4009  0.1305 -0.0773
  975YOPC   C4A14054  10.745   7.503   7.693  0.0823  0.2233  0.0794
  975YOPC   C1B14055  10.996   7.063   6.426 -0.1598  0.1662 -0.4896
  975YOPC   C2B14056  10.983   7.300   6.846 -0.0338  0.0827  0.3712
  975YOPC   D3B14057  11.175   7.689   6.759 -0.1009  0.2739 -0.1774
  975YOPC   C4B14058  11.475   7.887   6.546  0.0500 -0.0857  0.0129
  976YOPC   NC314059   5.053   9.540   6.153  0.0493 -0.1630  0.1383
  976YOPC   PO414060   4.944  10.000   6.224 -0.3425 -0.0314 -0.1476
  976YOPC   GL114061   4.888   9.951   6.585  0.1584 -0.3297 -0.5189
  976YOPC   GL214062   4.895   9.566   6.632 -0.1061  0.2319 -0.0020
  976YOPC   C1A14063   5.090   9.951   6.928  0.1484  0.3177  0.0364
  976YOPC   D2A14064   5.125  10.215   7.307  0.0388 -0.0086 -0.1034
  976YOPC   C3A14065   5.186  10.040   7.629 -0.1278 -0.0092  0.0599
  976YOPC   C4A14066   5.073  10.201   8.051  0.1275  0.0160  0.3925
  976YOPC   C1B14067   4.577   9.660   6.967  0.2431 -0.1901 -0.1090
  976YOPC   C2B14068   4.720   9.899   7.416 -0.0710 -0.1853  0.1502
  976YOPC   D3B14069   4.632  10.129   7.772  0.0632  0.0012  0.0591
  976YOPC   C4B14070   4.548  10.044   8.137 -0.1868 -0.0804  0.0660
  977YOPC   NC314071   1.249  17.971   5.849 -0.3644  0.0530 -0.1292
  977YOPC   PO414072   1.706  18.078   5.922 -0.0086  0.0302 -0.1045
  977YOPC   GL114073   1.587  17.958   6.329  0.4271  0.2716  0.0489
  977YOPC   GL214074   1.264  18.083   6.313 -0.0648  0.2468 -0.0545
  977YOPC   C1A14075   1.563  18.000   6.747  0.3114 -0.1025 -0.0302
  977YOPC   D2A14076   1.449  18.307   7.080  0.0654 -0.0039  0.0095
  977YOPC   C3A14077   1.742  18.389   7.478 -0.0250 -0.2899  0.2101
  977YOPC   C4A14078   1.709  18.600   7.792  0.1802 -0.0387  0.2166
  977YOPC   C1B14079   0.927  18.146   6.587  0.1954  0.2533 -0.0773
  977YOPC   C2B14080   0.998  18.511   6.877 -0.0377  0.1636  0.2690
  977YOPC   D3B14081   0.979  18.906   7.011 -0.2374  0.2300  0.3875
  977YOPC   C4B14082   0.747  19.253   6.827 -0.0394 -0.1071 -0.1582
  978YOPC   NC314083   7.107   5.563   5.062 -0.1066  0.1103  0.1787
  978YOPC   PO414084   7.193   5.575   5.565 -0.1491  0.3023  0.1844
  978YOPC   GL114085   7.108   5.642   6.016  0.1843  0.1104 -0.0036
  978YOPC   GL214086   6.700   5.736   6.179 -0.0996 -0.1576  0.0095
  978YOPC   C1A14087   7.095   5.532   6.517 -0.3008  0.1789  0.3339
  978YOPC   D2A14088   6.824   5.260   6.823  0.1681 -0.1459  0.2830
  978YOPC   C3A14089   6.728   5.244   7.231  0.4182 -0.0384  0.1814
  978YOPC   C4A14090   6.736   5.458   7.681  0.1999  0.1680  0.0236
  978YOPC   C1B14091   6.722   5.892   6.531 -0.1600  0.2344  0.1331
  978YOPC   C2B14092   6.928   5.768   6.888  0.1802 -0.1072 -0.1740
  978YOPC   D3B14093   6.834   5.671   7.191 -0.0622  0.1768  0.1313
  978YOPC   C4B14094   6.907   5.913   7.649  0.2037 -0.3031 -0.1797
  979YOPC   NC314095   8.167   4.572   5.983 -0.0237 -0.1554 -0.0890
  979YOPC   PO414096   7.838   4.409   6.140  0.0912  0.0193 -0.1622
  979YOPC   GL114097   7.882   4.559   6.510 -0.0849  0.1322 -0.0567
  979YOPC   GL214098   7.851   4.955   6.390 -0.1398  0.0589  0.0794
  979YOPC   C1A14099   8.166   4.384   6.858 -0.0603 -0.2753  0.1418
  979YOPC   D2A14100   8.129   4.365   7.295 -0.2615 -0.1372  0.1127
  979YOPC   C3A14101   7.951   4.508   7.704  0.3091 -0.2492 -0.0089
  979YOPC   C4A14102   7.667   4.474   7.918  0.1931 -0.2819  0.1532
  979YOPC   C1B14103   7.743   5.185   6.666 -0.3722  0.2342 -0.4841
  979YOPC   C2B14104   7.815   5.310   7.045  0.0119 -0.0211  0.1871
  979YOPC   D3B14105   7.671   5.284   7.518 -0.0217  0.1332 -0.1730
  979YOPC   C4B14106   7.384   5.586   7.810 -0.0322  0.0590  0.0740
  980YOPC   NC314107   2.684   4.949   5.805  0.2314  0.0213 -0.1349
  980YOPC   PO414108   2.356   4.555   5.767  0.2091  0.1710  0.1067
  980YOPC   GL114109   2.302   4.683   6.140  0.4369 -0.2673  0.0422
  980YOPC   GL214110   2.290   4.982   6.250 -0.2049 -0.1818 -0.0108
  980YOPC   C1A14111   2.399   4.556   6.600  0.0998 -0.2626 -0.0331
  980YOPC   D2A14112   2.586   4.442   7.018  0.0268  0.0305 -0.2564
  980YOPC   C3A14113   2.341   4.288   7.389  0.0888  0.1305 -0.0411
  980YOPC   C4A14114   2.207   3.932   7.546  0.0460 -0.0459  0.1040
  980YOPC   C1B14115   2.405   5.097   6.587  0.0048 -0.0364 -0.1029
  980YOPC   C2B14116   2.262   4.942   6.957  0.1263  0.3331 -0.2166
  980YOPC   D3B14117   2.536   4.796   7.334 -0.2580  0.0314 -0.0457
  980YOPC   C4B14118   2.669   5.062   7.667  0.0389 -0.1633  0.1992
  981YOPC   NC314119  13.282  15.703   5.470 -0.0553  0.0102 -0.0832
  981YOPC   PO414120  13.221  15.933   5.903 -0.1731  0.1586 -0.0308
  981YOPC   GL114121  12.958  15.916   6.158 -0.2163 -0.0371 -0.3334
  981YOPC   GL214122  13.088  15.766   6.351  0.0648  0.3894  0.0453
  981YOPC   C1A14123  12.842  16.078   6.664 -0.0486  0.2344  0.0274
  981YOPC   D2A14124  12.764  16.146   7.018 -0.1110  0.3587 -0.2919
  981YOPC   C3A14125  12.530  15.993   7.199 -0.1997 -0.0252  0.0116
  981YOPC   C4A14126  12.298  15.911   7.649 -0.0130 -0.3178 -0.1255
  981YOPC   C1B14127  13.378  15.589   6.629 -0.1125  0.2458  0.1325
  981YOPC   C2B14128  13.419  15.592   6.999  0.1356  0.0351  0.0994
  981YOPC   D3B14129  13.789  15.446   7.182  0.0425  0.1930 -0.1825
  981YOPC   C4B14130  13.724  15.210   7.465  0.0790  0.2012 -0.1352
  982YOPC   NC314131  18.094  13.604   6.330  0.3873  0.1226  0.0337
  982YOPC   PO414132  17.960  13.950   6.460  0.0087 -0.0889  0.3880
  982YOPC   GL114133  17.658  13.999   6.675  0.0383 -0.3894  0.1384
  982YOPC   GL214134  17.444  13.736   6.845 -0.2123  0.3691  0.1675
  982YOPC   C1A14135  17.576  14.291   6.903 -0.0697 -0.1467 -0.1992
  982YOPC   D2A14136  17.644  14.690   6.880 -0.0195  0.0041 -0.0804
  982YOPC   C3A14137  17.494  14.968   7.196 -0.0445 -0.0857  0.1439
  982YOPC   C4A14138  17.457  15.273   7.548  0.3691 -0.2695 -0.1931
  982YOPC   C1B14139  17.308  13.645   7.283  0.1002  0.1955 -0.1549
  982YOPC   C2B14140  17.150  13.290   7.458  0.1506  0.0353  0.1389
  982YOPC   D3B14141  17.112  12.889   7.211  0.1078  0.0447 -0.0298
  982YOPC   C4B14142  17.159  12.498   7.035  0.0082  0.3064 -0.1983
  983YOPC   NC314143  12.904   5.492   5.668  0.1734  0.3163 -0.2624
  983YOPC   PO414144  13.152   5.058   5.763 -0.1192 -0.0472  0.1174
  983YOPC   GL114145  13.270   4.937   6.103  0.3682  0.0665 -0.2404
  983YOPC   GL214146  13.518   4.662   6.041 -0.1368  0.1183 -0.2510
  983YOPC   C1A14147  13.269   4.685   6.484 -0.0106  0.0207 -0.2633
  983YOPC   D2A14148  13.080   4.580   6.869  0.1553 -0.0146 -0.1470
  983YOPC   C3A14149  13.370   4.521   7.218  0.0624 -0.2071  0.0659
  983YOPC   C4A14150  13.651   4.665   7.560  0.0061 -0.0573 -0.1514
  983YOPC   C1B14151  13.730   4.913   6.357  0.2145 -0.2253 -0.1045
  983YOPC   C2B14152  13.708   4.915   6.705 -0.3492  0.1562  0.0595
  983YOPC   D3B14153  13.448   4.975   7.023  0.0060 -0.3317 -0.4718
  983YOPC   C4B14154  13.137   4.869   7.413 -0.0446 -0.0328  0.0968
  984YOPC   NC314155   4.335  12.810   4.993 -0.1971  0.2640  0.1311
  984YOPC   PO414156   4.338  12.692   5.396  0.0674 -0.2030 -0.0559
  984YOPC   GL114157   4.406  12.589   5.929  0.2095  0.3146  0.1134
  984YOPC   GL214158   4.220  12.758   6.134 -0.1979  0.0688  0.0582
  984YOPC   C1A14159   4.523  12.395   6.382  0.3122  0.0078  0.0919
  984YOPC   D2A14160   4.710  12.206   6.651  0.1499  0.1263 -0.0804
  984YOPC   C3A14161   4.635  12.213   7.018 -0.0638 -0.1178 -0.0443
  984YOPC   C4A14162   4.529  12.395   7.309  0.0455  0.0545 -0.2469
  984YOPC   C1B14163   4.125  12.783   6.462  0.0937  0.2652 -0.2896
  984YOPC   C2B14164   4.460  12.695   6.773 -0.0798 -0.0757  0.0569
  984YOPC   D3B14165   4.602  12.854   7.126 -0.0080 -0.0774 -0.4157
  984YOPC   C4B14166   4.687  12.855   7.507  0.1565  0.0122  0.0744
  985YOPC   NC314167   9.221  12.483   5.659  0.0200  0.0639 -0.0441
  985YOPC   PO414168   9.395  12.074   5.985 -0.0515 -0.0464  0.1627
  985YOPC   GL114169   9.311  12.102   6.418 -0.0150  0.1707 -0.2957
  985YOPC   GL214170   9.365  12.379   6.678  0.1637 -0.3065 -0.0731
  985YOPC   C1A14171   8.848  12.103   6.640 -0.2010 -0.0928  0.1859
  985YOPC   D2A14172   8.670  11.944   7.046  0.0741 -0.0340 -0.0899
  985YOPC   C3A14173   8.787  12.214   7.421  0.1955 -0.0196  0.1022
  985YOPC   C4A14174   8.512  12.347   7.711  0.0549 -0.3433  0.0370
  985YOPC   C1B14175   9.489  12.481   7.068  0.1166 -0.0519  0.3476
  985YOPC   C2B14176   9.628  12.535   7.532  0.0231 -0.0449 -0.1233
  985YOPC   D3B14177   9.179  12.482   7.545  0.0364  0.1805  0.2654
  985YOPC   C4B14178   8.812  12.737   7.483  0.0253  0.1671 -0.0355
  986YOPC   NC314179  17.316  15.588   5.734 -0.1172 -0.1650 -0.0410
  986YOPC   PO414180  17.773  15.543   6.018 -0.0019  0.1205  0.0903
  986YOPC   GL114181  17.909  15.725   6.430 -0.2981  0.1771 -0.0469
  986YOPC   GL214182  17.742  16.135   6.447  0.1145  0.1012 -0.0146
  986YOPC   C1A14183  18.120  15.726   6.768 -0.0474 -0.0708  0.1867
  986YOPC   D2A14184  18.227  15.666   7.216  0.1331  0.3651  0.0141
  986YOPC   C3A14185  18.494  15.889   7.525 -0.0665 -0.3085  0.2841
  986YOPC   C4A14186  18.817  15.814   7.986  0.2493  0.3950 -0.0840
  986YOPC   C1B14187  17.866  16.138   6.814 -0.3399 -0.0165  0.2136
  986YOPC   C2B14188  17.991  16.088   7.159  0.1286  0.1370 -0.0042
  986YOPC   D3B14189  18.478  16.073   7.073 -0.4884  0.1356 -0.3585
  986YOPC   C4B14190  18.893  15.956   7.127  0.0850 -0.1820 -0.3671
  987YOPC   NC314191   8.458  12.205   6.072 -0.0028 -0.0859 -0.4467
  987YOPC   PO414192   8.235  12.547   5.993 -0.0443  0.1753  0.0375
  987YOPC   GL114193   8.542  12.933   6.214  0.0647 -0.4094  0.2528
  987YOPC   GL214194   8.462  13.290   6.195  0.2253 -0.0637 -0.1379
  987YOPC   C1A14195   8.574  12.989   6.579 -0.0393 -0.1373  0.2156
  987YOPC   D2A14196   8.557  12.996   7.099 -0.0559 -0.0012 -0.0094
  987YOPC   C3A14197   8.321  13.216   7.269  0.0346  0.0096  0.2788
  987YOPC   C4A14198   8.179  13.439   7.619 -0.0463 -0.1028 -0.0254
  987YOPC   C1B14199   8.341  13.404   6.631 -0.1161  0.0617  0.0607
  987YOPC   C2B14200   8.125  13.633   7.121  0.3871 -0.1077 -0.1667
  987YOPC   D3B14201   8.431  13.787   7.408 -0.0658 -0.0846  0.3350
  987YOPC   C4B14202   8.238  14.153   7.580  0.4238 -0.0956  0.1233
  988YOPC   NC314203  17.465   6.147   5.862 -0.0523 -0.0822 -0.0725
  988YOPC   PO414204  17.997   6.265   5.752  0.0470  0.1244  0.1936
  988YOPC   GL114205  17.908   6.172   6.146  0.1025  0.0120  0.2385
  988YOPC   GL214206  18.240   6.150   6.277 -0.3732  0.3443 -0.2680
  988YOPC   C1A14207  17.900   6.070   6.651  0.1899  0.1529 -0.1717
  988YOPC   D2A14208  17.896   5.882   7.010  0.1412  0.0121 -0.1285
  988YOPC   C3A14209  17.858   5.981   7.460 -0.0446  0.0724 -0.2836
  988YOPC   C4A14210  17.723   6.187   7.834  0.0751 -0.1015  0.1281
  988YOPC   C1B14211  18.378   6.067   6.792  0.2933  0.0705  0.2653
  988YOPC   C2B14212  18.484   5.872   7.128 -0.1347 -0.0843 -0.0674
  988YOPC   D3B14213  18.272   5.781   7.434  0.1235  0.3144  0.1878
  988YOPC   C4B14214  18.185   5.636   7.893  0.1897  0.3576  0.2299
  989YOPC   NC314215  15.292  12.966   5.944  0.0522 -0.0088 -0.0063
  989YOPC   PO414216  14.926  13.284   5.805  0.1173  0.1101  0.0876
  989YOPC   GL114217  14.926  13.241   6.174  0.0066  0.2509 -0.0221
  989YOPC   GL214218  15.146  13.338   6.310  0.0663  0.1925 -0.2762
  989YOPC   C1A14219  14.598  13.215   6.578  0.0342  0.0592 -0.0224
  989YOPC   D2A14220  14.208  13.213   6.750 -0.0431 -0.2223  0.1768
  989YOPC   C3A14221  14.095  12.921   7.011  0.0754  0.0166 -0.0500
  989YOPC   C4A14222  13.842  12.738   7.328  0.2670 -0.0933 -0.0127
  989YOPC   C1B14223  14.993  13.494   6.643 -0.0513 -0.1727 -0.0344
  989YOPC   C2B14224  15.013  13.376   7.031  0.0682  0.0467  0.2290
  989YOPC   D3B14225  14.918  13.614   7.389 -0.0392 -0.1269 -0.0629
  989YOPC   C4B14226  14.624  13.670   7.595 -0.0305 -0.1800 -0.1755
  990YOPC   NC314227  17.151  11.104   6.422 -0.3060  0.0367  0.1062
  990YOPC   PO414228  16.712  10.866   6.529 -0.0150 -0.0192 -0.2193
  990YOPC   GL114229  16.993  10.913   6.893  0.0249  0.2571  0.0641
  990YOPC   GL214230  17.186  11.165   6.918 -0.0825 -0.0392  0.2310
  990YOPC   C1A14231  17.070  10.821   7.367  0.4365 -0.2404 -0.2590
  990YOPC   D2A14232  17.167  10.966   7.843  0.0668  0.0784 -0.1554
  990YOPC   C3A14233  17.617  11.030   8.030 -0.1878 -0.0017 -0.0185
  990YOPC   C4A14234  17.872  10.887   8.359 -0.1685 -0.2277 -0.0180
  990YOPC   C1B14235  17.284  11.258   7.380  0.0339 -0.2116 -0.1703
  990YOPC   C2B14236  17.368  11.476   7.727 -0.1268  0.2978 -0.0148
  990YOPC   D3B14237  17.243  11.351   8.140  0.0694  0.0069  0.0627
  990YOPC   C4B14238  16.883  11.032   8.293  0.2711  0.1526 -0.4500
  991YOPC   NC314239  14.579   3.379   5.574  0.0039 -0.1334 -0.1291
  991YOPC   PO414240  15.012   3.641   5.455 -0.0495 -0.0357  0.1726
  991YOPC   GL114241  14.911   3.701   5.891  0.0380 -0.0815 -0.2223
  991YOPC   GL214242  15.113   3.655   6.088  0.2274  0.2158 -0.1511
  991YOPC   C1A14243  14.620   3.552   6.236  0.1600 -0.1982  0.0872
  991YOPC   D2A14244  14.282   3.322   6.529  0.1317 -0.1092 -0.0558
  991YOPC   C3A14245  14.375   3.117   7.039 -0.0326 -0.3050 -0.0660
  991YOPC   C4A14246  14.208   2.965   7.451 -0.1789  0.3658 -0.1111
  991YOPC   C1B14247  14.933   3.886   6.456  0.2475  0.1252 -0.2838
  991YOPC   C2B14248  14.904   4.171   6.844 -0.0088  0.1091  0.2259
  991YOPC   D3B14249  14.717   4.514   6.891 -0.1374 -0.3400 -0.1111
  991YOPC   C4B14250  14.540   4.777   6.876  0.1317 -0.0262 -0.0971
  992YOPC   NC314251   1.775   4.486   6.004  0.3945 -0.2977 -0.1940
  992YOPC   PO414252   1.297   4.507   5.963  0.4905  0.1640  0.0127
  992YOPC   GL114253   1.448   4.128   6.182  0.3160  0.4814  0.1641
  992YOPC   GL214254   1.705   3.917   6.292 -0.2021 -0.2970  0.0711
  992YOPC   C1A14255   1.341   4.038   6.683 -0.2170 -0.1337  0.0634
  992YOPC   D2A14256   1.106   4.061   7.014  0.1624  0.1126  0.3262
  992YOPC   C3A14257   1.369   3.946   7.341  0.1908 -0.1400 -0.0063
  992YOPC   C4A14258   1.301   3.910   7.780 -0.0523 -0.2744 -0.0264
  992YOPC   C1B14259   1.826   4.254   6.680  0.0054  0.0093  0.2242
  992YOPC   C2B14260   2.020   4.496   6.975  0.1381 -0.0083  0.2567
  992YOPC   D3B14261   1.908   4.612   7.428 -0.0305  0.0976  0.1732
  992YOPC   C4B14262   1.758   4.876   7.602  0.0585 -0.2438 -0.0692
  993YOPC   NC314263   1.092  13.135   5.937  0.1390  0.0430  0.1760
  993YOPC   PO414264   1.466  12.778   6.146  0.2811 -0.2484  0.3342
  993YOPC   GL114265   1.824  12.697   6.442  0.0784  0.1413 -0.1281
  993YOPC   GL214266   2.065  12.832   6.322 -0.2447 -0.0402 -0.1908
  993YOPC   C1A14267   2.040  12.652   6.783 -0.2057 -0.0372  0.1460
  993YOPC   D2A14268   2.377  12.724   7.169  0.1423 -0.3364  0.0967
  993YOPC   C3A14269   2.442  12.623   7.600  0.1541 -0.0932  0.0557
  993YOPC   C4A14270   2.558  12.456   7.963 -0.0849  0.0914  0.3113
  993YOPC   C1B14271   2.357  13.003   6.588  0.2045  0.3190 -0.2466
  993YOPC   C2B14272   2.547  13.133   6.894 -0.2353 -0.2031 -0.0311
  993YOPC   D3B14273   2.536  13.152   7.418 -0.1538  0.1826 -0.0761
  993YOPC   C4B14274   2.346  13.300   7.802 -0.0512 -0.0027  0.0170
  994YOPC   NC314275  17.799   4.620   5.687 -0.1206  0.0313 -0.1560
  994YOPC   PO414276  18.255   4.699   5.820 -0.0709 -0.2417 -0.0054
  994YOPC   GL114277  18.311   4.672   6.272 -0.1030  0.1808  0.1685
  994YOPC   GL214278  18.388   4.380   6.411 -0.0926  0.1470  0.1067
  994YOPC   C1A14279  18.541   4.990   6.585  0.3367 -0.1590  0.2859
  994YOPC   D2A14280  18.776   5.379   6.716 -0.2192 -0.1004 -0.2507
  994YOPC   C3A14281  18.702   5.445   7.149  0.1169 -0.1408 -0.0060
  994YOPC   C4A14282  18.654   5.504   7.609  0.1527 -0.0849  0.2323
  994YOPC   C1B14283  18.186   4.543   6.757 -0.2740  0.3512  0.3348
  994YOPC   C2B14284  17.981   4.650   7.154  0.4945  0.2388  0.0556
  994YOPC   D3B14285  18.143   4.626   7.575  0.0258 -0.4681 -0.4678
  994YOPC   C4B14286  18.299   4.322   7.866  0.2184 -0.0735  0.1671
  995YOPC   NC314287  14.400   1.765   5.876 -0.2159 -0.1740  0.1173
  995YOPC   PO414288  14.054   1.915   6.097 -0.1985 -0.2052 -0.0798
  995YOPC   GL114289  13.880   1.642   6.339 -0.2570  0.0430 -0.2370
  995YOPC   GL214290  13.547   1.806   6.414 -0.2161  0.0215 -0.1417
  995YOPC   C1A14291  14.057   1.339   6.698 -0.2472  0.0899 -0.1491
  995YOPC   D2A14292  13.647   1.113   6.873  0.2219 -0.1260  0.1170
  995YOPC   C3A14293  13.476   0.807   7.201 -0.0083  0.2799  0.0807
  995YOPC   C4A14294  13.328   0.572   7.592 -0.1739 -0.1368  0.0899
  995YOPC   C1B14295  13.710   1.721   6.823 -0.0274  0.1205 -0.0808
  995YOPC   C2B14296  13.990   1.756   7.121 -0.1238  0.2343  0.2231
  995YOPC   D3B14297  14.398   1.466   7.035 -0.0659 -0.1584  0.4358
  995YOPC   C4B14298  14.784   1.544   6.757 -0.1485  0.2392 -0.2559
  996YOPC   NC314299   0.139   2.973   5.952  0.2442 -0.1349 -0.2537
  996YOPC   PO414300   0.473   3.274   5.880 -0.2175  0.1585 -0.1549
  996YOPC   GL114301   0.492   3.492   6.250 -0.2117  0.1254  0.1281
  996YOPC   GL214302   0.181   3.313   6.382 -0.1479 -0.0296  0.1208
  996YOPC   C1A14303   0.448   3.574   6.727  0.0869  0.0300  0.1563
  996YOPC   D2A14304   0.774   3.621   6.967 -0.0973 -0.1060 -0.1264
  996YOPC   C3A14305   0.693   3.636   7.420 -0.2707  0.0570 -0.3042
  996YOPC   C4A14306   0.359   3.493   7.677  0.0230  0.1787 -0.0028
  996YOPC   C1B14307   0.219   3.095   6.817  0.2002 -0.4712 -0.0825
  996YOPC   C2B14308   0.375   3.281   7.234  0.1660  0.0332  0.0932
  996YOPC   D3B14309   0.237   3.655   7.206 -0.1704  0.0511  0.2260
  996YOPC   C4B14310   0.018   3.896   7.372  0.2517  0.1347 -0.1180
  997YOPC   NC314311   0.327  14.152   6.586 -0.0992 -0.1218 -0.1240
  997YOPC   PO414312   0.317  13.817   6.413  0.1949  0.0125 -0.1852
  997YOPC   GL114313   0.082  13.710   6.765  0.1386  0.1331  0.0431
  997YOPC   GL214314  -0.235  13.624   6.835  0.0571 -0.2128 -0.0656
  997YOPC   C1A14315   0.124  13.526   7.133 -0.0517  0.1141 -0.3196
  997YOPC   D2A14316  -0.050  13.337   7.596  0.1485  0.3558  0.0150
  997YOPC   C3A14317   0.022  13.590   7.950 -0.0960 -0.2814  0.2112
  997YOPC   C4A14318   0.070  13.861   8.283  0.2635 -0.0285  0.2878
  997YOPC   C1B14319  -0.424  13.809   7.185  0.0552  0.2079 -0.0983
  997YOPC   C2B14320  -0.207  13.921   7.554 -0.2415  0.0711 -0.0583
  997YOPC   D3B14321  -0.453  13.787   7.874  0.0744 -0.2048 -0.3105
  997YOPC   C4B14322  -0.483  14.014   8.329  0.5289 -0.2117  0.0230
  998YOPC   NC314323   8.246  15.493   6.136  0.1200  0.0811 -0.3304
  998YOPC   PO414324   8.406  15.098   5.937 -0.3342  0.4227 -0.0401
  998YOPC   GL114325   8.516  14.860   6.313  0.2279 -0.0950 -0.1395
  998YOPC   GL214326   8.379  15.153   6.540  0.3204 -0.2254  0.0954
  998YOPC   C1A14327   8.568  14.488   6.580 -0.0153  0.1062  0.2329
  998YOPC   D2A14328   8.868  14.142   6.562 -0.1284 -0.0661  0.0307
  998YOPC   C3A14329   9.070  14.059   6.927 -0.0584  0.1597 -0.3811
  998YOPC   C4A14330   8.900  13.784   7.254 -0.1010 -0.0700 -0.1546
  998YOPC   C1B14331   8.120  14.793   6.678  0.2236 -0.0090 -0.3458
  998YOPC   C2B14332   8.112  14.367   6.493  0.0940 -0.0324  0.2063
  998YOPC   D3B14333   7.668  14.231   6.352  0.0490 -0.2197 -0.3372
  998YOPC   C4B14334   7.360  13.975   6.592  0.1297  0.0252 -0.1755
  999YOPC   NC314335  11.733  13.409   6.151  0.1545 -0.1548  0.1673
  999YOPC   PO414336  11.275  13.563   6.185 -0.0023 -0.0575  0.4174
  999YOPC   GL114337  11.015  13.545   6.592  0.0576  0.1619 -0.0017
  999YOPC   GL214338  10.760  13.552   6.405  0.0644  0.0218  0.1754
  999YOPC   C1A14339  10.776  13.576   6.944 -0.0328  0.0618 -0.0849
  999YOPC   D2A14340  10.655  13.596   7.421 -0.2523 -0.0575 -0.2770
  999YOPC   C3A14341  10.860  13.995   7.654  0.0232  0.1899 -0.0898
  999YOPC   C4A14342  10.865  14.509   7.661 -0.3355 -0.0135 -0.3913
  999YOPC   C1B14343  10.574  13.206   6.650 -0.1112 -0.2200  0.3311
  999YOPC   C2B14344  10.325  13.210   7.028  0.1075 -0.0797 -0.0950
  999YOPC   D3B14345  10.504  13.126   7.424 -0.3388 -0.2125  0.1884
  999YOPC   C4B14346  10.583  13.022   7.826  0.1681 -0.0570 -0.1919
 1000YOPC   NC314347   4.537   7.058   5.433 -0.3603  0.0034 -0.1702
 1000YOPC   PO414348   4.905   6.879   5.710 -0.0219 -0.2693  0.0533
 1000YOPC   GL114349   4.941   6.570   5.956  0.0095 -0.4421 -0.0781
 1000YOPC   GL214350   5.225   6.743   6.089  0.1955 -0.0833 -0.0998
 1000YOPC   C1A14351   4.837   6.400   6.354  0.2318  0.0207 -0.2054
 1000YOPC   D2A14352   4.700   6.479   6.772  0.2417  0.3489  0.0843
 1000YOPC   C3A14353   4.357   6.785   6.907  0.0649  0.0192 -0.0563
 1000YOPC   C4A14354   4.102   7.119   7.087  0.0710  0.1238  0.3593
 1000YOPC   C1B14355   4.980   6.864   6.516  0.1276 -0.0723 -0.0625
 1000YOPC   C2B14356   5.008   7.008   6.911  0.0766  0.3771  0.0240
 1000YOPC   D3B14357   5.143   7.299   7.069  0.1606  0.2102  0.0975
 1000YOPC   C4B14358   5.027   7.505   7.366  0.2578  0.2202 -0.1561
 1001YOPC   NC314359   1.041  10.400   6.313 -0.0308 -0.0944 -0.2085
 1001YOPC   PO414360   1.495  10.163   6.140 -0.2903  0.4339  0.3370
 1001YOPC   GL114361   1.634  10.059   6.513 -0.0566 -0.1991  0.0627
 1001YOPC   GL214362   1.918  10.066   6.503  0.1239 -0.1157  0.2682
 1001YOPC   C1A14363   1.666   9.926   6.991 -0.3700 -0.2751  0.0439
 1001YOPC   D2A14364   1.568   9.662   7.423 -0.1906 -0.0947  0.1008
 1001YOPC   C3A14365   1.830   9.640   7.802  0.2228 -0.0503 -0.0731
 1001YOPC   C4A14366   2.057   9.730   8.195 -0.0477 -0.0063  0.0652
 1001YOPC   C1B14367   2.184   9.956   6.905  0.2703 -0.1155 -0.0040
 1001YOPC   C2B14368   2.098   9.574   7.224  0.1331 -0.0616  0.1102
 1001YOPC   D3B14369   2.285   9.260   7.317 -0.1369 -0.0232 -0.0986
 1001YOPC   C4B14370   2.454   9.063   7.598  0.0526  0.0535  0.0974
 1002YOPC   NC314371  10.235  10.230   5.299 -0.0245  0.0123  0.2956
 1002YOPC   PO414372  10.485   9.986   5.642 -0.1289 -0.0814  0.0299
 1002YOPC   GL114373  10.356   9.940   6.075 -0.0796 -0.0394 -0.0575
 1002YOPC   GL214374   9.998   9.850   6.259 -0.4825 -0.1051  0.3762
 1002YOPC   C1A14375  10.271  10.324   6.309 -0.0197  0.0548  0.1350
 1002YOPC   D2A14376  10.356  10.591   6.527 -0.1735 -0.1724  0.2875
 1002YOPC   C3A14377  10.665  10.595   6.820  0.0118 -0.4175  0.1844
 1002YOPC   C4A14378  10.794  10.924   6.896  0.1483  0.0912 -0.0629
 1002YOPC   C1B14379  10.177   9.925   6.617  0.3576 -0.0633 -0.4566
 1002YOPC   C2B14380  10.277  10.276   6.913 -0.2057 -0.0163 -0.1563
 1002YOPC   D3B14381   9.873  10.525   7.161 -0.0560 -0.1438  0.1801
 1002YOPC   C4B14382   9.684  10.680   7.609  0.1339  0.0389 -0.1130
 1003YOPC   NC314383   1.743   6.188   5.503  0.0778  0.1014 -0.0749
 1003YOPC   PO414384   2.019   5.981   5.279  0.0581  0.1519  0.0591
 1003YOPC   GL114385   1.966   5.792   5.758  0.0145  0.1678  0.1532
 1003YOPC   GL214386   2.020   6.097   5.980 -0.1359  0.3216  0.0207
 1003YOPC   C1A14387   1.651   5.683   6.060  0.1081  0.3227  0.0973
 1003YOPC   D2A14388   1.568   5.534   6.503 -0.1032 -0.1571 -0.0468
 1003YOPC   C3A14389   1.569   5.588   6.921  0.0717 -0.0674 -0.1274
 1003YOPC   C4A14390   1.423   5.511   7.308 -0.2443  0.1827  0.0748
 1003YOPC   C1B14391   2.228   6.020   6.346 -0.3845 -0.1479 -0.3546
 1003YOPC   C2B14392   2.380   5.862   6.698  0.0903  0.0677  0.0059
 1003YOPC   D3B14393   2.208   5.964   7.146 -0.0647 -0.1480  0.1671
 1003YOPC   C4B14394   2.027   6.181   7.513  0.2148 -0.0183 -0.2446
 1004YOPC   NC314395   5.542   3.138   5.564 -0.1492 -0.2232  0.4488
 1004YOPC   PO414396   5.321   2.944   5.808 -0.2980  0.1112  0.1238
 1004YOPC   GL114397   5.396   3.278   6.163 -0.2307 -0.3700 -0.0927
 1004YOPC   GL214398   5.706   3.310   6.174 -0.2724 -0.2820  0.3148
 1004YOPC   C1A14399   5.225   3.358   6.493 -0.2160  0.1077 -0.1200
 1004YOPC   D2A14400   5.155   3.574   6.751 -0.3221 -0.0211 -0.1280
 1004YOPC   C3A14401   4.864   3.479   6.958 -0.0735 -0.1341  0.0972
 1004YOPC   C4A14402   4.459   3.260   6.869 -0.0819  0.0963 -0.0863
 1004YOPC   C1B14403   5.769   3.594   6.550  0.0295 -0.1372  0.2845
 1004YOPC   C2B14404   5.499   3.926   6.575 -0.0324 -0.0902  0.1287
 1004YOPC   D3B14405   5.518   4.212   6.867  0.0454 -0.0469 -0.3068
 1004YOPC   C4B14406   5.891   4.176   7.120 -0.4117  0.2092 -0.1492
 1005YOPC   NC314407  15.042  12.035   6.203  0.1747  0.0862 -0.0286
 1005YOPC   PO414408  14.787  12.271   6.192 -0.1075  0.0612  0.0064
 1005YOPC   GL114409  14.938  12.345   6.603  0.1209  0.2635 -0.4080
 1005YOPC   GL214410  15.295  12.328   6.605 -0.0900  0.1940 -0.0820
 1005YOPC   C1A14411  14.797  12.444   7.022 -0.0941 -0.1062  0.3079
 1005YOPC   D2A14412  14.620  12.513   7.442 -0.0872 -0.1806  0.3804
 1005YOPC   C3A14413  14.565  12.718   7.835  0.0688 -0.1637 -0.0155
 1005YOPC   C4A14414  14.613  12.567   8.150  0.5694  0.1551 -0.1436
 1005YOPC   C1B14415  15.366  12.605   6.928 -0.3295 -0.3308  0.0570
 1005YOPC   C2B14416  15.108  12.716   7.275 -0.0118  0.0362  0.3196
 1005YOPC   D3B14417  15.120  12.692   7.634  0.0005 -0.0094  0.0142
 1005YOPC   C4B14418  15.023  12.850   7.963  0.1757 -0.0526 -0.0072
 1006YOPC   NC314419  13.359  14.020   6.046  0.0913 -0.2716  0.4942
 1006YOPC   PO414420  13.553  13.658   6.061 -0.0982 -0.3509  0.1439
 1006YOPC   GL114421  13.328  13.552   6.357 -0.2058  0.1018 -0.0879
 1006YOPC   GL214422  13.201  13.838   6.512 -0.2339  0.1046 -0.0023
 1006YOPC   C1A14423  13.326  13.519   6.861  0.2157  0.3362 -0.1827
 1006YOPC   D2A14424  13.380  13.511   7.299  0.3131 -0.2298 -0.0716
 1006YOPC   C3A14425  13.608  13.684   7.696  0.0344  0.1821 -0.1438
 1006YOPC   C4A14426  13.845  13.943   8.032  0.0940 -0.2114  0.1896
 1006YOPC   C1B14427  13.629  13.894   6.689  0.2777  0.1878  0.1123
 1006YOPC   C2B14428  14.054  13.983   6.879  0.0122 -0.1606 -0.0975
 1006YOPC   D3B14429  14.271  13.695   7.230 -0.1308  0.2631  0.0194
 1006YOPC   C4B14430  14.496  13.353   7.264  0.2255 -0.2107  0.1593
 1007YOPC   NC314431   9.251  13.265   5.848  0.0039  0.0783 -0.0038
 1007YOPC   PO414432   9.159  12.865   5.969  0.1430  0.0229 -0.0202
 1007YOPC   GL114433   9.047  12.947   6.295  0.2984 -0.3174  0.0186
 1007YOPC   GL214434   8.958  13.174   6.373  0.0813  0.1695 -0.3379
 1007YOPC   C1A14435   8.895  12.597   6.576 -0.0196  0.1321  0.2577
 1007YOPC   D2A14436   8.951  12.431   7.011 -0.1079  0.2925 -0.1930
 1007YOPC   C3A14437   9.169  12.056   7.053  0.0262 -0.0970  0.0673
 1007YOPC   C4A14438   9.136  11.693   6.784 -0.2679  0.2605 -0.0555
 1007YOPC   C1B14439   9.069  13.060   6.842  0.1538 -0.3262  0.2114
 1007YOPC   C2B14440   9.135  12.884   7.173  0.0639  0.0077  0.0036
 1007YOPC   D3B14441   9.267  12.963   7.534  0.0808 -0.1567 -0.1600
 1007YOPC   C4B14442   9.164  13.264   7.844  0.4105  0.0734  0.0742
 1008YOPC   NC314443   2.251  11.030   6.008 -0.2537 -0.1890  0.0561
 1008YOPC   PO414444   2.610  11.127   6.062 -0.0417 -0.0962 -0.3128
 1008YOPC   GL114445   2.501  11.199   6.541  0.1546  0.0563  0.3537
 1008YOPC   GL214446   2.514  10.915   6.504 -0.1599 -0.0092  0.0371
 1008YOPC   C1A14447   2.593  11.352   6.899  0.1397  0.2043 -0.1519
 1008YOPC   D2A14448   2.286  11.286   7.266 -0.0026 -0.1212  0.3860
 1008YOPC   C3A14449   2.377  11.311   7.600 -0.0038 -0.1707 -0.2475
 1008YOPC   C4A14450   2.589  11.424   7.955 -0.0622  0.2955 -0.2042
 1008YOPC   C1B14451   2.593  10.828   6.981 -0.1385 -0.0787 -0.0029
 1008YOPC   C2B14452   2.769  10.648   7.361 -0.0737  0.1947 -0.0594
 1008YOPC   D3B14453   2.730  10.968   7.673 -0.2297  0.1102  0.0005
 1008YOPC   C4B14454   3.044  11.115   7.785 -0.3582  0.0978 -0.0002
 1009YOPC   NC314455  17.766   9.406   6.316 -0.3067 -0.1957  0.2405
 1009YOPC   PO414456  18.035   9.810   6.517 -0.0839 -0.3170  0.0291
 1009YOPC   GL114457  18.137  10.017   6.923 -0.0757 -0.0806  0.4245
 1009YOPC   GL214458  18.421  10.182   6.948 -0.3326  0.1765  0.2528
 1009YOPC   C1A14459  18.162  10.394   7.272 -0.0758  0.0693  0.1799
 1009YOPC   D2A14460  17.927  10.576   7.546 -0.1403 -0.1374  0.2174
 1009YOPC   C3A14461  18.182  10.707   7.930  0.1208  0.1796 -0.0937
 1009YOPC   C4A14462  18.392  10.758   8.169  0.0411  0.0303 -0.0336
 1009YOPC   C1B14463  18.683  10.457   7.293 -0.0667 -0.1043  0.1700
 1009YOPC   C2B14464  18.642  10.507   7.718 -0.4703 -0.2963 -0.3118
 1009YOPC   D3B14465  18.854  10.753   7.990 -0.0980  0.2130 -0.0303
 1009YOPC   C4B14466  19.139  10.815   8.328  0.1781 -0.2078 -0.1426
 1010YOPC   NC314467   2.401   9.578   5.806 -0.0381 -0.0541  0.0317
 1010YOPC   PO414468   2.165   9.652   6.174  0.0162  0.2800  0.2507
 1010YOPC   GL114469   1.979   9.465   6.529 -0.1416 -0.2197 -0.1651
 1010YOPC   GL214470   1.798   9.564   6.653 -0.1130 -0.1912  0.0666
 1010YOPC   C1A14471   1.960   9.104   6.921 -0.0650  0.1673 -0.0133
 1010YOPC   D2A14472   1.961   8.682   6.880  0.0830  0.2271 -0.0971
 1010YOPC   C3A14473   1.810   8.356   7.124  0.2215  0.0856 -0.0361
 1010YOPC   C4A14474   1.800   8.276   7.579  0.2399  0.0206 -0.1063
 1010YOPC   C1B14475   1.369   9.625   6.743  0.1271 -0.2453  0.1697
 1010YOPC   C2B14476   1.151   9.991   6.825 -0.0598 -0.0513  0.2605
 1010YOPC   D3B14477   1.420  10.355   6.997 -0.1073  0.0722 -0.0862
 1010YOPC   C4B14478   1.589  10.806   7.088  0.1730  0.2770 -0.0540
 1011YOPC   NC314479   6.382   8.472   5.155 -0.2131 -0.1786  0.1685
 1011YOPC   PO414480   6.512   8.205   5.553  0.4511 -0.2386 -0.1278
 1011YOPC   GL114481   6.448   7.966   5.975  0.1167  0.1893  0.2883
 1011YOPC   GL214482   6.733   8.064   6.025  0.2733  0.0905  0.0873
 1011YOPC   C1A14483   6.279   7.654   6.370 -0.1567 -0.0102  0.1088
 1011YOPC   D2A14484   6.004   7.447   6.695 -0.1034  0.0532  0.2244
 1011YOPC   C3A14485   6.114   7.163   6.971 -0.3740  0.1754  0.0026
 1011YOPC   C4A14486   6.203   6.780   7.055 -0.2196  0.0308  0.4418
 1011YOPC   C1B14487   6.743   8.068   6.413 -0.0576  0.3947 -0.0282
 1011YOPC   C2B14488   6.657   7.769   6.716 -0.1278 -0.1990  0.2366
 1011YOPC   D3B14489   6.494   7.394   6.735  0.0897  0.2863 -0.3771
 1011YOPC   C4B14490   6.618   7.032   6.880  0.2560 -0.1422 -0.0364
 1012YOPC   NC314491   8.763   1.089   5.965  0.0446 -0.1848  0.0493
 1012YOPC   PO414492   8.621   1.577   6.143  0.0063 -0.3246  0.2225
 1012YOPC   GL114493   8.587   1.633   6.575 -0.0204  0.0442 -0.0966
 1012YOPC   GL214494   8.445   1.908   6.556 -0.1063  0.0936 -0.3751
 1012YOPC   C1A14495   8.732   1.789   7.022 -0.0170  0.0300  0.0322
 1012YOPC   D2A14496   8.846   1.610   7.288 -0.1474 -0.0286 -0.0484
 1012YOPC   C3A14497   9.096   1.256   7.292  0.0491  0.0370  0.0030
 1012YOPC   C4A14498   9.508   1.086   7.410  0.2037  0.0160  0.0475
 1012YOPC   C1B14499   8.392   2.197   6.892  0.0440 -0.0552 -0.1830
 1012YOPC   C2B14500   8.307   2.033   7.303 -0.0921  0.1839 -0.1163
 1012YOPC   D3B14501   8.574   2.090   7.497  0.1273 -0.0691 -0.1861
 1012YOPC   C4B14502   8.874   1.863   7.719 -0.1880  0.2825 -0.0327
 1013YOPC   NC314503  12.336   9.533   5.710  0.4300  0.1429  0.2075
 1013YOPC   PO414504  12.546   9.857   5.640 -0.1333 -0.0360 -0.0675
 1013YOPC   GL114505  12.377   9.828   6.100 -0.1540  0.1311 -0.1797
 1013YOPC   GL214506  12.340  10.132   6.131  0.1677 -0.2465 -0.2748
 1013YOPC   C1A14507  12.029   9.683   6.259 -0.1822 -0.0751  0.0572
 1013YOPC   D2A14508  11.724   9.922   6.444 -0.1167  0.0517  0.0978
 1013YOPC   C3A14509  11.806  10.219   6.791 -0.1870 -0.0477 -0.0876
 1013YOPC   C4A14510  11.672  10.577   7.044 -0.1796 -0.0083  0.2379
 1013YOPC   C1B14511  12.208  10.120   6.497 -0.1193 -0.2860 -0.1453
 1013YOPC   C2B14512  12.089   9.812   6.759 -0.1727 -0.0578 -0.2013
 1013YOPC   D3B14513  11.952   9.874   7.135  0.1467  0.3229  0.2039
 1013YOPC   C4B14514  11.618  10.135   7.285  0.1735  0.0591 -0.0207
 1014YOPC   NC314515   0.462  10.896   5.955 -0.2013 -0.1414 -0.2034
 1014YOPC   PO414516   0.632  11.287   6.257 -0.1490  0.1224 -0.1853
 1014YOPC   GL114517   0.942  11.287   6.521 -0.1520 -0.2287 -0.0660
 1014YOPC   GL214518   1.207  11.500   6.533  0.0479  0.3116  0.1685
 1014YOPC   C1A14519   0.961  11.136   6.937  0.0680 -0.0591  0.0427
 1014YOPC   D2A14520   1.178  11.038   7.362 -0.1782 -0.0768  0.1235
 1014YOPC   C3A14521   1.280  10.567   7.452  0.1249 -0.2259  0.0233
 1014YOPC   C4A14522   1.346  10.088   7.400 -0.0691  0.0358 -0.0441
 1014YOPC   C1B14523   1.281  11.887   6.738  0.0120  0.1346  0.1013
 1014YOPC   C2B14524   1.323  12.062   7.138 -0.0465 -0.0244 -0.0352
 1014YOPC   D3B14525   1.337  11.999   7.647 -0.1316  0.0511 -0.1449
 1014YOPC   C4B14526   1.178  11.902   8.073  0.0778 -0.0406 -0.1860
 1015YOPC   NC314527  10.391   9.505   5.794 -0.1985  0.3205 -0.1971
 1015YOPC   PO414528  10.393   9.147   5.499 -0.1273 -0.0643 -0.1028
 1015YOPC   GL114529  10.247   8.890   5.824 -0.1606 -0.0781 -0.1881
 1015YOPC   GL214530  10.305   9.062   6.078 -0.2063 -0.0373  0.1671
 1015YOPC   C1A14531  10.080   8.545   6.117  0.1554  0.0165  0.1687
 1015YOPC   D2A14532  10.112   8.110   6.157  0.4751 -0.0377 -0.2731
 1015YOPC   C3A14533  10.343   8.085   6.489  0.1502 -0.3445 -0.0286
 1015YOPC   C4A14534  10.410   8.549   6.580  0.0389  0.0636 -0.1109
 1015YOPC   C1B14535  10.300   9.474   6.457 -0.3744  0.0578  0.0561
 1015YOPC   C2B14536  10.300   9.456   6.872 -0.0093 -0.1151 -0.1042
 1015YOPC   D3B14537  10.008   9.650   7.079 -0.3184  0.2794 -0.1303
 1015YOPC   C4B14538   9.569   9.799   7.203  0.0062  0.0005  0.0090
 1016YOPC   NC314539  16.194   4.838   5.841 -0.3097 -0.0542 -0.1871
 1016YOPC   PO414540  15.815   4.565   5.852  0.0913 -0.2145 -0.2321
 1016YOPC   GL114541  15.634   4.206   6.118  0.0762 -0.2061  0.2136
 1016YOPC   GL214542  15.820   4.126   6.393 -0.0711 -0.1548 -0.0100
 1016YOPC   C1A14543  15.362   4.178   6.477 -0.1474  0.2208  0.0624
 1016YOPC   D2A14544  15.370   4.356   6.869  0.2028 -0.1945 -0.1512
 1016YOPC   C3A14545  15.103   4.515   7.205  0.0062  0.0109 -0.1501
 1016YOPC   C4A14546  14.851   4.488   7.538  0.1330 -0.3111 -0.2684
 1016YOPC   C1B14547  15.773   4.065   6.801  0.0011 -0.0779 -0.3871
 1016YOPC   C2B14548  15.631   4.189   7.270  0.1192 -0.2788 -0.1132
 1016YOPC   D3B14549  15.582   4.616   7.304  0.2182  0.3641 -0.1218
 1016YOPC   C4B14550  15.451   4.802   6.915 -0.0038  0.2564 -0.2228
 1017YOPC   NC314551  11.667  14.335   5.706  0.1017  0.0225 -0.1364
 1017YOPC   PO414552  11.388  14.335   6.028  0.1347  0.2643 -0.0260
 1017YOPC   GL114553  11.512  14.516   6.465 -0.0695 -0.0036  0.1725
 1017YOPC   GL214554  11.252  14.639   6.656  0.0207  0.1280  0.2562
 1017YOPC   C1A14555  11.587  14.437   6.948  0.0629 -0.2241 -0.3837
 1017YOPC   D2A14556  11.770  14.237   7.322  0.0501  0.0350 -0.0350
 1017YOPC   C3A14557  12.052  14.430   7.681 -0.2013  0.0163  0.1003
 1017YOPC   C4A14558  12.427  14.369   7.985  0.1251  0.0272  0.2457
 1017YOPC   C1B14559  11.329  14.869   7.057 -0.2047  0.2122 -0.2248
 1017YOPC   C2B14560  11.106  14.933   7.465 -0.1432 -0.0981 -0.2903
 1017YOPC   D3B14561  11.208  15.172   7.789 -0.1676 -0.1093  0.0928
 1017YOPC   C4B14562  11.225  15.457   8.174 -0.0600 -0.1083  0.2726
 1018YOPC   NC314563   7.842   3.398   6.161  0.1762  0.0361 -0.0090
 1018YOPC   PO414564   7.584   3.003   6.122  0.2398  0.1039  0.2674
 1018YOPC   GL114565   7.521   3.040   6.570 -0.1735 -0.2415  0.1492
 1018YOPC   GL214566   7.739   3.341   6.664 -0.1622  0.0439  0.2207
 1018YOPC   C1A14567   7.512   2.918   6.973 -0.1614 -0.1725 -0.1507
 1018YOPC   D2A14568   7.812   2.729   7.367 -0.1414  0.0003 -0.0702
 1018YOPC   C3A14569   7.697   2.600   7.841  0.1127  0.2009  0.1684
 1018YOPC   C4A14570   7.468   2.666   8.169  0.1301  0.1701 -0.1107
 1018YOPC   C1B14571   7.781   3.289   7.148 -0.2530 -0.0800  0.1643
 1018YOPC   C2B14572   7.546   3.164   7.421 -0.1905  0.2895 -0.0186
 1018YOPC   D3B14573   7.535   3.042   7.820 -0.2857  0.1860 -0.0479
 1018YOPC   C4B14574   7.700   3.159   8.146  0.0045 -0.2916  0.2926
 1019YOPC   NC314575  11.735   7.746   5.140  0.0678 -0.1549 -0.2749
 1019YOPC   PO414576  11.874   7.689   5.552 -0.1427 -0.1961 -0.6425
 1019YOPC   GL114577  11.935   7.618   5.961  0.0179  0.0053 -0.1413
 1019YOPC   GL214578  12.193   7.689   6.079 -0.1464  0.2554  0.0202
 1019YOPC   C1A14579  11.801   7.618   6.387  0.0705  0.3813  0.3443
 1019YOPC   D2A14580  11.987   7.582   6.717 -0.0464  0.4015  0.1563
 1019YOPC   C3A14581  11.711   7.617   7.180  0.2711  0.1234 -0.0792
 1019YOPC   C4A14582  11.908   7.784   7.543 -0.3860  0.1122  0.1312
 1019YOPC   C1B14583  12.414   7.716   6.435  0.1587 -0.1424 -0.0511
 1019YOPC   C2B14584  12.728   7.522   6.617 -0.0958 -0.0780 -0.0422
 1019YOPC   D3B14585  12.874   7.594   7.033  0.2834 -0.0800 -0.1077
 1019YOPC   C4B14586  12.710   7.646   7.331  0.1985 -0.0356 -0.3222
 1020YOPC   NC314587  13.965  14.693   5.756 -0.0017  0.1371  0.1004
 1020YOPC   PO414588  14.144  14.567   6.098  0.0714  0.2234  0.1632
 1020YOPC   GL114589  14.161  14.291   6.451 -0.0884 -0.0149 -0.0626
 1020YOPC   GL214590  14.209  14.487   6.694 -0.0229 -0.0867  0.2502
 1020YOPC   C1A14591  14.534  14.142   6.759  0.2611  0.0694  0.2168
 1020YOPC   D2A14592  15.032  14.110   6.887 -0.1615  0.0096  0.1975
 1020YOPC   C3A14593  15.118  14.011   7.308 -0.3216 -0.1815  0.0191
 1020YOPC   C4A14594  15.055  13.955   7.721 -0.3457 -0.0195 -0.0592
 1020YOPC   C1B14595  14.490  14.610   7.101  0.1447 -0.1339  0.1127
 1020YOPC   C2B14596  14.437  14.723   7.463  0.2225  0.0793  0.1127
 1020YOPC   D3B14597  14.671  14.406   7.650  0.0256  0.2432 -0.1964
 1020YOPC   C4B14598  14.975  14.398   8.002  0.1257 -0.0562  0.3263
 1021YOPC   NC314599   7.652   7.393   5.547 -0.0143  0.3233 -0.1259
 1021YOPC   PO414600   7.297   7.901   5.435  0.1255 -0.2806  0.0401
 1021YOPC   GL114601   7.199   7.834   5.892  0.0916  0.1516  0.4235
 1021YOPC   GL214602   7.219   7.977   6.138 -0.0961  0.2810 -0.0603
 1021YOPC   C1A14603   6.883   7.607   6.217 -0.0686  0.0316 -0.1238
 1021YOPC   D2A14604   6.657   7.211   6.309 -0.0540  0.1101 -0.2211
 1021YOPC   C3A14605   6.840   6.863   6.454  0.0902 -0.0705  0.1297
 1021YOPC   C4A14606   7.108   6.742   6.699 -0.1935  0.1253 -0.2747
 1021YOPC   C1B14607   7.205   7.743   6.607  0.5095 -0.2974 -0.1359
 1021YOPC   C2B14608   7.093   7.805   6.947  0.0530  0.1733  0.0944
 1021YOPC   D3B14609   6.775   7.553   7.093  0.0461  0.3566 -0.1978
 1021YOPC   C4B14610   6.444   7.360   7.231 -0.1041  0.1211 -0.1238
 1022YOPC   NC314611   4.287  14.136   5.726  0.1179 -0.2699  0.0242
 1022YOPC   PO414612   4.145  13.858   6.056 -0.0064 -0.2802 -0.0909
 1022YOPC   GL114613   4.065  14.093   6.375 -0.0700  0.1754  0.2525
 1022YOPC   GL214614   3.796  13.863   6.471  0.0727  0.0131 -0.2560
 1022YOPC   C1A14615   4.168  14.058   6.854 -0.1512  0.3359  0.0842
 1022YOPC   D2A14616   4.111  14.272   7.226  0.1345 -0.0022 -0.3519
 1022YOPC   C3A14617   3.802  14.299   7.512  0.2585  0.1644 -0.1182
 1022YOPC   C4A14618   3.322  14.283   7.569  0.0555 -0.1307  0.0419
 1022YOPC   C1B14619   3.930  13.596   6.955 -0.1155 -0.2782  0.0302
 1022YOPC   C2B14620   4.112  13.799   7.359  0.1939 -0.3570  0.0375
 1022YOPC   D3B14621   3.958  13.829   7.782  0.2914  0.0836  0.0576
 1022YOPC   C4B14622   3.790  13.959   8.161  0.2420  0.1713 -0.0804
 1023YOPC   NC314623  15.135  10.556   6.573  0.0781  0.0623 -0.0281
 1023YOPC   PO414624  14.723  10.423   6.383  0.0799 -0.1031 -0.4025
 1023YOPC   GL114625  14.762  10.214   6.761  0.1910  0.1608 -0.3711
 1023YOPC   GL214626  14.390  10.112   6.874 -0.0116 -0.0538 -0.1866
 1023YOPC   C1A14627  14.885  10.307   7.131 -0.1404 -0.0495 -0.0812
 1023YOPC   D2A14628  14.823  10.481   7.523 -0.0160  0.2711 -0.0338
 1023YOPC   C3A14629  14.562  10.840   7.535 -0.2511 -0.4220  0.1128
 1023YOPC   C4A14630  14.120  10.730   7.651 -0.0528  0.2847  0.3221
 1023YOPC   C1B14631  14.225   9.828   7.220  0.0121  0.1437 -0.0207
 1023YOPC   C2B14632  14.111   9.943   7.607  0.1963  0.1660  0.0889
 1023YOPC   D3B14633  14.220   9.748   7.892 -0.3849 -0.1600  0.1743
 1023YOPC   C4B14634  14.456   9.699   8.223  0.1490 -0.1188  0.0228
 1024YOPC   NC314635   8.494  10.669   5.611  0.0849  0.2902 -0.0417
 1024YOPC   PO414636   8.609  10.911   5.975  0.0522  0.1047 -0.0760
 1024YOPC   GL114637   8.438  10.787   6.308 -0.0362 -0.0901  0.3584
 1024YOPC   GL214638   8.540  10.519   6.399 -0.0294  0.0900  0.0252
 1024YOPC   C1A14639   8.063  10.885   6.479  0.2026  0.1128  0.1762
 1024YOPC   D2A14640   7.752  10.669   6.767  0.1035  0.1620 -0.1912
 1024YOPC   C3A14641   7.508  10.783   7.017  0.1465  0.0884 -0.0859
 1024YOPC   C4A14642   7.310  11.108   6.938 -0.1308 -0.2587 -0.2182
 1024YOPC   C1B14643   8.705  10.383   6.821 -0.1842  0.5497  0.1050
 1024YOPC   C2B14644   9.044  10.104   6.795 -0.2054  0.0303  0.2358
 1024YOPC   D3B14645   9.356  10.282   7.024 -0.0174 -0.2672  0.0667
 1024YOPC   C4B14646   9.396  10.643   7.206 -0.0670 -0.1820  0.3769
 1025YOPC   NC314647  11.094  17.239   5.570  0.2601  0.0169  0.1802
 1025YOPC   PO414648  11.362  17.678   5.732  0.4104  0.3166 -0.1900
 1025YOPC   GL114649  11.276  17.905   6.061 -0.0919 -0.1596  0.0443
 1025YOPC   GL214650  11.260  18.082   6.064 -0.0836 -0.0726  0.2681
 1025YOPC   C1A14651  11.360  17.735   6.405  0.0809  0.1529 -0.1644
 1025YOPC   D2A14652  11.679  17.491   6.652  0.2645 -0.0280  0.2274
 1025YOPC   C3A14653  12.142  17.578   6.630  0.2924 -0.3335 -0.1676
 1025YOPC   C4A14654  12.560  17.910   6.598 -0.0068 -0.3072 -0.1040
 1025YOPC   C1B14655  11.474  18.201   6.483  0.2489  0.2973 -0.3700
 1025YOPC   C2B14656  11.442  18.277   6.912 -0.0444 -0.0586  0.2245
 1025YOPC   D3B14657  11.526  17.892   7.127  0.1529 -0.0396 -0.0021
 1025YOPC   C4B14658  11.730  17.526   7.173  0.1832  0.0554  0.1058
 1026YOPC   NC314659  16.451   7.266   5.747  0.0621  0.2255 -0.0731
 1026YOPC   PO414660  16.501   7.118   6.200 -0.2802 -0.0983  0.0424
 1026YOPC   GL114661  16.305   6.996   6.511  0.5184 -0.0756 -0.2405
 1026YOPC   GL214662  16.189   7.313   6.562  0.0808 -0.1922  0.0137
 1026YOPC   C1A14663  16.064   6.726   6.782  0.2064  0.0159 -0.2420
 1026YOPC   D2A14664  15.854   6.534   7.013  0.1464 -0.1248 -0.0962
 1026YOPC   C3A14665  15.937   6.758   7.309 -0.0839  0.3231 -0.0982
 1026YOPC   C4A14666  15.989   7.011   7.670 -0.1544  0.0554  0.2908
 1026YOPC   C1B14667  16.340   7.439   6.888  0.0129 -0.1261 -0.1030
 1026YOPC   C2B14668  16.472   7.912   7.037  0.2917  0.0735 -0.2199
 1026YOPC   D3B14669  16.567   7.861   7.488  0.0946  0.0620 -0.0598
 1026YOPC   C4B14670  16.738   7.629   7.757  0.1154 -0.1089 -0.0838
 1027YOPC   NC314671  10.824  11.071   5.855 -0.2567 -0.1924 -0.1990
 1027YOPC   PO414672  11.037  10.721   5.934  0.1859  0.1199 -0.0663
 1027YOPC   GL114673  11.344  10.795   6.211 -0.1111  0.2889 -0.1965
 1027YOPC   GL214674  11.398  11.128   6.215  0.3345  0.0643 -0.0361
 1027YOPC   C1A14675  11.307  10.780   6.751 -0.3514  0.1315 -0.0160
 1027YOPC   D2A14676  11.224  10.903   7.175  0.2275 -0.3347  0.1446
 1027YOPC   C3A14677  11.380  10.700   7.501  0.5785 -0.2585  0.4475
 1027YOPC   C4A14678  11.144  10.715   7.914 -0.1776 -0.3189  0.0968
 1027YOPC   C1B14679  11.424  11.341   6.631  0.0008  0.0850 -0.3490
 1027YOPC   C2B14680  11.463  11.509   7.064 -0.2145 -0.2284 -0.3704
 1027YOPC   D3B14681  11.324  11.469   7.434 -0.0971  0.2937 -0.1332
 1027YOPC   C4B14682  11.237  11.181   7.758 -0.0425  0.1094  0.2181
 1028YOPC   NC314683   5.063   7.703   5.762 -0.4288 -0.1641 -0.0404
 1028YOPC   PO414684   5.420   7.452   5.740 -0.1539 -0.0984 -0.2304
 1028YOPC   GL114685   5.092   7.299   6.032  0.0190  0.0371  0.0085
 1028YOPC   GL214686   4.710   7.287   6.026  0.0188  0.0369 -0.1032
 1028YOPC   C1A14687   5.092   7.328   6.473  0.0531  0.2281  0.0046
 1028YOPC   D2A14688   4.965   7.666   6.876  0.2391 -0.0970 -0.0137
 1028YOPC   C3A14689   4.667   7.796   7.256 -0.1086 -0.1127  0.3048
 1028YOPC   C4A14690   4.591   8.272   7.415 -0.0192 -0.0601  0.1739
 1028YOPC   C1B14691   4.570   6.876   6.200  0.0655 -0.4303 -0.1056
 1028YOPC   C2B14692   4.245   6.713   6.439 -0.0129 -0.0938 -0.0163
 1028YOPC   D3B14693   3.972   6.964   6.613  0.0638  0.2496  0.0996
 1028YOPC   C4B14694   3.603   7.001   6.976  0.1294 -0.0282 -0.1233
 1029YOPC   NC314695   1.351   3.708   5.340 -0.1426 -0.1722  0.3835
 1029YOPC   PO414696   1.264   3.523   5.765  0.0277 -0.3955 -0.1225
 1029YOPC   GL114697   1.306   3.606   6.166  0.1000  0.3460 -0.1906
 1029YOPC   GL214698   0.979   3.541   6.183  0.1261  0.0179  0.3343
 1029YOPC   C1A14699   1.310   3.550   6.630  0.0688  0.1163  0.3177
 1029YOPC   D2A14700   1.577   3.561   6.908  0.0345  0.0285 -0.1542
 1029YOPC   C3A14701   1.802   3.875   6.975 -0.0151 -0.1906 -0.0580
 1029YOPC   C4A14702   1.872   4.135   7.286 -0.0137 -0.0866  0.2283
 1029YOPC   C1B14703   0.846   3.767   6.534 -0.1168  0.0248 -0.1202
 1029YOPC   C2B14704   0.517   4.092   6.636  0.0696  0.0667  0.3914
 1029YOPC   D3B14705   0.574   4.062   7.081 -0.1342  0.1254  0.1537
 1029YOPC   C4B14706   0.414   4.059   7.569  0.0004 -0.0389  0.0227
 1030YOPC   NC314707   1.318  15.845   6.075  0.0655 -0.0024  0.0761
 1030YOPC   PO414708   1.373  16.280   5.895 -0.2974  0.2138  0.0802
 1030YOPC   GL114709   1.393  16.214   6.365  0.0704 -0.5980  0.2572
 1030YOPC   GL214710   1.246  16.503   6.514 -0.0366  0.1807 -0.2084
 1030YOPC   C1A14711   1.531  16.196   6.786 -0.0834  0.0155  0.0815
 1030YOPC   D2A14712   1.694  16.248   7.157 -0.1652  0.0507  0.1827
 1030YOPC   C3A14713   1.561  16.203   7.619  0.1945 -0.2010 -0.2054
 1030YOPC   C4A14714   1.545  16.108   8.039  0.2046  0.3924 -0.0145
 1030YOPC   C1B14715   1.445  16.642   6.860 -0.2913  0.1813 -0.3217
 1030YOPC   C2B14716   1.621  16.756   7.325 -0.1491  0.5587  0.0710
 1030YOPC   D3B14717   1.600  17.052   7.688  0.0913 -0.1402 -0.1445
 1030YOPC   C4B14718   1.562  17.489   7.706  0.1608 -0.0159  0.1338
 1031YOPC   NC314719  12.497   9.075   5.393 -0.3140 -0.1835  0.3154
 1031YOPC   PO414720  12.813   9.138   5.628  0.1340  0.0647 -0.0310
 1031YOPC   GL114721  12.700   8.939   5.974  0.2146  0.0916  0.0133
 1031YOPC   GL214722  12.848   9.125   6.116 -0.3964  0.1422 -0.2159
 1031YOPC   C1A14723  12.770   8.610   6.246 -0.0578 -0.0048 -0.3275
 1031YOPC   D2A14724  12.931   8.200   6.288  0.0994 -0.1947  0.2129
 1031YOPC   C3A14725  12.836   7.990   6.724  0.0529  0.0179 -0.0315
 1031YOPC   C4A14726  12.420   7.855   6.924 -0.2579  0.2584 -0.2329
 1031YOPC   C1B14727  12.845   9.039   6.537  0.1215  0.4198  0.1852
 1031YOPC   C2B14728  13.040   9.016   7.061 -0.1999  0.1203 -0.2349
 1031YOPC   D3B14729  13.173   9.355   7.325  0.0907 -0.0913 -0.4186
 1031YOPC   C4B14730  13.365   9.235   7.826  0.0419 -0.0246 -0.1497
 1032YOPC   NC314731  18.062  15.996   6.029  0.2107 -0.3259 -0.0207
 1032YOPC   PO414732  18.305  16.465   6.042  0.0359  0.2675  0.4838
 1032YOPC   GL114733  18.372  16.819   6.430  0.2880  0.0266  0.0605
 1032YOPC   GL214734  18.074  16.973   6.517 -0.0799 -0.1647 -0.2394
 1032YOPC   C1A14735  18.612  16.918   6.790  0.0781  0.3170 -0.2519
 1032YOPC   D2A14736  18.750  17.071   7.038 -0.0078  0.0511 -0.6341
 1032YOPC   C3A14737  18.860  17.213   7.411 -0.1950  0.0877 -0.2464
 1032YOPC   C4A14738  18.741  17.496   7.527  0.2413  0.0477 -0.1474
 1032YOPC   C1B14739  18.145  16.982   6.950  0.2273 -0.0781 -0.1177
 1032YOPC   C2B14740  18.329  16.988   7.395 -0.0546 -0.0497  0.1330
 1032YOPC   D3B14741  18.309  17.356   7.640 -0.0066  0.1930 -0.0327
 1032YOPC   C4B14742  18.439  17.615   7.893  0.1768  0.2094  0.2670
 1033YOPC   NC314743  12.993   3.797   5.510 -0.3082 -0.2453  0.0473
 1033YOPC   PO414744  12.814   3.407   5.650  0.0072  0.1271 -0.0473
 1033YOPC   GL114745  12.690   3.337   6.055 -0.1309 -0.2041 -0.1989
 1033YOPC   GL214746  12.664   2.983   6.081  0.1805  0.1914  0.2778
 1033YOPC   C1A14747  12.797   3.407   6.501  0.3094  0.1090  0.0897
 1033YOPC   D2A14748  12.602   3.262   6.829  0.0002  0.1698 -0.0640
 1033YOPC   C3A14749  12.838   3.053   7.159 -0.0912 -0.1599 -0.1584
 1033YOPC   C4A14750  12.946   3.022   7.634  0.3424 -0.3099 -0.1583
 1033YOPC   C1B14751  12.488   2.839   6.517 -0.1658  0.3479 -0.0820
 1033YOPC   C2B14752  12.459   2.777   6.937 -0.4676  0.0159  0.1676
 1033YOPC   D3B14753  12.395   3.126   7.341 -0.2484  0.1562 -0.0001
 1033YOPC   C4B14754  12.367   3.566   7.385  0.1730  0.0836  0.0493
 1034YOPC   NC314755  17.253   1.208   6.074  0.2476 -0.1064  0.1938
 1034YOPC   PO414756  16.768   1.192   5.919  0.0050 -0.2804  0.0180
 1034YOPC   GL114757  16.702   1.223   6.343 -0.0384 -0.1088 -0.2419
 1034YOPC   GL214758  16.703   1.533   6.365 -0.1619 -0.0299  0.0258
 1034YOPC   C1A14759  16.571   1.002   6.816  0.0734 -0.1393 -0.2614
 1034YOPC   D2A14760  16.652   1.169   7.144  0.1050  0.2522 -0.0554
 1034YOPC   C3A14761  16.611   0.906   7.493  0.0897  0.2504  0.0867
 1034YOPC   C4A14762  16.777   0.988   7.981 -0.1184 -0.3088 -0.1481
 1034YOPC   C1B14763  16.401   1.516   6.756  0.3142  0.1292  0.2048
 1034YOPC   C2B14764  16.214   1.498   7.197  0.1721  0.1253  0.3066
 1034YOPC   D3B14765  15.833   1.376   7.212  0.1781  0.1987  0.3540
 1034YOPC   C4B14766  15.494   1.318   6.899 -0.1828 -0.4610 -0.0480
 1035YOPC   NC314767   4.003   1.183   5.687  0.0896  0.0941  0.1309
 1035YOPC   PO414768   3.929   0.750   5.884 -0.1190  0.2901 -0.2005
 1035YOPC   GL114769   3.824   0.609   6.308 -0.2275 -0.0171  0.1616
 1035YOPC   GL214770   4.062   0.462   6.419  0.1295  0.1025 -0.0009
 1035YOPC   C1A14771   3.765   0.786   6.741  0.0593  0.1523 -0.0912
 1035YOPC   D2A14772   3.708   0.634   7.198  0.1764 -0.0546  0.0130
 1035YOPC   C3A14773   3.934   0.575   7.483 -0.1339  0.0113  0.1946
 1035YOPC   C4A14774   3.977   0.355   7.895  0.0031  0.2421 -0.0975
 1035YOPC   C1B14775   4.269   0.788   6.542  0.1935  0.0117  0.0520
 1035YOPC   C2B14776   4.623   0.990   6.560  0.2191 -0.1197  0.0795
 1035YOPC   D3B14777   4.784   1.316   6.903  0.0938  0.0259  0.1832
 1035YOPC   C4B14778   5.137   1.528   7.077 -0.0397  0.0190  0.0107
 1036YOPC   NC314779  15.165   5.380   5.573 -0.1117  0.2278  0.1424
 1036YOPC   PO414780  15.567   5.636   5.663 -0.1093 -0.0920  0.1281
 1036YOPC   GL114781  15.551   5.508   6.067 -0.0417  0.1071  0.1642
 1036YOPC   GL214782  15.389   5.261   6.152  0.2750 -0.1885 -0.0362
 1036YOPC   C1A14783  15.598   5.782   6.543  0.0935  0.0047 -0.2575
 1036YOPC   D2A14784  15.580   5.826   6.877  0.0670 -0.2910 -0.2731
 1036YOPC   C3A14785  15.914   6.027   7.167 -0.1066  0.1402  0.0816
 1036YOPC   C4A14786  15.983   6.295   7.535  0.0388 -0.1995  0.0289
 1036YOPC   C1B14787  15.383   4.888   6.309 -0.1120 -0.2366  0.1278
 1036YOPC   C2B14788  15.604   4.602   6.488 -0.1089 -0.0503 -0.0731
 1036YOPC   D3B14789  15.889   4.674   6.767  0.0134 -0.1692 -0.0139
 1036YOPC   C4B14790  16.032   4.548   7.084  0.0826 -0.0328 -0.2630
 1037YOPC   NC314791   5.084  12.992   5.778  0.0934 -0.0917 -0.0298
 1037YOPC   PO414792   5.257  13.212   6.071  0.0063 -0.1469  0.1691
 1037YOPC   GL114793   5.549  12.985   6.379 -0.0026 -0.3107  0.1228
 1037YOPC   GL214794   5.390  13.073   6.590 -0.2930  0.0631 -0.1233
 1037YOPC   C1A14795   5.546  12.793   6.957  0.1599  0.2350 -0.1616
 1037YOPC   D2A14796   5.480  12.796   7.438 -0.2566 -0.0555 -0.0430
 1037YOPC   C3A14797   5.174  12.701   7.552  0.0469 -0.0587 -0.0683
 1037YOPC   C4A14798   4.837  12.445   7.703 -0.0257  0.0115  0.0405
 1037YOPC   C1B14799   5.660  13.469   6.808  0.3191  0.1345  0.3570
 1037YOPC   C2B14800   6.021  13.606   7.001 -0.2587 -0.1055  0.1175
 1037YOPC   D3B14801   6.070  14.028   7.041  0.0686  0.0274  0.0704
 1037YOPC   C4B14802   6.123  14.360   7.147  0.1030  0.4027 -0.2577
 1038YOPC   NC314803   0.804  15.026   6.271  0.0604 -0.3797  0.0934
 1038YOPC   PO414804   1.104  15.418   6.150  0.1034 -0.3433  0.0162
 1038YOPC   GL114805   1.100  15.298   6.543  0.2804  0.1612  0.0610
 1038YOPC   GL214806   0.844  15.313   6.746  0.2168  0.0622  0.0783
 1038YOPC   C1A14807   1.347  15.299   6.913 -0.2837  0.0687 -0.0454
 1038YOPC   D2A14808   1.452  15.390   7.278  0.2268 -0.1976  0.1356
 1038YOPC   C3A14809   1.877  15.278   7.189  0.1522  0.2223 -0.0879
 1038YOPC   C4A14810   2.157  15.037   6.859  0.0334  0.1931  0.2035
 1038YOPC   C1B14811   0.970  15.279   7.227  0.1407  0.1842 -0.3624
 1038YOPC   C2B14812   1.076  15.126   7.666  0.1053  0.0665  0.0376
 1038YOPC   D3B14813   1.045  15.448   7.898 -0.1000 -0.1623 -0.0545
 1038YOPC   C4B14814   1.383  15.629   8.273  0.1168 -0.3981 -0.1418
 1039YOPC   NC314815  14.556   6.792   5.469  0.0887 -0.1767 -0.0227
 1039YOPC   PO414816  14.590   6.322   5.337  0.1386  0.1363 -0.0385
 1039YOPC   GL114817  14.793   6.289   5.771 -0.1690 -0.1287 -0.0447
 1039YOPC   GL214818  14.675   6.608   5.910 -0.1678  0.0678  0.2571
 1039YOPC   C1A14819  14.874   6.171   6.187  0.0601 -0.4729  0.2979
 1039YOPC   D2A14820  15.159   5.972   6.364  0.1437  0.2298  0.1982
 1039YOPC   C3A14821  15.069   5.988   6.778  0.0611 -0.0320 -0.0726
 1039YOPC   C4A14822  14.953   6.134   7.143  0.0271 -0.4408  0.0699
 1039YOPC   C1B14823  14.437   6.905   6.245 -0.1633  0.0392 -0.0261
 1039YOPC   C2B14824  14.019   6.904   6.264 -0.0433  0.2465 -0.1848
 1039YOPC   D3B14825  13.783   7.288   6.484 -0.1924 -0.2042 -0.2048
 1039YOPC   C4B14826  13.424   7.233   6.801  0.2735  0.1826 -0.3742
 1040YOPC   NC314827   8.582   3.833   6.095  0.0900  0.1673 -0.3099
 1040YOPC   PO414828   8.322   3.490   6.081 -0.0864 -0.4590 -0.2672
 1040YOPC   GL114829   8.482   3.248   6.399  0.0334 -0.0085  0.1818
 1040YOPC   GL214830   8.213   3.264   6.555  0.1282  0.2431 -0.0244
 1040YOPC   C1A14831   8.675   3.066   6.787  0.0153  0.0035 -0.0777
 1040YOPC   D2A14832   8.750   3.094   7.290  0.2067  0.2204  0.0007
 1040YOPC   C3A14833   8.593   3.231   7.616  0.0409 -0.0615  0.2027
 1040YOPC   C4A14834   8.276   3.275   7.967 -0.0852  0.0072  0.1069
 1040YOPC   C1B14835   8.210   3.446   6.880 -0.1244 -0.0941  0.2445
 1040YOPC   C2B14836   8.230   3.552   7.243  0.1186  0.2874 -0.0469
 1040YOPC   D3B14837   8.177   3.887   7.498  0.2648 -0.0457 -0.1298
 1040YOPC   C4B14838   7.952   4.010   7.847 -0.0539  0.1040  0.2865
 1041YOPC   NC314839   6.846   9.506   5.650  0.1200 -0.0044  0.2481
 1041YOPC   PO414840   6.538   9.874   5.938 -0.2832 -0.0868 -0.0599
 1041YOPC   GL114841   6.502   9.798   6.310 -0.2347 -0.0357 -0.1220
 1041YOPC   GL214842   6.588   9.635   6.632 -0.0608 -0.2257 -0.0378
 1041YOPC   C1A14843   6.273  10.084   6.685 -0.3216 -0.0266  0.0377
 1041YOPC   D2A14844   6.020  10.237   7.035  0.0708  0.1879  0.0896
 1041YOPC   C3A14845   6.167  10.525   7.432 -0.0529  0.0459 -0.0348
 1041YOPC   C4A14846   6.134  10.349   7.879 -0.0969  0.1933 -0.1677
 1041YOPC   C1B14847   6.900   9.569   6.783 -0.1140  0.1253 -0.2823
 1041YOPC   C2B14848   6.799   9.483   7.153 -0.3746 -0.2436  0.2345
 1041YOPC   D3B14849   6.881   9.721   7.550  0.4108 -0.1631  0.0606
 1041YOPC   C4B14850   6.973   9.968   7.926  0.0904  0.1254 -0.0940
 1042YOPC   NC314851  13.770   4.218   5.245 -0.3803 -0.0044  0.2555
 1042YOPC   PO414852  13.985   4.227   5.617  0.0343  0.0063  0.1366
 1042YOPC   GL114853  13.798   4.199   6.053 -0.0754  0.1474 -0.2236
 1042YOPC   GL214854  13.775   3.922   6.109 -0.2613  0.2056  0.0500
 1042YOPC   C1A14855  13.674   4.383   6.493 -0.0938 -0.2117 -0.3329
 1042YOPC   D2A14856  13.589   4.404   6.825  0.0228  0.1400  0.1266
 1042YOPC   C3A14857  13.761   4.087   7.058 -0.2034 -0.0208 -0.0990
 1042YOPC   C4A14858  13.856   3.870   7.363 -0.1986 -0.0133 -0.0300
 1042YOPC   C1B14859  13.640   3.883   6.575  0.3114  0.0190 -0.0290
 1042YOPC   C2B14860  13.380   3.721   6.942  0.1169  0.0095 -0.1320
 1042YOPC   D3B14861  13.507   3.509   7.371  0.1951 -0.0721  0.0378
 1042YOPC   C4B14862  13.714   3.432   7.785 -0.1221 -0.0529  0.1470
 1043YOPC   NC314863  11.206  14.869   6.187  0.3003  0.2087  0.1116
 1043YOPC   PO414864  10.944  15.232   6.172  0.1143  0.2902  0.0230
 1043YOPC   GL114865  10.840  15.381   6.583 -0.0395 -0.1134  0.2052
 1043YOPC   GL214866  10.672  15.613   6.652 -0.0008  0.0126 -0.0539
 1043YOPC   C1A14867  10.881  15.168   7.036  0.2037  0.0992  0.3522
 1043YOPC   D2A14868  10.597  14.873   7.416 -0.0694  0.0392 -0.1631
 1043YOPC   C3A14869  10.612  14.995   7.723  0.1588  0.0194  0.0909
 1043YOPC   C4A14870  10.494  14.736   8.041  0.1213  0.0229  0.0821
 1043YOPC   C1B14871  10.647  15.693   7.092 -0.2246  0.1344 -0.0016
 1043YOPC   C2B14872  10.598  15.869   7.548  0.0223  0.1643  0.1203
 1043YOPC   D3B14873  10.578  16.245   7.529  0.1025  0.2249 -0.0618
 1043YOPC   C4B14874  10.514  16.408   7.926  0.1274  0.3037 -0.0383
 1044YOPC   NC314875  12.263  12.756   6.023 -0.2056  0.0037  0.2232
 1044YOPC   PO414876  12.583  12.873   6.206  0.0851 -0.0411 -0.0756
 1044YOPC   GL114877  12.447  12.831   6.564  0.4191  0.0465  0.0570
 1044YOPC   GL214878  12.342  13.124   6.732  0.1041 -0.0162  0.1885
 1044YOPC   C1A14879  12.192  12.517   6.813  0.0105 -0.2303 -0.0133
 1044YOPC   D2A14880  12.272  12.199   7.130 -0.0056  0.4711 -0.2629
 1044YOPC   C3A14881  12.141  12.039   7.600 -0.1904  0.1127 -0.2241
 1044YOPC   C4A14882  11.702  12.179   7.746  0.2174 -0.1959 -0.0352
 1044YOPC   C1B14883  12.385  12.842   7.131 -0.1076  0.0555  0.1780
 1044YOPC   C2B14884  12.031  12.602   7.360  0.2847  0.0428  0.2281
 1044YOPC   D3B14885  11.743  12.338   7.175 -0.0726 -0.1583  0.2815
 1044YOPC   C4B14886  11.922  12.036   6.826  0.3613  0.0707  0.0765
 1045YOPC   NC314887   8.089   2.210   6.114  0.0582 -0.0080  0.0233
 1045YOPC   PO414888   7.725   2.059   6.000  0.1567  0.1593 -0.2002
 1045YOPC   GL114889   7.713   1.927   6.347 -0.3012 -0.2345  0.0217
 1045YOPC   GL214890   7.962   2.070   6.600  0.4393 -0.0961 -0.0108
 1045YOPC   C1A14891   7.582   1.576   6.702  0.0535 -0.0622  0.1212
 1045YOPC   D2A14892   7.732   1.242   7.001 -0.2617  0.0419  0.2085
 1045YOPC   C3A14893   8.018   0.862   7.032  0.0446 -0.1192 -0.0844
 1045YOPC   C4A14894   8.375   0.817   6.835  0.3674 -0.2503 -0.0762
 1045YOPC   C1B14895   7.940   1.951   6.953  0.0755 -0.1290  0.2585
 1045YOPC   C2B14896   7.711   1.760   7.334 -0.2971 -0.1052 -0.1842
 1045YOPC   D3B14897   7.822   1.337   7.455 -0.1580  0.1106 -0.3039
 1045YOPC   C4B14898   7.530   0.989   7.533  0.1400  0.0284  0.1249
 1046YOPC   NC314899  11.670   8.742   5.481 -0.0286  0.1661  0.0814
 1046YOPC   PO414900  12.010   8.564   5.535 -0.0315  0.1516  0.0115
 1046YOPC   GL114901  12.065   8.531   5.884  0.0134 -0.3416 -0.1273
 1046YOPC   GL214902  12.223   8.728   6.042  0.2654  0.1279  0.1161
 1046YOPC   C1A14903  11.905   8.362   6.237 -0.0338  0.2018  0.1622
 1046YOPC   D2A14904  12.004   8.063   6.510  0.5047 -0.1899 -0.1248
 1046YOPC   C3A14905  11.944   8.062   6.955 -0.0318 -0.1349 -0.1360
 1046YOPC   C4A14906  12.186   8.136   7.352 -0.0339  0.2183 -0.3991
 1046YOPC   C1B14907  11.884   8.837   6.267  0.1371 -0.1363  0.0000
 1046YOPC   C2B14908  11.625   8.828   6.713 -0.1106  0.4481 -0.3005
 1046YOPC   D3B14909  11.821   8.598   7.061 -0.0041  0.0343 -0.1618
 1046YOPC   C4B14910  11.687   8.423   7.408 -0.2164  0.3707  0.1891
 1047YOPC   NC314911  18.166  14.743   6.120 -0.0920  0.3498  0.3398
 1047YOPC   PO414912  18.124  14.430   6.395  0.1531  0.1178 -0.2199
 1047YOPC   GL114913  18.148  14.713   6.726  0.1732  0.1069  0.1737
 1047YOPC   GL214914  18.391  14.561   6.827 -0.0556 -0.4774  0.0608
 1047YOPC   C1A14915  18.022  14.889   7.153  0.1272  0.0024  0.0255
 1047YOPC   D2A14916  17.895  15.038   7.611 -0.0029 -0.1716 -0.3417
 1047YOPC   C3A14917  17.921  14.678   7.771  0.3937  0.1400  0.3581
 1047YOPC   C4A14918  17.741  14.580   8.241  0.3394  0.1604  0.1761
 1047YOPC   C1B14919  18.511  14.615   7.219 -0.0729 -0.1925 -0.2327
 1047YOPC   C2B14920  18.247  14.429   7.520 -0.2821  0.1308 -0.1314
 1047YOPC   D3B14921  17.826  14.407   7.390 -0.1203  0.1935  0.1096
 1047YOPC   C4B14922  17.502  14.546   7.470 -0.3908  0.0448 -0.1831
 1048YOPC   NC314923  16.270  12.284   6.351 -0.0494  0.1317 -0.2437
 1048YOPC   PO414924  16.786  12.459   6.384  0.4648 -0.2348  0.0955
 1048YOPC   GL114925  16.675  12.464   6.735  0.1896 -0.4090  0.1868
 1048YOPC   GL214926  16.392  12.263   6.850  0.3989  0.0192  0.0501
 1048YOPC   C1A14927  16.713  12.579   7.224  0.2685 -0.1498 -0.0964
 1048YOPC   D2A14928  17.152  12.506   7.503 -0.2494  0.0565 -0.2507
 1048YOPC   C3A14929  17.155  12.447   7.937 -0.0804 -0.2961  0.0388
 1048YOPC   C4A14930  16.980  12.204   8.228  0.0692 -0.4082 -0.2471
 1048YOPC   C1B14931  16.572  12.147   7.245  0.1424 -0.1869  0.2627
 1048YOPC   C2B14932  16.294  11.967   7.594  0.2534 -0.1360  0.0718
 1048YOPC   D3B14933  16.459  11.819   7.957 -0.2021 -0.2800  0.0628
 1048YOPC   C4B14934  16.356  12.072   8.378 -0.0887  0.1445  0.3980
 1049YOPC   NC314935   2.559  14.291   5.913  0.1787 -0.0135 -0.0983
 1049YOPC   PO414936   2.708  14.599   6.226  0.1361 -0.2189 -0.2185
 1049YOPC   GL114937   2.898  14.590   6.543 -0.0300 -0.4397  0.0044
 1049YOPC   GL214938   3.044  14.411   6.533  0.0494 -0.0394 -0.2217
 1049YOPC   C1A14939   2.692  14.774   6.884  0.1222  0.3027 -0.0853
 1049YOPC   D2A14940   2.717  14.724   7.316  0.1355 -0.3027 -0.2928
 1049YOPC   C3A14941   2.358  14.548   7.532 -0.0777 -0.2158 -0.0950
 1049YOPC   C4A14942   2.240  14.173   7.644 -0.1405  0.0712  0.1956
 1049YOPC   C1B14943   3.040  14.060   6.742  0.0412  0.2225  0.3226
 1049YOPC   C2B14944   3.149  13.869   7.192  0.1046 -0.0939 -0.0658
 1049YOPC   D3B14945   3.282  13.473   7.254 -0.1567 -0.1301  0.2090
 1049YOPC   C4B14946   3.214  13.177   7.325 -0.1755  0.3719 -0.1225
 1050YOPC   NC314947  15.416   9.304   6.439 -0.2172  0.0137 -0.0825
 1050YOPC   PO414948  15.501   9.541   6.842 -0.1533  0.1435 -0.0374
 1050YOPC   GL114949  15.678   9.464   7.099 -0.1935  0.2780 -0.0714
 1050YOPC   GL214950  15.741   9.843   7.191  0.0390  0.2358 -0.2228
 1050YOPC   C1A14951  15.850   9.328   7.483  0.1795 -0.2714 -0.1364
 1050YOPC   D2A14952  16.115   9.161   7.679 -0.3725  0.1790 -0.0796
 1050YOPC   C3A14953  15.852   9.022   7.972  0.0437  0.2442 -0.0218
 1050YOPC   C4A14954  15.940   9.127   8.429 -0.1176 -0.1591  0.0563
 1050YOPC   C1B14955  16.047   9.875   7.569 -0.2475  0.1937 -0.0511
 1050YOPC   C2B14956  16.038   9.594   7.916  0.1632 -0.0360  0.2090
 1050YOPC   D3B14957  16.324   9.359   8.097  0.0610  0.1585 -0.1384
 1050YOPC   C4B14958  16.405   8.942   8.079  0.0437 -0.0172  0.2215
 1051YOPC   NC314959   1.856  16.362   6.086  0.2435  0.3478  0.3314
 1051YOPC   PO414960   1.742  16.825   6.161  0.1782 -0.2052  0.0670
 1051YOPC   GL114961   1.686  16.755   6.471  0.2477  0.0874 -0.0449
 1051YOPC   GL214962   1.911  16.546   6.540 -0.1029  0.3237  0.1338
 1051YOPC   C1A14963   1.829  17.053   6.799 -0.0759  0.0566  0.0733
 1051YOPC   D2A14964   1.924  17.090   7.192  0.1360 -0.2242 -0.2911
 1051YOPC   C3A14965   2.024  17.438   7.417  0.0513 -0.3835  0.0348
 1051YOPC   C4A14966   2.064  17.579   7.924  0.1719  0.1594  0.1712
 1051YOPC   C1B14967   1.964  16.603   7.016  0.2084  0.3423 -0.2453
 1051YOPC   C2B14968   2.094  16.681   7.507  0.3423 -0.0196  0.0010
 1051YOPC   D3B14969   1.868  16.547   7.829 -0.3127  0.0215 -0.1293
 1051YOPC   C4B14970   1.629  16.756   8.072  0.4098 -0.1523  0.1436
 1052YOPC   NC314971  14.063  11.959   6.016 -0.1801 -0.0864 -0.1106
 1052YOPC   PO414972  13.795  12.308   5.972  0.0402  0.1416 -0.3435
 1052YOPC   GL114973  13.622  12.049   6.276 -0.1525 -0.0313  0.0570
 1052YOPC   GL214974  13.372  11.889   6.223  0.0370  0.2992 -0.0361
 1052YOPC   C1A14975  13.547  12.037   6.729  0.0784  0.2150 -0.3313
 1052YOPC   D2A14976  13.286  12.305   6.989  0.1765  0.1747 -0.0000
 1052YOPC   C3A14977  13.256  12.662   7.222 -0.0057  0.1538 -0.1316
 1052YOPC   C4A14978  13.321  12.669   7.627  0.2561 -0.0575 -0.1916
 1052YOPC   C1B14979  13.430  11.644   6.488 -0.2909 -0.2426 -0.1108
 1052YOPC   C2B14980  13.646  11.533   6.845  0.1816  0.2168 -0.0232
 1052YOPC   D3B14981  13.506  11.663   7.231  0.2141 -0.0992 -0.0580
 1052YOPC   C4B14982  13.149  11.854   7.263 -0.0384 -0.3185  0.0027
 1053YOPC   NC314983  11.210  10.303   5.848 -0.0415  0.4028  0.0429
 1053YOPC   PO414984  10.811  10.299   5.742 -0.2413  0.2881  0.3105
 1053YOPC   GL114985  10.772  10.239   6.123 -0.1163 -0.0019  0.0629
 1053YOPC   GL214986  11.034  10.211   6.316 -0.1957  0.1858  0.2373
 1053YOPC   C1A14987  10.626  10.051   6.479 -0.1856 -0.0535 -0.0228
 1053YOPC   D2A14988  10.777  10.085   6.878  0.0304 -0.1977  0.0104
 1053YOPC   C3A14989  11.104   9.973   7.263 -0.0328 -0.0525  0.3325
 1053YOPC   C4A14990  11.220  10.224   7.605  0.0093  0.1212  0.0521
 1053YOPC   C1B14991  11.292  10.266   6.658 -0.0015 -0.0680  0.3091
 1053YOPC   C2B14992  11.178  10.463   7.054 -0.2216  0.1508  0.0053
 1053YOPC   D3B14993  10.743  10.352   7.336  0.0784 -0.0882  0.0366
 1053YOPC   C4B14994  10.688  10.455   7.742 -0.0257 -0.0501  0.2674
 1054YOPC   NC314995   5.801  15.652   5.595 -0.0291  0.2116 -0.0217
 1054YOPC   PO414996   5.518  15.330   5.897 -0.0283  0.2462 -0.0005
 1054YOPC   GL114997   5.576  15.226   6.282 -0.0262 -0.2099  0.1552
 1054YOPC   GL214998   5.307  15.001   6.483 -0.1498 -0.1544  0.0177
 1054YOPC   C1A14999   5.812  15.354   6.564 -0.0381 -0.0280 -0.3285
 1054YOPC   D2A15000   6.062  15.529   6.918 -0.2296 -0.1107 -0.0350
 1054YOPC   C3A15001   6.071  15.517   7.308 -0.3174 -0.1168 -0.1117
 1054YOPC   C4A15002   6.274  15.226   7.570 -0.1637 -0.1070  0.1032
 1054YOPC   C1B15003   5.573  14.956   6.794 -0.2096  0.0360  0.2355
 1054YOPC   C2B15004   5.708  15.230   7.087 -0.1781 -0.1776  0.1733
 1054YOPC   D3B15005   5.723  15.146   7.574  0.1868  0.0003  0.0384
 1054YOPC   C4B15006   5.531  15.031   7.913  0.0586  0.2444  0.1432
 1055YOPC   NC315007  13.306  11.040   5.752  0.0359  0.3876 -0.0060
 1055YOPC   PO415008  13.449  10.935   6.102 -0.1643 -0.0366  0.2060
 1055YOPC   GL115009  13.678  10.955   6.532  0.2156 -0.0552 -0.0757
 1055YOPC   GL215010  13.640  10.606   6.499 -0.3948 -0.1800  0.1042
 1055YOPC   C1A15011  13.722  11.050   6.921  0.2467 -0.0010  0.0871
 1055YOPC   D2A15012  13.407  11.222   7.207  0.0863 -0.4136  0.1425
 1055YOPC   C3A15013  13.019  11.204   7.204 -0.1189 -0.3295  0.3226
 1055YOPC   C4A15014  12.715  11.207   6.970  0.0088  0.0212  0.1162
 1055YOPC   C1B15015  13.497  10.474   6.824 -0.0292 -0.2164 -0.0322
 1055YOPC   C2B15016  13.388  10.442   7.162  0.1317 -0.3884  0.3015
 1055YOPC   D3B15017  13.377  10.728   7.336  0.1915  0.0320  0.0736
 1055YOPC   C4B15018  13.185  10.968   7.598 -0.1520 -0.0982  0.0795
 1056YOPC   NC315019   1.750   2.772   5.937 -0.0144  0.0618  0.0113
 1056YOPC   PO415020   2.146   2.836   5.984  0.0113  0.1635 -0.1095
 1056YOPC   GL115021   2.208   3.057   6.283  0.0783  0.0287  0.0957
 1056YOPC   GL215022   1.882   2.789   6.426 -0.0870  0.0685 -0.0171
 1056YOPC   C1A15023   2.510   3.112   6.663  0.2147 -0.2616  0.2019
 1056YOPC   D2A15024   2.802   2.998   6.899  0.1266  0.0295 -0.0157
 1056YOPC   C3A15025   2.830   2.874   7.265 -0.1781 -0.1637  0.1579
 1056YOPC   C4A15026   2.627   3.090   7.547 -0.2253  0.2115  0.1231
 1056YOPC   C1B15027   2.083   2.885   6.802  0.2056 -0.0903 -0.0818
 1056YOPC   C2B15028   2.224   2.950   7.201  0.0628  0.1678 -0.0502
 1056YOPC   D3B15029   2.353   2.707   7.653 -0.0170  0.2875  0.0833
 1056YOPC   C4B15030   2.078   2.732   8.023 -0.1360  0.0287  0.2456
 1057YOPC   NC315031  10.962  14.418   5.797  0.1820  0.0817 -0.0648
 1057YOPC   PO415032  10.693  14.028   5.796 -0.3248 -0.0144 -0.0192
 1057YOPC   GL115033  10.455  13.756   6.083 -0.0659 -0.0553 -0.1284
 1057YOPC   GL215034  10.422  13.982   6.363  0.4673 -0.1188 -0.1045
 1057YOPC   C1A15035  10.278  13.572   6.555 -0.0710 -0.3744  0.0914
 1057YOPC   D2A15036   9.928  13.407   6.646 -0.0216 -0.1760 -0.1109
 1057YOPC   C3A15037   9.812  13.585   7.062  0.1420  0.0147  0.0109
 1057YOPC   C4A15038   9.394  13.875   7.309 -0.1650 -0.0352  0.4389
 1057YOPC   C1B15039  10.538  14.109   6.726  0.2570  0.0239  0.0969
 1057YOPC   C2B15040  10.673  14.118   7.175  0.0461  0.2440 -0.2406
 1057YOPC   D3B15041  10.382  14.055   7.486  0.1099 -0.1493 -0.1371
 1057YOPC   C4B15042  10.281  14.004   7.933 -0.0122 -0.0181 -0.0845
 1058YOPC   NC315043  11.056   9.923   5.494  0.0366 -0.1361  0.2864
 1058YOPC   PO415044  11.479   9.950   5.612 -0.0694 -0.1699  0.0497
 1058YOPC   GL115045  11.367   9.894   6.065  0.1350  0.0365 -0.1636
 1058YOPC   GL215046  11.580   9.538   6.178  0.0977 -0.2140 -0.1097
 1058YOPC   C1A15047  11.122   9.799   6.520 -0.0805 -0.3612 -0.0583
 1058YOPC   D2A15048  11.071   9.458   6.969  0.3049  0.1708 -0.2004
 1058YOPC   C3A15049  10.761   9.187   6.892 -0.0745  0.1491 -0.1363
 1058YOPC   C4A15050  10.571   9.024   6.516 -0.0055  0.2845 -0.1418
 1058YOPC   C1B15051  11.486   9.476   6.650 -0.2582  0.0148 -0.3087
 1058YOPC   C2B15052  11.489   9.734   6.946 -0.1017  0.2206 -0.0824
 1058YOPC   D3B15053  11.510   9.571   7.361  0.0305 -0.3302 -0.1880
 1058YOPC   C4B15054  11.198   9.201   7.523  0.0360  0.1786  0.2972
 1059YOPC   NC315055  15.953  13.278   6.401 -0.0102 -0.0455  0.1534
 1059YOPC   PO415056  15.636  13.370   6.122  0.1219 -0.1487 -0.0499
 1059YOPC   GL115057  15.549  13.401   6.629 -0.0375  0.0116 -0.0600
 1059YOPC   GL215058  15.712  13.584   6.707  0.0737 -0.0835 -0.1527
 1059YOPC   C1A15059  15.426  13.145   7.024  0.0762 -0.2537 -0.1870
 1059YOPC   D2A15060  15.362  13.175   7.436 -0.0015  0.1397  0.1971
 1059YOPC   C3A15061  14.882  13.119   7.450 -0.0062  0.2081 -0.0764
 1059YOPC   C4A15062  14.690  13.203   7.762  0.1895 -0.0100  0.0184
 1059YOPC   C1B15063  15.476  13.697   7.086  0.2639 -0.1197 -0.1617
 1059YOPC   C2B15064  15.512  13.723   7.466  0.5192  0.0767  0.0020
 1059YOPC   D3B15065  15.675  13.426   7.731 -0.0213  0.1706 -0.2664
 1059YOPC   C4B15066  15.995  13.459   8.089  0.0903 -0.1285 -0.0142
 1060YOPC   NC315067   9.565  15.636   6.006 -0.0941 -0.3337  0.2652
 1060YOPC   PO415068   9.339  15.302   5.677 -0.1033 -0.2106  0.3374
 1060YOPC   GL115069   9.426  15.162   6.210 -0.3609  0.0577 -0.2119
 1060YOPC   GL215070   9.337  14.866   6.371 -0.1607  0.1953  0.1661
 1060YOPC   C1A15071   9.796  15.167   6.470  0.0719  0.2123 -0.3558
 1060YOPC   D2A15072   9.829  14.980   6.853 -0.1710  0.0491 -0.0676
 1060YOPC   C3A15073  10.245  15.123   7.128 -0.0695 -0.0455 -0.0227
 1060YOPC   C4A15074  10.510  15.400   7.471  0.1477 -0.0128 -0.3923
 1060YOPC   C1B15075   9.319  14.963   6.803  0.2641  0.0502  0.0041
 1060YOPC   C2B15076   9.420  14.875   7.110 -0.1938 -0.0226 -0.0117
 1060YOPC   D3B15077   9.779  14.863   7.360 -0.1895  0.0568  0.2800
 1060YOPC   C4B15078  10.141  14.989   7.626  0.1334 -0.1230 -0.0643
 1061YOPC   NC315079  17.289  17.432   5.917  0.2054  0.0166 -0.2593
 1061YOPC   PO415080  17.563  17.062   5.807 -0.2778 -0.1027  0.2009
 1061YOPC   GL115081  17.640  17.153   6.208 -0.0028  0.3984  0.0227
 1061YOPC   GL215082  17.560  16.925   6.394 -0.0571  0.2058 -0.1911
 1061YOPC   C1A15083  17.920  17.471   6.469  0.3149  0.0249  0.2397
 1061YOPC   D2A15084  17.986  17.867   6.627  0.1374 -0.0930 -0.3708
 1061YOPC   C3A15085  17.817  17.820   7.019 -0.0410  0.0609 -0.1549
 1061YOPC   C4A15086  17.837  18.114   7.267 -0.0903  0.2288  0.0767
 1061YOPC   C1B15087  17.599  16.987   6.817 -0.0598 -0.3076  0.2409
 1061YOPC   C2B15088  17.736  17.329   6.984 -0.2829 -0.0418  0.0407
 1061YOPC   D3B15089  17.536  17.407   7.258  0.0590 -0.5921 -0.0772
 1061YOPC   C4B15090  17.636  17.574   7.624  0.1901 -0.0625  0.0147
 1062YOPC   NC315091   1.603   7.292   6.286 -0.4585  0.0108 -0.1081
 1062YOPC   PO415092   1.994   7.326   6.331  0.0912 -0.0478  0.1091
 1062YOPC   GL115093   1.689   7.306   6.728  0.1894  0.3542 -0.3412
 1062YOPC   GL215094   1.301   7.314   6.691  0.0769  0.0071 -0.2138
 1062YOPC   C1A15095   1.514   7.307   7.204 -0.0058 -0.3505  0.0213
 1062YOPC   D2A15096   1.680   7.302   7.655 -0.1838  0.1787 -0.0556
 1062YOPC   C3A15097   1.712   7.570   7.992  0.3615  0.0622 -0.0366
 1062YOPC   C4A15098   1.574   7.907   8.215 -0.0299 -0.0606  0.1188
 1062YOPC   C1B15099   0.914   7.011   6.727  0.1092  0.1242  0.2155
 1062YOPC   C2B15100   0.502   6.952   7.037 -0.2362 -0.1096 -0.2338
 1062YOPC   D3B15101   0.463   6.649   7.431  0.4383  0.0772 -0.1177
 1062YOPC   C4B15102   0.339   6.535   7.898 -0.0907  0.1309 -0.3761
 1063YOPC   NC315103  11.222   4.029   5.746 -0.0358 -0.1050 -0.1068
 1063YOPC   PO415104  10.818   3.788   5.750  0.0032  0.0917 -0.0531
 1063YOPC   GL115105  10.782   3.790   6.082  0.3828 -0.1159 -0.3397
 1063YOPC   GL215106  11.069   3.787   6.201 -0.1659  0.0456 -0.0239
 1063YOPC   C1A15107  10.710   3.773   6.520  0.1399 -0.2725 -0.1103
 1063YOPC   D2A15108  10.535   3.741   6.891  0.0598  0.1478 -0.1188
 1063YOPC   C3A15109  10.233   4.076   7.066 -0.2334 -0.0313 -0.0882
 1063YOPC   C4A15110   9.719   3.954   7.107  0.1408 -0.0613 -0.2006
 1063YOPC   C1B15111  11.288   4.090   6.468  0.1045 -0.0183  0.1316
 1063YOPC   C2B15112  11.611   4.044   6.838  0.1015 -0.2325 -0.0834
 1063YOPC   D3B15113  11.426   3.911   7.320  0.2154 -0.1110  0.1021
 1063YOPC   C4B15114  11.165   3.718   7.709 -0.2036  0.2953  0.3776
 1064YOPC   NC315115  10.944  14.056   6.240 -0.1305  0.1308 -0.2683
 1064YOPC   PO415116  10.980  14.419   6.305  0.1643  0.0698  0.3965
 1064YOPC   GL115117  10.714  14.546   6.620  0.0577  0.0985 -0.0243
 1064YOPC   GL215118  10.859  14.919   6.557  0.0287 -0.0232 -0.1729
 1064YOPC   C1A15119  10.871  14.599   7.070  0.0714  0.0361  0.3396
 1064YOPC   D2A15120  11.248  14.397   7.341  0.0573 -0.0723  0.2010
 1064YOPC   C3A15121  11.314  14.237   7.699 -0.0058 -0.0298 -0.0828
 1064YOPC   C4A15122  11.300  14.072   7.968  0.0736  0.0891 -0.1767
 1064YOPC   C1B15123  10.481  15.068   6.735 -0.0941  0.0132  0.0002
 1064YOPC   C2B15124  10.218  15.311   6.695 -0.0579  0.1884  0.3155
 1064YOPC   D3B15125  10.149  15.701   6.954  0.2720  0.3503 -0.0576
 1064YOPC   C4B15126  10.360  16.079   7.081  0.2591  0.0782 -0.0817
 1065YOPC   NC315127   5.704  18.230   5.373  0.0015  0.0871 -0.1636
 1065YOPC   PO415128   5.994  18.575   5.549  0.0663 -0.1099 -0.0044
 1065YOPC   GL115129   5.975  18.604   6.022  0.1802 -0.0868  0.0019
 1065YOPC   GL215130   5.687  18.675   6.087  0.2071  0.3611 -0.3317
 1065YOPC   C1A15131   6.309  18.478   6.350  0.0048 -0.3477  0.2896
 1065YOPC   D2A15132   6.550  18.160   6.575  0.0459  0.2152 -0.2529
 1065YOPC   C3A15133   6.706  18.356   6.949  0.3205  0.2820  0.2446
 1065YOPC   C4A15134   6.704  18.783   7.121  0.0068  0.0956 -0.2571
 1065YOPC   C1B15135   5.440  18.776   6.502 -0.0110 -0.0261  0.4097
 1065YOPC   C2B15136   5.127  18.535   6.727 -0.5078 -0.1201 -0.1960
 1065YOPC   D3B15137   4.798  18.879   6.879  0.3061  0.2806  0.0732
 1065YOPC   C4B15138   4.602  18.993   7.329  0.0992  0.0632 -0.1859
 1066YOPC   NC315139  17.755  16.330   5.241  0.1439 -0.0174 -0.0141
 1066YOPC   PO415140  17.895  16.401   5.723  0.0877  0.3016  0.4334
 1066YOPC   GL115141  17.638  16.523   6.074 -0.1333  0.1356 -0.3878
 1066YOPC   GL215142  17.902  16.589   6.245 -0.1303  0.2303  0.2077
 1066YOPC   C1A15143  17.336  16.352   6.352 -0.2389  0.2516  0.0240
 1066YOPC   D2A15144  17.356  16.187   6.733 -0.1385 -0.0210  0.1499
 1066YOPC   C3A15145  17.023  15.769   6.773  0.1193 -0.2856  0.0417
 1066YOPC   C4A15146  16.540  15.849   6.677 -0.0143 -0.0852 -0.0445
 1066YOPC   C1B15147  17.798  16.581   6.685 -0.0060  0.1445  0.2737
 1066YOPC   C2B15148  17.638  16.519   7.103 -0.1183 -0.2108  0.2357
 1066YOPC   D3B15149  17.670  16.865   7.284 -0.1509  0.0602 -0.1191
 1066YOPC   C4B15150  17.868  17.166   7.491  0.0368 -0.0535  0.2118
 1067YOPC   NC315151  16.232   9.190   6.525 -0.1013  0.5841  0.1243
 1067YOPC   PO415152  16.644   9.425   6.655  0.0979  0.0223 -0.0496
 1067YOPC   GL115153  16.485   9.162   6.948 -0.2379  0.1602 -0.1546
 1067YOPC   GL215154  16.562   8.816   6.839  0.1897 -0.0324  0.0783
 1067YOPC   C1A15155  16.476   8.798   7.313  0.1141  0.1500 -0.3584
 1067YOPC   D2A15156  16.645   8.519   7.709  0.2684 -0.2683 -0.2787
 1067YOPC   C3A15157  16.487   8.430   8.041  0.1182 -0.0538  0.1406
 1067YOPC   C4A15158  16.592   8.523   8.486  0.2007  0.0375  0.0601
 1067YOPC   C1B15159  16.206   8.527   7.007  0.1134 -0.0342  0.0880
 1067YOPC   C2B15160  15.982   8.276   7.281  0.2486  0.1494  0.4475
 1067YOPC   D3B15161  16.062   7.874   7.338  0.3457  0.2618  0.1884
 1067YOPC   C4B15162  16.208   7.447   7.424  0.1463  0.2590 -0.1599
 1068YOPC   NC315163  10.946   1.629   5.932 -0.1380  0.2133 -0.1507
 1068YOPC   PO415164  11.042   1.141   5.887 -0.0089  0.0004 -0.0419
 1068YOPC   GL115165  10.794   1.232   6.279 -0.0414 -0.1089  0.0122
 1068YOPC   GL215166  10.760   1.554   6.430 -0.1107  0.0513  0.0222
 1068YOPC   C1A15167  10.604   0.902   6.572 -0.0396 -0.0420 -0.1058
 1068YOPC   D2A15168  10.510   0.431   6.828 -0.3357  0.0522  0.1573
 1068YOPC   C3A15169  10.459   0.143   6.574 -0.1805 -0.2361 -0.1317
 1068YOPC   C4A15170  10.266  -0.180   6.469 -0.0949  0.0872  0.3672
 1068YOPC   C1B15171  10.474   1.403   6.680 -0.0083  0.3793 -0.1822
 1068YOPC   C2B15172  10.448   1.135   7.029  0.0300 -0.0196  0.2950
 1068YOPC   D3B15173  10.891   0.909   7.107 -0.1134 -0.3127  0.0520
 1068YOPC   C4B15174  11.280   0.861   7.402 -0.1340  0.3300  0.0725
 1069YOPC   NC315175   0.267   5.080   5.522  0.0783  0.2437  0.0474
 1069YOPC   PO415176  -0.231   5.218   5.546 -0.2874 -0.0116 -0.2534
 1069YOPC   GL115177  -0.010   5.497   5.965  0.0814  0.1261 -0.2033
 1069YOPC   GL215178   0.051   5.833   5.941 -0.0001  0.3194  0.0736
 1069YOPC   C1A15179   0.150   5.402   6.382  0.0884 -0.2565  0.0789
 1069YOPC   D2A15180   0.049   5.549   6.797  0.0177 -0.0319 -0.0022
 1069YOPC   C3A15181  -0.006   5.336   7.095  0.4754  0.2224  0.2870
 1069YOPC   C4A15182  -0.020   5.200   7.404  0.2383 -0.1331 -0.0864
 1069YOPC   C1B15183  -0.258   5.708   6.353  0.1331  0.1874 -0.2100
 1069YOPC   C2B15184  -0.472   5.465   6.603 -0.1740  0.2196  0.0829
 1069YOPC   D3B15185  -0.213   5.105   6.743  0.0195  0.1016  0.0394
 1069YOPC   C4B15186   0.144   4.873   7.103  0.4048 -0.2280 -0.0580
 1070YOPC   NC315187  11.789  12.052   5.316  0.4331 -0.0112 -0.2699
 1070YOPC   PO415188  11.865  12.101   5.710  0.1082  0.3259  0.1991
 1070YOPC   GL115189  11.969  11.985   6.184  0.0522 -0.0630 -0.2650
 1070YOPC   GL215190  12.001  11.713   6.406 -0.1612  0.1792 -0.2557
 1070YOPC   C1A15191  11.577  11.855   6.532 -0.1487 -0.1474  0.0529
 1070YOPC   D2A15192  11.463  11.962   6.881 -0.1349 -0.1447  0.0826
 1070YOPC   C3A15193  11.238  12.363   7.069 -0.1409 -0.0533 -0.2118
 1070YOPC   C4A15194  11.410  12.799   7.138  0.4603  0.0322 -0.0270
 1070YOPC   C1B15195  11.891  11.564   6.779  0.1532  0.1930 -0.2973
 1070YOPC   C2B15196  11.805  11.815   7.243 -0.0213 -0.2252  0.1648
 1070YOPC   D3B15197  11.394  11.999   7.417 -0.4380  0.2100 -0.2398
 1070YOPC   C4B15198  11.071  12.211   7.552  0.1394  0.0295 -0.1549
 1071YOPC   NC315199  16.693  12.942   6.439 -0.1306  0.1970 -0.2116
 1071YOPC   PO415200  17.011  13.304   6.454  0.2772 -0.0671 -0.1467
 1071YOPC   GL115201  16.917  13.659   6.795 -0.0646  0.0632  0.1479
 1071YOPC   GL215202  16.748  13.764   6.683 -0.2066 -0.0368 -0.1921
 1071YOPC   C1A15203  16.830  13.655   7.288  0.1149  0.0567  0.1118
 1071YOPC   D2A15204  17.050  13.922   7.654  0.1123 -0.1181 -0.2595
 1071YOPC   C3A15205  17.054  14.358   7.728 -0.0698  0.1742  0.0456
 1071YOPC   C4A15206  17.247  14.560   8.181 -0.0806 -0.1260 -0.0228
 1071YOPC   C1B15207  16.573  14.119   6.961  0.1465 -0.2982 -0.1633
 1071YOPC   C2B15208  16.271  14.324   7.134  0.1299 -0.0835  0.0175
 1071YOPC   D3B15209  16.095  14.150   7.444  0.0633  0.0055  0.2550
 1071YOPC   C4B15210  15.932  13.910   7.873  0.0956  0.0382  0.2130
 1072YOPC   NC315211   9.370   9.464   5.728  0.0395  0.1874 -0.1556
 1072YOPC   PO415212   9.390   9.802   5.904 -0.1139  0.1288  0.0640
 1072YOPC   GL115213   9.120   9.633   6.198  0.6096  0.2197 -0.1368
 1072YOPC   GL215214   8.714   9.625   6.198  0.2462 -0.0426  0.0399
 1072YOPC   C1A15215   8.913   9.635   6.711 -0.0940 -0.1371  0.1359
 1072YOPC   D2A15216   8.705   9.408   6.945 -0.0805 -0.0755 -0.2247
 1072YOPC   C3A15217   8.724   9.182   7.336 -0.1568  0.1070 -0.0638
 1072YOPC   C4A15218   8.671   9.217   7.755  0.2868  0.3844 -0.4111
 1072YOPC   C1B15219   8.443   9.462   6.415 -0.0461 -0.2769 -0.0529
 1072YOPC   C2B15220   8.207   9.338   6.742  0.0570 -0.0140  0.2897
 1072YOPC   D3B15221   8.262   9.351   7.171 -0.1598 -0.1002  0.1000
 1072YOPC   C4B15222   8.433   9.581   7.588  0.0277 -0.1180  0.0557
 1073YOPC   NC315223  12.233   0.092   5.917  0.0573  0.0331 -0.0850
 1073YOPC   PO415224  12.701   0.194   5.996 -0.0925  0.0754 -0.1351
 1073YOPC   GL115225  12.964   0.403   6.390  0.0871  0.2203 -0.1757
 1073YOPC   GL215226  12.833   0.669   6.381 -0.4017  0.1191 -0.0818
 1073YOPC   C1A15227  12.936   0.090   6.737 -0.2265  0.0189 -0.0961
 1073YOPC   D2A15228  12.698  -0.104   7.098  0.0726 -0.0985 -0.2075
 1073YOPC   C3A15229  12.286  -0.257   7.101 -0.0428  0.0491  0.0391
 1073YOPC   C4A15230  12.009  -0.155   6.857 -0.0467 -0.0986  0.1501
 1073YOPC   C1B15231  12.515   0.792   6.635 -0.0815 -0.0064 -0.0273
 1073YOPC   C2B15232  12.277   1.027   6.619 -0.2647  0.0528  0.1198
 1073YOPC   D3B15233  12.343   1.306   6.877 -0.1747  0.4774 -0.1370
 1073YOPC   C4B15234  12.107   1.259   7.271 -0.0316  0.2579 -0.0630
 1074YOPC   NC315235   2.867  16.993   5.633 -0.0536 -0.0154 -0.2283
 1074YOPC   PO415236   3.322  17.166   5.689 -0.3331 -0.0691 -0.1281
 1074YOPC   GL115237   3.536  17.172   6.185  0.0123  0.2981 -0.1290
 1074YOPC   GL215238   3.769  17.425   6.217  0.0827  0.1519  0.1210
 1074YOPC   C1A15239   3.250  17.136   6.552  0.2068 -0.0368  0.0668
 1074YOPC   D2A15240   2.881  17.176   6.796  0.0504  0.1606 -0.1929
 1074YOPC   C3A15241   2.890  17.224   7.124 -0.0087  0.0367 -0.3563
 1074YOPC   C4A15242   2.826  17.044   7.555  0.0363  0.1368  0.1189
 1074YOPC   C1B15243   3.637  17.417   6.630  0.0823  0.0253  0.2514
 1074YOPC   C2B15244   3.683  17.281   7.048 -0.0044  0.1399 -0.1506
 1074YOPC   D3B15245   3.334  17.047   7.168 -0.2958  0.0394 -0.2821
 1074YOPC   C4B15246   3.317  16.759   7.549 -0.3057  0.4377  0.0554
 1075YOPC   NC315247  11.812  17.576   5.888 -0.1021  0.2677  0.0272
 1075YOPC   PO415248  11.756  18.028   5.883  0.0601 -0.0250 -0.0659
 1075YOPC   GL115249  11.742  18.493   6.147 -0.0053  0.0372 -0.1630
 1075YOPC   GL215250  12.002  18.758   6.247 -0.0750  0.0902  0.1616
 1075YOPC   C1A15251  11.468  18.715   6.447  0.3148  0.0782 -0.2376
 1075YOPC   D2A15252  11.340  18.900   6.913 -0.3839 -0.0352 -0.0744
 1075YOPC   C3A15253  11.338  18.607   7.275 -0.1702 -0.1728 -0.0350
 1075YOPC   C4A15254  11.332  18.564   7.729  0.3181 -0.0488  0.1317
 1075YOPC   C1B15255  11.886  18.542   6.663 -0.1373  0.2457 -0.4052
 1075YOPC   C2B15256  11.819  18.642   7.038 -0.2682  0.0612 -0.0153
 1075YOPC   D3B15257  11.872  18.330   7.321  0.1093 -0.0139  0.0576
 1075YOPC   C4B15258  12.226  18.178   7.627 -0.1843  0.0735  0.1353
 1076YOPC   NC315259   0.305  12.972   5.870 -0.2601  0.3169 -0.0471
 1076YOPC   PO415260   0.708  12.684   5.933 -0.1330 -0.0968  0.0222
 1076YOPC   GL115261   0.769  12.617   6.368  0.3082 -0.1601 -0.0169
 1076YOPC   GL215262   0.775  12.288   6.582  0.0663 -0.0451 -0.0320
 1076YOPC   C1A15263   0.992  12.756   6.727  0.0771 -0.1274 -0.0296
 1076YOPC   D2A15264   1.283  12.959   6.867  0.0262  0.2022 -0.1366
 1076YOPC   C3A15265   1.699  12.830   7.211  0.0465  0.0894 -0.1044
 1076YOPC   C4A15266   1.999  12.822   7.488  0.3688  0.0869 -0.0704
 1076YOPC   C1B15267   0.862  12.239   7.034  0.0064 -0.1817  0.1107
 1076YOPC   C2B15268   0.929  12.382   7.450 -0.0443  0.1720  0.5120
 1076YOPC   D3B15269   1.233  12.475   7.777  0.3531 -0.1532  0.1121
 1076YOPC   C4B15270   1.213  12.772   8.152 -0.0593  0.1787 -0.2684
 1077YOPC   NC315271   4.048   7.014   5.584  0.1999  0.1770  0.2354
 1077YOPC   PO415272   3.827   6.817   5.888 -0.2493  0.0679  0.0831
 1077YOPC   GL115273   3.650   6.588   6.109 -0.0075 -0.0512  0.2092
 1077YOPC   GL215274   3.765   6.230   6.055 -0.2286 -0.0824 -0.1299
 1077YOPC   C1A15275   3.513   6.623   6.533  0.1192 -0.2293  0.1006
 1077YOPC   D2A15276   3.231   6.436   6.824  0.0705 -0.0480 -0.2169
 1077YOPC   C3A15277   3.359   6.544   7.099  0.2147  0.0411  0.1103
 1077YOPC   C4A15278   3.239   6.832   7.419  0.3580  0.1051  0.0231
 1077YOPC   C1B15279   3.869   6.190   6.449 -0.0810  0.0864 -0.2214
 1077YOPC   C2B15280   3.811   6.309   6.879 -0.0374 -0.1741 -0.2523
 1077YOPC   D3B15281   3.889   6.613   6.935 -0.2116  0.0443  0.3644
 1077YOPC   C4B15282   4.146   6.673   7.368 -0.0503 -0.0212  0.1278
 1078YOPC   NC315283  17.511   5.310   5.737 -0.0782  0.0670 -0.0337
 1078YOPC   PO415284  17.341   4.831   5.763 -0.0268 -0.2135  0.3627
 1078YOPC   GL115285  17.254   4.966   6.213 -0.0159 -0.0893  0.1821
 1078YOPC   GL215286  17.076   4.759   6.397  0.1509  0.1972  0.0967
 1078YOPC   C1A15287  17.541   4.970   6.639  0.6717 -0.0311 -0.1415
 1078YOPC   D2A15288  17.597   4.943   7.038 -0.1184  0.1068  0.2037
 1078YOPC   C3A15289  17.731   5.008   7.399 -0.1152 -0.1915 -0.2267
 1078YOPC   C4A15290  17.816   5.230   7.894 -0.2742  0.0048  0.2578
 1078YOPC   C1B15291  17.100   4.751   6.888 -0.0456  0.0325 -0.1157
 1078YOPC   C2B15292  17.169   5.026   7.300 -0.1752  0.1956  0.1829
 1078YOPC   D3B15293  17.114   5.465   7.401  0.2023  0.1633 -0.0508
 1078YOPC   C4B15294  16.757   5.739   7.514 -0.2533 -0.2175  0.0988
 1079YOPC   NC315295   4.993  17.417   5.569 -0.0363  0.4184 -0.0150
 1079YOPC   PO415296   4.746  17.617   5.818  0.0986  0.2062  0.0927
 1079YOPC   GL115297   4.505  17.845   6.145 -0.1069  0.1667  0.2157
 1079YOPC   GL215298   4.247  17.673   6.108  0.5822  0.1622 -0.0324
 1079YOPC   C1A15299   4.605  17.879   6.608  0.0264 -0.5418  0.2615
 1079YOPC   D2A15300   4.862  18.073   6.932  0.3531  0.0492  0.0835
 1079YOPC   C3A15301   4.963  18.371   7.150  0.3053  0.0730  0.0731
 1079YOPC   C4A15302   5.091  18.782   7.309  0.1020 -0.3613  0.1051
 1079YOPC   C1B15303   4.091  17.632   6.576 -0.0032  0.3043 -0.2464
 1079YOPC   C2B15304   4.199  17.497   7.088 -0.1922  0.0341 -0.0646
 1079YOPC   D3B15305   4.584  17.341   7.263 -0.2280 -0.1432 -0.2923
 1079YOPC   C4B15306   5.026  17.423   7.424  0.3247  0.1076  0.2042
 1080YOPC   NC315307   4.209   4.102   5.788 -0.2001  0.0666 -0.0020
 1080YOPC   PO415308   3.977   4.495   5.659 -0.1116 -0.3682 -0.0693
 1080YOPC   GL115309   3.979   4.524   6.076 -0.1325 -0.0721  0.1002
 1080YOPC   GL215310   3.679   4.332   6.227 -0.0919  0.4420 -0.1136
 1080YOPC   C1A15311   4.056   4.885   6.317  0.0067  0.0864  0.0625
 1080YOPC   D2A15312   4.138   5.224   6.606  0.0529 -0.1647  0.0518
 1080YOPC   C3A15313   4.054   5.393   6.974  0.1858 -0.0413 -0.0722
 1080YOPC   C4A15314   4.276   5.630   7.263  0.1023 -0.0733 -0.0464
 1080YOPC   C1B15315   3.541   4.534   6.647 -0.0616  0.3237  0.1219
 1080YOPC   C2B15316   3.643   4.435   7.036  0.2762 -0.1904  0.1740
 1080YOPC   D3B15317   3.407   4.189   7.253  0.4915  0.0331  0.1153
 1080YOPC   C4B15318   3.236   4.158   7.738 -0.1010 -0.1068 -0.4811
 1081YOPC   NC315319   2.806   7.707   5.952 -0.1343  0.0067  0.0010
 1081YOPC   PO415320   2.818   7.334   6.237  0.1710  0.0088 -0.0110
 1081YOPC   GL115321   2.503   7.329   6.655  0.0943  0.2031 -0.1069
 1081YOPC   GL215322   2.136   7.427   6.869 -0.0619  0.0212  0.1117
 1081YOPC   C1A15323   2.531   7.196   7.051 -0.1738  0.0030 -0.4434
 1081YOPC   D2A15324   2.806   7.044   7.406 -0.1469 -0.0615  0.2383
 1081YOPC   C3A15325   2.706   7.039   7.847 -0.1293  0.1102  0.0958
 1081YOPC   C4A15326   2.438   6.774   8.148  0.1148 -0.2921  0.1836
 1081YOPC   C1B15327   2.164   7.396   7.330  0.2261  0.0510  0.4058
 1081YOPC   C2B15328   2.326   7.070   7.501  0.1581 -0.0878  0.1021
 1081YOPC   D3B15329   2.424   6.760   7.140 -0.4047  0.0898 -0.0685
 1081YOPC   C4B15330   2.315   6.386   6.892  0.1078 -0.0087  0.3967
 1082YOPC   NC315331   2.034   0.790   5.874  0.0107  0.0118 -0.2124
 1082YOPC   PO415332   1.565   0.772   5.821 -0.1568  0.0561  0.1382
 1082YOPC   GL115333   1.807   0.498   6.196 -0.1887 -0.0480 -0.1108
 1082YOPC   GL215334   1.878   0.256   6.174 -0.1414 -0.0378  0.3591
 1082YOPC   C1A15335   1.892   0.643   6.635 -0.0637  0.1991  0.0670
 1082YOPC   D2A15336   1.824   0.949   6.872  0.2285 -0.0701  0.3349
 1082YOPC   C3A15337   1.908   1.368   7.110  0.1905  0.2839  0.2252
 1082YOPC   C4A15338   2.257   1.554   7.152  0.1349 -0.2649 -0.2601
 1082YOPC   C1B15339   1.873   0.156   6.643  0.2410 -0.1781 -0.2589
 1082YOPC   C2B15340   1.935  -0.018   7.031 -0.1989  0.0720 -0.0718
 1082YOPC   D3B15341   2.226   0.052   7.361  0.1823 -0.2168 -0.0858
 1082YOPC   C4B15342   2.472  -0.168   7.593  0.4401  0.2947  0.1518
 1083YOPC   NC315343   1.063   4.497   5.451 -0.3747 -0.1279 -0.0834
 1083YOPC   PO415344   1.165   4.052   5.666 -0.1782 -0.1534 -0.0926
 1083YOPC   GL115345   0.936   4.135   6.165  0.0014 -0.0073 -0.0714
 1083YOPC   GL215346   0.812   4.352   5.979 -0.2964  0.0019 -0.0074
 1083YOPC   C1A15347   0.967   4.266   6.476 -0.0687 -0.2420  0.1126
 1083YOPC   D2A15348   1.017   4.727   6.493  0.0215 -0.2067  0.5039
 1083YOPC   C3A15349   0.884   4.949   6.793 -0.1063 -0.1719 -0.2526
 1083YOPC   C4A15350   0.612   4.993   7.015  0.0043 -0.2206 -0.1537
 1083YOPC   C1B15351   0.628   4.546   6.331  0.1080 -0.1774 -0.0884
 1083YOPC   C2B15352   0.513   4.609   6.773 -0.1943  0.2512  0.0349
 1083YOPC   D3B15353   0.836   4.489   7.105  0.1337  0.2803 -0.0140
 1083YOPC   C4B15354   0.860   4.311   7.425 -0.3619 -0.1590  0.0680
 1084YOPC   NC315355   2.368   3.262   5.702  0.0795  0.0231 -0.1155
 1084YOPC   PO415356   2.616   3.602   5.883 -0.2776  0.2910  0.1338
 1084YOPC   GL115357   2.556   3.845   6.248 -0.0228 -0.0590 -0.1323
 1084YOPC   GL215358   2.616   4.232   6.275  0.2406  0.0693  0.2429
 1084YOPC   C1A15359   2.256   3.992   6.535 -0.0032  0.2642  0.0394
 1084YOPC   D2A15360   2.300   4.076   6.851 -0.1023 -0.0205 -0.1260
 1084YOPC   C3A15361   2.639   3.922   7.118 -0.1293 -0.5253 -0.0593
 1084YOPC   C4A15362   2.723   4.088   7.640 -0.0958 -0.0133 -0.1515
 1084YOPC   C1B15363   2.738   4.030   6.641 -0.0089  0.0312 -0.2099
 1084YOPC   C2B15364   2.600   3.613   6.698 -0.2407  0.1498  0.0961
 1084YOPC   D3B15365   2.790   3.403   7.136  0.4976 -0.0283  0.0408
 1084YOPC   C4B15366   3.175   3.250   7.185  0.2390 -0.2634 -0.0946
 1085YOPC   NC315367  15.740  14.315   6.140 -0.1913 -0.1622 -0.0780
 1085YOPC   PO415368  16.047  13.854   6.205  0.2189  0.1910 -0.0183
 1085YOPC   GL115369  16.215  13.750   6.525 -0.0904  0.0254 -0.0550
 1085YOPC   GL215370  16.115  13.928   6.754  0.2854 -0.0522 -0.0001
 1085YOPC   C1A15371  16.334  13.556   6.959  0.3560 -0.0397  0.3151
 1085YOPC   D2A15372  16.300  13.545   7.334 -0.0204 -0.1312 -0.2449
 1085YOPC   C3A15373  16.456  13.826   7.557  0.0061  0.3111  0.3264
 1085YOPC   C4A15374  16.656  14.238   7.441 -0.1434  0.0090  0.0598
 1085YOPC   C1B15375  15.959  13.827   7.077 -0.1491 -0.2006 -0.1073
 1085YOPC   C2B15376  15.863  13.400   7.189 -0.1345 -0.1474  0.1413
 1085YOPC   D3B15377  16.100  13.143   7.502 -0.0634  0.2402 -0.1740
 1085YOPC   C4B15378  16.126  12.963   7.844 -0.0964  0.1637 -0.0626
 1086YOPC   NC315379  11.684   5.901   5.587  0.0668  0.1656  0.3119
 1086YOPC   PO415380  11.280   6.171   5.471  0.0697  0.1374 -0.0399
 1086YOPC   GL115381  11.375   6.337   5.892  0.0859  0.1417  0.0727
 1086YOPC   GL215382  11.320   6.622   6.158 -0.0451  0.0833 -0.0394
 1086YOPC   C1A15383  11.375   6.203   6.403  0.2486  0.1582  0.0468
 1086YOPC   D2A15384  11.536   6.119   6.850  0.0662  0.0842  0.0018
 1086YOPC   C3A15385  11.309   6.035   7.229 -0.1586 -0.0135 -0.3304
 1086YOPC   C4A15386  10.973   5.651   7.343 -0.6627 -0.3262  0.2437
 1086YOPC   C1B15387  11.387   6.701   6.475 -0.1802 -0.0991 -0.1524
 1086YOPC   C2B15388  11.380   6.756   6.875  0.0682  0.0248  0.1274
 1086YOPC   D3B15389  11.497   6.663   7.245 -0.0809  0.0231  0.2822
 1086YOPC   C4B15390  11.796   6.578   7.497 -0.4184  0.0466 -0.3794
 1087YOPC   NC315391   4.398   3.114   5.769  0.1858 -0.0331 -0.1301
 1087YOPC   PO415392   4.215   3.445   5.851  0.1644 -0.0260 -0.1884
 1087YOPC   GL115393   4.078   3.079   6.173 -0.0096  0.1878 -0.2322
 1087YOPC   GL215394   4.398   3.075   6.341 -0.0926  0.1213 -0.0741
 1087YOPC   C1A15395   3.784   3.079   6.543  0.1014 -0.1761 -0.0136
 1087YOPC   D2A15396   3.465   2.968   6.856 -0.2182  0.0558  0.0832
 1087YOPC   C3A15397   3.660   3.121   7.201 -0.0408  0.1285  0.2887
 1087YOPC   C4A15398   3.590   3.239   7.664 -0.0734 -0.1497  0.0239
 1087YOPC   C1B15399   4.133   3.452   6.605  0.3927 -0.0877 -0.0544
 1087YOPC   C2B15400   4.060   3.432   7.032  0.1188  0.1141 -0.0017
 1087YOPC   D3B15401   4.038   3.429   7.475  0.2042 -0.0458  0.1108
 1087YOPC   C4B15402   3.960   3.717   7.757 -0.2396 -0.1832  0.1108
 1088YOPC   NC315403   6.250  14.663   5.847  0.1869  0.2087  0.1624
 1088YOPC   PO415404   6.016  14.201   5.696 -0.3330  0.1398 -0.3407
 1088YOPC   GL115405   6.017  13.988   6.196 -0.2862 -0.1974  0.0471
 1088YOPC   GL215406   5.894  13.926   6.539  0.1563 -0.2524 -0.0668
 1088YOPC   C1A15407   6.192  13.536   6.530 -0.1011  0.0264  0.0549
 1088YOPC   D2A15408   6.505  13.246   6.565  0.0743  0.0401 -0.2296
 1088YOPC   C3A15409   6.746  13.305   6.888  0.0683 -0.2230  0.0674
 1088YOPC   C4A15410   6.967  13.276   7.304 -0.0993  0.2751  0.0622
 1088YOPC   C1B15411   5.571  13.939   6.909 -0.3170  0.0892 -0.1001
 1088YOPC   C2B15412   5.469  13.666   7.198  0.2546 -0.2834 -0.1848
 1088YOPC   D3B15413   5.723  13.672   7.494 -0.3474  0.2743  0.6097
 1088YOPC   C4B15414   6.110  13.488   7.496  0.3531  0.2946  0.0901
 1089YOPC   NC315415   3.498  17.590   5.840 -0.0800  0.2234  0.1362
 1089YOPC   PO415416   3.724  17.963   5.993  0.1522 -0.0528 -0.0934
 1089YOPC   GL115417   3.624  17.851   6.433 -0.0755  0.4811  0.0182
 1089YOPC   GL215418   3.324  17.712   6.419  0.1645 -0.2147  0.0333
 1089YOPC   C1A15419   3.757  17.810   6.887 -0.0012  0.0050 -0.0921
 1089YOPC   D2A15420   3.967  17.887   7.382 -0.1637 -0.3484 -0.1138
 1089YOPC   C3A15421   3.904  17.589   7.551  0.2042 -0.1282  0.0795
 1089YOPC   C4A15422   3.616  17.188   7.527 -0.0900  0.1316  0.2281
 1089YOPC   C1B15423   3.165  17.553   6.744 -0.1280 -0.1210  0.0438
 1089YOPC   C2B15424   3.213  17.565   7.179 -0.1201  0.5528 -0.1481
 1089YOPC   D3B15425   3.095  17.439   7.682  0.2163 -0.2772  0.0097
 1089YOPC   C4B15426   3.353  17.085   7.960  0.0894  0.2586  0.0815
 1090YOPC   NC315427  13.648   9.587   5.974 -0.0001  0.0908  0.1496
 1090YOPC   PO415428  13.814   9.077   5.881  0.0150  0.0196  0.0796
 1090YOPC   GL115429  13.511   8.956   6.247 -0.1197  0.2421  0.0797
 1090YOPC   GL215430  13.666   8.832   6.449 -0.2825 -0.2104 -0.0492
 1090YOPC   C1A15431  13.194   8.709   6.511 -0.0427 -0.2446  0.2176
 1090YOPC   D2A15432  12.825   8.606   6.762  0.0326 -0.0173 -0.0265
 1090YOPC   C3A15433  12.980   8.509   7.105 -0.0131  0.0616 -0.1139
 1090YOPC   C4A15434  13.024   8.802   7.535 -0.0716 -0.0861  0.3895
 1090YOPC   C1B15435  13.487   8.693   6.896  0.0537  0.0086  0.0088
 1090YOPC   C2B15436  13.496   8.480   7.255 -0.1668  0.0149 -0.1845
 1090YOPC   D3B15437  13.770   8.081   7.188 -0.3169  0.0070  0.0649
 1090YOPC   C4B15438  14.122   7.980   7.260 -0.0322 -0.0902  0.0771
 1091YOPC   NC315439  16.018   3.071   6.133  0.0328 -0.0125 -0.0359
 1091YOPC   PO415440  16.464   3.110   6.063 -0.4098  0.2458  0.0004
 1091YOPC   GL115441  16.633   3.024   6.419  0.2279 -0.0903 -0.0521
 1091YOPC   GL215442  16.337   2.817   6.489  0.2611 -0.0648 -0.0043
 1091YOPC   C1A15443  16.860   3.189   6.725  0.0684 -0.0893  0.3968
 1091YOPC   D2A15444  16.848   3.205   7.219  0.0785 -0.0133 -0.1685
 1091YOPC   C3A15445  17.193   3.109   7.513  0.1240  0.1498 -0.3285
 1091YOPC   C4A15446  17.502   3.259   7.739  0.1895  0.1051 -0.3130
 1091YOPC   C1B15447  16.184   2.515   6.832  0.0642 -0.2680  0.0992
 1091YOPC   C2B15448  16.289   2.340   7.338  0.1628 -0.3213 -0.0582
 1091YOPC   D3B15449  15.973   1.958   7.435  0.1697  0.1101  0.3598
 1091YOPC   C4B15450  15.619   1.840   7.705 -0.4345  0.1415  0.0088
 1092YOPC   NC315451   2.785   8.573   6.332  0.2741 -0.1555  0.2606
 1092YOPC   PO415452   2.339   8.716   6.162 -0.0330  0.1132  0.2370
 1092YOPC   GL115453   2.209   8.989   6.507 -0.2629  0.1109  0.2088
 1092YOPC   GL215454   2.560   8.925   6.612 -0.1902 -0.0327 -0.1843
 1092YOPC   C1A15455   2.368   9.387   6.756 -0.0188 -0.1293  0.3474
 1092YOPC   D2A15456   2.671   9.738   6.797  0.3974  0.0349 -0.1032
 1092YOPC   C3A15457   2.615   9.780   7.203 -0.0210 -0.0993  0.2112
 1092YOPC   C4A15458   2.401   9.865   7.643 -0.0822  0.1128  0.2629
 1092YOPC   C1B15459   2.429   8.924   6.988 -0.0463  0.2142 -0.0746
 1092YOPC   C2B15460   2.490   8.572   7.348 -0.0965 -0.1727  0.3218
 1092YOPC   D3B15461   2.649   8.616   7.739 -0.0347 -0.0912 -0.0621
 1092YOPC   C4B15462   2.506   8.842   8.123 -0.0273 -0.0649 -0.2658
 1093YOPC   NC315463  14.378  11.414   6.482 -0.1219 -0.0340 -0.0543
 1093YOPC   PO415464  14.142  11.051   6.377  0.1922  0.0426  0.1410
 1093YOPC   GL115465  14.197  11.025   6.833  0.1424  0.2185 -0.1841
 1093YOPC   GL215466  14.176  11.397   6.920 -0.0102  0.4063 -0.2715
 1093YOPC   C1A15467  14.203  10.961   7.225 -0.0290 -0.1036  0.1386
 1093YOPC   D2A15468  13.775  11.043   7.490  0.0071 -0.0415  0.1335
 1093YOPC   C3A15469  13.535  11.334   7.729  0.0885  0.0448 -0.4348
 1093YOPC   C4A15470  13.475  11.799   7.724 -0.0969  0.0705  0.0028
 1093YOPC   C1B15471  13.982  11.433   7.373 -0.1523  0.3324 -0.0503
 1093YOPC   C2B15472  14.056  11.374   7.859 -0.1799  0.2075 -0.2226
 1093YOPC   D3B15473  13.818  11.683   8.066 -0.0249 -0.0742 -0.1863
 1093YOPC   C4B15474  13.449  11.935   8.297 -0.1034  0.2903  0.0985
 1094YOPC   NC315475   4.579   0.074   5.245  0.0545 -0.1959  0.2179
 1094YOPC   PO415476   4.304   0.237   5.606 -0.0594 -0.3370 -0.0984
 1094YOPC   GL115477   4.310   0.034   6.051  0.0533 -0.2634  0.0716
 1094YOPC   GL215478   4.511   0.174   6.244 -0.0800 -0.0453  0.1561
 1094YOPC   C1A15479   4.151  -0.150   6.444  0.1643 -0.1954  0.1065
 1094YOPC   D2A15480   4.227  -0.252   6.899  0.3218 -0.3337  0.4104
 1094YOPC   C3A15481   4.470  -0.381   7.246 -0.0989 -0.0459 -0.0230
 1094YOPC   C4A15482   4.641  -0.523   7.588  0.1731 -0.0095  0.0314
 1094YOPC   C1B15483   4.577   0.218   6.676 -0.0710  0.1893 -0.2068
 1094YOPC   C2B15484   4.467   0.162   7.102 -0.1124  0.1305 -0.0220
 1094YOPC   D3B15485   4.449   0.353   7.546 -0.0754 -0.2103 -0.0996
 1094YOPC   C4B15486   4.873   0.450   7.812  0.5984  0.3287 -0.0710
 1095YOPC   NC315487   9.862  11.965   5.833  0.3472  0.0168  0.1016
 1095YOPC   PO415488  10.169  11.634   5.875  0.1106 -0.0010 -0.0048
 1095YOPC   GL115489  10.002  11.668   6.345  0.0624 -0.1312 -0.0174
 1095YOPC   GL215490  10.134  11.477   6.465 -0.0289  0.1263 -0.2606
 1095YOPC   C1A15491   9.622  11.729   6.544 -0.0609 -0.1914  0.1784
 1095YOPC   D2A15492   9.589  11.565   6.960  0.4053 -0.0215  0.0009
 1095YOPC   C3A15493   9.186  11.558   7.269 -0.0023  0.2995 -0.1467
 1095YOPC   C4A15494   8.902  11.559   7.491  0.0805  0.0193  0.0437
 1095YOPC   C1B15495  10.091  11.410   6.811 -0.0550  0.1485 -0.1706
 1095YOPC   C2B15496  10.035  11.493   7.228  0.0957  0.2844 -0.1784
 1095YOPC   D3B15497   9.830  11.840   7.284  0.2410 -0.0464 -0.0641
 1095YOPC   C4B15498   9.548  12.046   7.479 -0.0528 -0.0926 -0.1671
 1096YOPC   NC315499   5.099   9.091   5.510  0.0122 -0.1839 -0.0729
 1096YOPC   PO415500   4.838   9.320   5.783  0.1187  0.0076  0.0213
 1096YOPC   GL115501   4.644   9.202   6.143  0.0884  0.1274 -0.0566
 1096YOPC   GL215502   4.368   8.998   6.074 -0.2776 -0.1528  0.0361
 1096YOPC   C1A15503   4.435   9.259   6.535 -0.2851  0.0514 -0.2049
 1096YOPC   D2A15504   4.334   9.217   6.934 -0.0630  0.3432 -0.1359
 1096YOPC   C3A15505   4.207   9.490   7.243 -0.2022 -0.0862 -0.0275
 1096YOPC   C4A15506   3.971   9.616   7.509 -0.3079 -0.3154  0.0730
 1096YOPC   C1B15507   4.170   8.715   6.407  0.1792  0.1145  0.1180
 1096YOPC   C2B15508   4.066   8.626   6.886 -0.0242 -0.3205  0.2588
 1096YOPC   D3B15509   3.732   8.427   7.014  0.0011 -0.1494 -0.1870
 1096YOPC   C4B15510   3.754   8.074   7.339  0.0026  0.1283 -0.0590
 1097YOPC   NC315511  12.372   5.820   5.106  0.0750  0.1172  0.0197
 1097YOPC   PO415512  12.203   6.057   5.498  0.2449 -0.1254 -0.1161
 1097YOPC   GL115513  12.085   6.183   5.904 -0.0455 -0.0627  0.0710
 1097YOPC   GL215514  11.911   6.281   6.171  0.0843  0.0216 -0.0447
 1097YOPC   C1A15515  12.247   5.920   6.280 -0.0080 -0.0166 -0.0109
 1097YOPC   D2A15516  12.379   5.714   6.661  0.1210 -0.2636 -0.1332
 1097YOPC   C3A15517  12.397   5.802   7.071  0.1634 -0.2955 -0.2843
 1097YOPC   C4A15518  12.323   5.881   7.444 -0.2116 -0.2439 -0.2466
 1097YOPC   C1B15519  11.848   6.459   6.632 -0.1284 -0.4984 -0.2228
 1097YOPC   C2B15520  11.874   6.421   7.008  0.1924 -0.0233  0.0638
 1097YOPC   D3B15521  12.196   6.291   7.190 -0.1929 -0.2867  0.0716
 1097YOPC   C4B15522  12.520   6.296   7.542 -0.0029 -0.2233  0.1018
 1098YOPC   NC315523  14.266  10.621   6.487  0.1259  0.1755  0.1105
 1098YOPC   PO415524  14.610  10.972   6.565  0.2938 -0.2819 -0.1725
 1098YOPC   GL115525  14.778  10.754   6.883  0.1811 -0.1194  0.0629
 1098YOPC   GL215526  14.500  10.666   6.968  0.0269  0.1186 -0.0295
 1098YOPC   C1A15527  14.991  10.865   7.218 -0.1340 -0.0932 -0.3344
 1098YOPC   D2A15528  15.020  11.034   7.576 -0.0790  0.4904 -0.0324
 1098YOPC   C3A15529  15.338  10.994   7.850  0.3936 -0.1550  0.0343
 1098YOPC   C4A15530  15.424  10.837   8.145 -0.0482  0.0863 -0.3499
 1098YOPC   C1B15531  14.318  10.388   7.347 -0.3966 -0.1164  0.1248
 1098YOPC   C2B15532  14.488  10.278   7.798  0.0260  0.0686 -0.1201
 1098YOPC   D3B15533  14.861  10.112   7.956  0.1808 -0.1378 -0.3167
 1098YOPC   C4B15534  15.115   9.743   8.109 -0.0299 -0.0657 -0.3528
 1099YOPC   NC315535  15.548   1.529   5.545 -0.1391  0.1169  0.0612
 1099YOPC   PO415536  15.347   1.977   5.716  0.4748 -0.0744  0.0976
 1099YOPC   GL115537  15.319   1.928   6.172  0.0594  0.0234 -0.0902
 1099YOPC   GL215538  15.640   2.067   6.289 -0.1414 -0.1728 -0.1589
 1099YOPC   C1A15539  15.260   1.705   6.644  0.1619  0.1303 -0.0452
 1099YOPC   D2A15540  15.147   1.706   7.055  0.1248  0.1901 -0.1960
 1099YOPC   C3A15541  14.908   1.360   7.239  0.0615  0.0680 -0.2378
 1099YOPC   C4A15542  14.559   1.148   7.487  0.0573 -0.1629  0.0913
 1099YOPC   C1B15543  15.332   2.194   6.570 -0.0073 -0.1423 -0.1704
 1099YOPC   C2B15544  15.128   2.187   7.007  0.0814  0.0225 -0.1053
 1099YOPC   D3B15545  15.333   2.301   7.466  0.0337  0.2703 -0.0992
 1099YOPC   C4B15546  15.128   2.488   7.837 -0.2779  0.2805 -0.3197
 1100YOPC   NC315547  14.339   9.105   5.849 -0.0391 -0.0426 -0.3133
 1100YOPC   PO415548  14.582   9.438   6.097  0.0233  0.2286 -0.2979
 1100YOPC   GL115549  14.450   9.443   6.522 -0.0992  0.3410  0.0815
 1100YOPC   GL215550  14.554   9.668   6.727 -0.2554  0.0793 -0.3780
 1100YOPC   C1A15551  14.524   9.038   6.777 -0.2814  0.0719 -0.1147
 1100YOPC   D2A15552  14.306   8.605   6.754  0.0268 -0.0026 -0.0777
 1100YOPC   C3A15553  14.441   8.377   7.045 -0.0692  0.2478 -0.1677
 1100YOPC   C4A15554  14.649   8.032   7.330 -0.2676  0.0356 -0.1576
 1100YOPC   C1B15555  14.437   9.453   7.030 -0.1846  0.1560  0.1553
 1100YOPC   C2B15556  14.607   9.231   7.344  0.0065 -0.0645  0.0455
 1100YOPC   D3B15557  14.450   8.863   7.479 -0.3456  0.0069 -0.1305
 1100YOPC   C4B15558  14.478   8.419   7.552 -0.0911 -0.1530 -0.1830
 1101YOPC   NC315559  10.211  13.453   5.826  0.0194 -0.0493 -0.2463
 1101YOPC   PO415560   9.833  13.307   5.811 -0.0302 -0.0953  0.0774
 1101YOPC   GL115561   9.608  13.359   6.229 -0.0546 -0.2264 -0.1075
 1101YOPC   GL215562   9.455  13.665   6.238 -0.1125  0.1456 -0.0749
 1101YOPC   C1A15563   9.452  13.383   6.646 -0.0489  0.0376 -0.0659
 1101YOPC   D2A15564   9.255  13.476   6.988  0.0336 -0.0505  0.1975
 1101YOPC   C3A15565   9.430  13.373   7.348 -0.1568 -0.1221  0.1794
 1101YOPC   C4A15566   9.502  13.649   7.719 -0.4989 -0.0385  0.0677
 1101YOPC   C1B15567   9.214  13.814   6.485  0.0873  0.1368  0.4175
 1101YOPC   C2B15568   8.854  13.626   6.609 -0.5544 -0.1995 -0.3742
 1101YOPC   D3B15569   8.692  13.483   6.971  0.2162  0.1604 -0.0057
 1101YOPC   C4B15570   8.860  13.251   7.364  0.1339 -0.0623 -0.0399
 1102YOPC   NC315571  11.559   0.979   5.355  0.1520  0.0756 -0.1219
 1102YOPC   PO415572  11.398   0.730   5.715  0.0738 -0.2856 -0.0154
 1102YOPC   GL115573  11.384   0.693   6.010  0.2915  0.3505  0.1491
 1102YOPC   GL215574  11.069   0.810   6.238 -0.1723 -0.1989  0.1445
 1102YOPC   C1A15575  11.620   0.941   6.348 -0.0417  0.1018  0.2143
 1102YOPC   D2A15576  11.777   0.785   6.710 -0.1117 -0.1078 -0.3140
 1102YOPC   C3A15577  12.183   0.822   7.042  0.1473 -0.0955  0.1367
 1102YOPC   C4A15578  12.497   0.896   7.339  0.1831  0.1029  0.0682
 1102YOPC   C1B15579  11.122   0.989   6.602 -0.1439 -0.1612  0.1577
 1102YOPC   C2B15580  11.281   1.461   6.802  0.3115 -0.1727 -0.1962
 1102YOPC   D3B15581  11.142   1.469   7.179 -0.1659 -0.1383  0.0578
 1102YOPC   C4B15582  10.739   1.537   7.099  0.0057  0.2714 -0.5571
 1103ERGO   ROH15583   7.307  15.427   6.082  0.0537 -0.0682  0.0714
 1103ERGO    R115584   7.246  15.412   6.358 -0.0777 -0.0927  0.0420
 1103ERGO    R215585   7.186  15.174   6.484  0.0290 -0.1305  0.0290
 1103ERGO    R315586   7.386  15.250   6.652 -0.1088  0.0288  0.1236
 1103ERGO    R415587   7.233  15.052   6.804 -0.0477 -0.0532  0.0697
 1103ERGO    R515588   7.284  15.254   6.868 -0.2198 -0.0118  0.0705
 1103ERGO    C115589   7.449  15.053   7.148 -0.2217  0.1414  0.1822
 1103ERGO    C215590   7.652  14.824   7.304  0.2389 -0.0100  0.0828
 1104ERGO   ROH15591   2.309   8.429   6.628 -0.1182 -0.1559  0.0149
 1104ERGO    R115592   2.280   8.320   6.888 -0.1107 -0.2932 -0.0407
 1104ERGO    R215593   2.231   8.050   6.931  0.2763 -0.3941 -0.1657
 1104ERGO    R315594   2.451   8.071   7.090  0.1545 -0.1027 -0.0285
 1104ERGO    R415595   2.297   7.851   7.206  0.2751 -0.1536  0.0122
 1104ERGO    R515596   2.370   8.027   7.310  0.0526 -0.0251 -0.0545
 1104ERGO    C115597   2.541   7.754   7.514  0.1601  0.2599  0.2446
 1104ERGO    C215598   2.629   7.475   7.639  0.2708  0.1088  0.1745
 1105ERGO   ROH15599  13.097  10.784  10.127 -0.2989  0.0698 -0.1582
 1105ERGO    R115600  13.245  10.867   9.900 -0.1536  0.0346 -0.0793
 1105ERGO    R215601  13.308  10.695   9.693 -0.0764  0.0131 -0.0482
 1105ERGO    R315602  13.190  10.887   9.541  0.0437  0.0403 -0.1088
 1105ERGO    R415603  13.393  10.769   9.366 -0.0542 -0.1555 -0.0803
 1105ERGO    R515604  13.369  10.981   9.412  0.0932 -0.1254 -0.1557
 1105ERGO    C115605  13.331  10.992   9.033  0.0713 -0.2282 -0.1558
 1105ERGO    C215606  13.233  11.046   8.587 -0.1642  0.1650  0.1311
 1106ERGO   ROH15607   3.251  18.227   6.191 -0.0275  0.1508 -0.1712
 1106ERGO    R115608   3.214  18.262   6.469  0.1072  0.1827 -0.1565
 1106ERGO    R215609   3.099  18.069   6.629 -0.0285  0.2902 -0.1183
 1106ERGO    R315610   3.328  18.098   6.774  0.0567  0.0622 -0.2027
 1106ERGO    R415611   3.117  18.060   6.974  0.1381  0.0244 -0.1308
 1106ERGO    R515612   3.261  18.224   6.966  0.2184 -0.0460 -0.0751
 1106ERGO    C115613   3.342  18.083   7.311  0.3151 -0.3445 -0.2174
 1106ERGO    C215614   3.497  17.910   7.576  0.0473 -0.2319 -0.2418
 1107ERGO   ROH15615  12.467  13.895   6.750 -0.1308  0.1940  0.0819
 1107ERGO    R115616  12.431  13.992   7.013 -0.1304  0.0532  0.1338
 1107ERGO    R215617  12.199  13.949   7.157 -0.1141 -0.0520  0.1219
 1107ERGO    R315618  12.370  13.848   7.342 -0.0937 -0.1227  0.0661
 1107ERGO    R415619  12.151  13.964   7.499  0.0587  0.0880  0.1420
 1107ERGO    R515620  12.363  14.006   7.522  0.1074 -0.0584  0.0240
 1107ERGO    C115621  12.284  13.878   7.872  0.1783  0.1030  0.1014
 1107ERGO    C215622  12.227  13.857   8.287 -0.0571  0.1028 -0.3111
 1108ERGO   ROH15623   0.207  15.896  10.217 -0.4475  0.1380  0.0684
 1108ERGO    R115624   0.306  15.757   9.992  0.0437  0.3159  0.1599
 1108ERGO    R215625   0.141  15.635   9.807  0.4378 -0.3650  0.2055
 1108ERGO    R315626   0.280  15.787   9.630 -0.0385  0.0208  0.1420
 1108ERGO    R415627   0.170  15.568   9.469  0.4239 -0.2216  0.1764
 1108ERGO    R515628   0.379  15.628   9.480  0.2806  0.3007  0.0592
 1108ERGO    C115629   0.319  15.672   9.106 -0.0313  0.2241  0.0998
 1108ERGO    C215630   0.188  15.628   8.732 -0.0545  0.0060 -0.0889
 1109ERGO   ROH15631  11.361  17.285  10.173  0.0809 -0.2349  0.0342
 1109ERGO    R115632  11.277  17.132   9.951  0.1581 -0.1886 -0.0267
 1109ERGO    R215633  11.173  17.247   9.722  0.0540 -0.1525  0.0413
 1109ERGO    R315634  11.369  17.104   9.600  0.1356  0.0350 -0.0528
 1109ERGO    R415635  11.209  17.212   9.380 -0.0422 -0.0638  0.0211
 1109ERGO    R515636  11.261  17.003   9.411  0.1503 -0.0279 -0.0302
 1109ERGO    C115637  11.415  17.058   9.066 -0.0216  0.1637 -0.0791
 1109ERGO    C215638  11.406  17.093   8.668 -0.2009 -0.0592  0.0218
 1110ERGO   ROH15639   9.592   1.305   9.881 -0.0951 -0.0416  0.0155
 1110ERGO    R115640   9.461   1.234   9.640 -0.1010  0.1943 -0.0533
 1110ERGO    R215641   9.411   1.417   9.438  0.3354  0.2935 -0.0859
 1110ERGO    R315642   9.541   1.235   9.285  0.0925  0.0484 -0.0102
 1110ERGO    R415643   9.419   1.420   9.093  0.1897  0.0149 -0.0945
 1110ERGO    R515644   9.398   1.203   9.096 -0.0186  0.0379  0.0784
 1110ERGO    C115645   9.547   1.250   8.748 -0.1232 -0.3773 -0.0283
 1110ERGO    C215646   9.543   1.184   8.378  0.0868 -0.2478  0.1098
 1111ERGO   ROH15647  14.991   3.362   9.812 -0.0805 -0.0303 -0.1468
 1111ERGO    R115648  14.918   3.360   9.539 -0.0203 -0.0822 -0.1630
 1111ERGO    R215649  14.910   3.590   9.385 -0.1745 -0.0824 -0.1586
 1111ERGO    R315650  15.075   3.448   9.222 -0.0221  0.0557 -0.1260
 1111ERGO    R415651  14.943   3.641   9.045  0.0124  0.0877 -0.1159
 1111ERGO    R515652  14.952   3.425   9.018  0.1100  0.1030 -0.2120
 1111ERGO    C115653  15.118   3.538   8.694  0.2642  0.3163 -0.0607
 1111ERGO    C215654  14.934   3.487   8.315  0.0653 -0.1026  0.0074
 1112ERGO   ROH15655   8.411  12.538   6.500  0.1279  0.3125  0.1325
 1112ERGO    R115656   8.399  12.399   6.746  0.0155  0.1880  0.0586
 1112ERGO    R215657   8.467  12.517   6.987  0.0274  0.0302  0.1343
 1112ERGO    R315658   8.219  12.433   7.060 -0.0270  0.1093  0.0429
 1112ERGO    R415659   8.348  12.513   7.311 -0.1161  0.1286  0.0839
 1112ERGO    R515660   8.253  12.321   7.269 -0.1470  0.1436  0.0824
 1112ERGO    C115661   8.046  12.432   7.569 -0.2506  0.2602 -0.0312
 1112ERGO    C215662   8.007  12.611   7.828  0.1230  0.2859  0.1111
 1113ERGO   ROH15663   1.481   4.557   6.481  0.0582  0.3197  0.1182
 1113ERGO    R115664   1.474   4.634   6.753 -0.0157  0.1728  0.1613
 1113ERGO    R215665   1.268   4.561   6.924 -0.0698  0.0802  0.0756
 1113ERGO    R315666   1.472   4.465   7.076 -0.1076 -0.0068  0.0642
 1113ERGO    R415667   1.252   4.506   7.264 -0.0925 -0.0108  0.0574
 1113ERGO    R515668   1.454   4.584   7.282 -0.0859 -0.0682  0.0917
 1113ERGO    C115669   1.434   4.383   7.605 -0.1411 -0.1455  0.0361
 1113ERGO    C215670   1.248   4.425   7.899  0.2468 -0.1041  0.0876
 1114ERGO   ROH15671  16.282   9.484   7.312  0.0181 -0.0077  0.1253
 1114ERGO    R115672  16.522   9.377   7.417  0.0559  0.1954  0.2515
 1114ERGO    R215673  16.592   9.401   7.684 -0.2487  0.0031  0.3556
 1114ERGO    R315674  16.613   9.131   7.669  0.1187  0.0403  0.0786
 1114ERGO    R415675  16.774   9.205   7.902 -0.2285 -0.0022  0.3337
 1114ERGO    R515676  16.839   9.085   7.733  0.1122  0.2656  0.2687
 1114ERGO    C115677  16.900   8.837   8.016  0.1282  0.0295  0.0609
 1114ERGO    C215678  16.922   8.549   8.173 -0.0895 -0.0386 -0.0185
 1115ERGO   ROH15679   2.487  13.478  10.352 -0.1132 -0.1717 -0.0996
 1115ERGO    R115680   2.573  13.577  10.101  0.0045 -0.1020 -0.0319
 1115ERGO    R215681   2.667  13.412   9.901 -0.0360 -0.0587 -0.0800
 1115ERGO    R315682   2.475  13.535   9.753  0.0718  0.1144 -0.0800
 1115ERGO    R415683   2.664  13.427   9.556 -0.2065 -0.3950 -0.0972
 1115ERGO    R515684   2.596  13.633   9.570  0.1373 -0.2562 -0.2513
 1115ERGO    C115685   2.482  13.551   9.215 -0.2045 -0.4281 -0.1072
 1115ERGO    C215686   2.504  13.497   8.838 -0.2864 -0.1284  0.0740
 1116ERGO   ROH15687   8.050   5.616   9.578  0.0052  0.0542  0.1023
 1116ERGO    R115688   7.901   5.691   9.350 -0.0101  0.0370  0.1065
 1116ERGO    R215689   8.001   5.861   9.156 -0.0044 -0.0150  0.0618
 1116ERGO    R315690   7.935   5.657   8.989 -0.0588 -0.0361  0.1090
 1116ERGO    R415691   7.974   5.886   8.812  0.0843 -0.1113  0.0478
 1116ERGO    R515692   7.799   5.758   8.821  0.0257 -0.0283  0.0470
 1116ERGO    C115693   7.898   5.708   8.456  0.0849 -0.1873  0.0839
 1116ERGO    C215694   7.695   5.478   8.196  0.2279 -0.2808 -0.3232
 1117ERGO   ROH15695   6.076   5.115   9.552  0.0038  0.0944 -0.1935
 1117ERGO    R115696   6.074   5.030   9.282  0.1799  0.0405 -0.1793
 1117ERGO    R215697   5.892   5.125   9.097  0.0107 -0.3265 -0.2114
 1117ERGO    R315698   6.115   5.186   8.955 -0.0842  0.0649 -0.2021
 1117ERGO    R415699   5.894   5.234   8.770 -0.1697 -0.0649 -0.1279
 1117ERGO    R515700   6.068   5.109   8.734 -0.0175  0.1800 -0.2550
 1117ERGO    C115701   6.105   5.356   8.446 -0.3638  0.4549 -0.0706
 1117ERGO    C215702   5.970   5.554   8.128  0.0064  0.1145 -0.0935
 1118ERGO   ROH15703   1.299   7.718   7.026  0.3177 -0.3477  0.3710
 1118ERGO    R115704   1.102   7.880   7.150  0.1810 -0.2504  0.0375
 1118ERGO    R215705   0.873   7.774   7.264  0.1187 -0.1750 -0.0147
 1118ERGO    R315706   0.957   7.912   7.482 -0.0817  0.0970 -0.1050
 1118ERGO    R415707   0.684   7.828   7.548  0.0093 -0.1946 -0.0838
 1118ERGO    R515708   0.763   8.031   7.555 -0.2430 -0.0870 -0.2246
 1118ERGO    C115709   0.653   7.989   7.918 -0.2426  0.0493 -0.2089
 1118ERGO    C215710   0.552   7.799   8.137  0.1056 -0.0845 -0.0689
 1119ERGO   ROH15711   8.444  11.096   9.772  0.0720  0.3103 -0.0237
 1119ERGO    R115712   8.357  10.951   9.545 -0.0073  0.1159  0.1262
 1119ERGO    R215713   8.129  11.019   9.404  0.0198  0.0873  0.0574
 1119ERGO    R315714   8.300  11.022   9.192  0.0224 -0.2179  0.0530
 1119ERGO    R415715   8.032  11.008   9.072 -0.0000  0.1981  0.0604
 1119ERGO    R515716   8.199  10.874   9.033 -0.2185 -0.0773  0.0747
 1119ERGO    C115717   8.137  11.005   8.680 -0.0093 -0.0237  0.0579
 1119ERGO    C215718   8.038  11.000   8.347  0.2552 -0.2785  0.2347
 1120ERGO   ROH15719   3.170  14.316  10.166  0.3991  0.1064 -0.0395
 1120ERGO    R115720   3.214  14.222   9.903  0.3533  0.1685 -0.0690
 1120ERGO    R215721   3.018  14.093   9.756  0.3838  0.0425  0.0046
 1120ERGO    R315722   3.075  14.286   9.573  0.1622  0.1039 -0.0038
 1120ERGO    R415723   3.093  14.035   9.423  0.1604  0.1328 -0.0636
 1120ERGO    R515724   3.246  14.189   9.435  0.1049  0.2004 -0.1497
 1120ERGO    C115725   3.189  14.182   9.058 -0.1776  0.2431 -0.1112
 1120ERGO    C215726   3.179  14.235   8.643 -0.0229 -0.1749 -0.1159
 1121ERGO   ROH15727   7.434  14.101  10.079 -0.1308  0.0702 -0.0213
 1121ERGO    R115728   7.360  13.993   9.828 -0.0909  0.1167 -0.0529
 1121ERGO    R215729   7.225  14.140   9.637  0.0010  0.1731 -0.0741
 1121ERGO    R315730   7.432  14.064   9.479  0.0238  0.1344 -0.0263
 1121ERGO    R415731   7.239  14.185   9.295  0.0644  0.1240 -0.0783
 1121ERGO    R515732   7.328  13.987   9.277  0.0528  0.1137 -0.0342
 1121ERGO    C115733   7.442  14.141   8.947  0.1227  0.0592 -0.0359
 1121ERGO    C215734   7.392  14.118   8.631 -0.2673 -0.0870 -0.1859
 1122ERGO   ROH15735  13.540   2.359  10.162  0.0459 -0.3743 -0.0808
 1122ERGO    R115736  13.390   2.363   9.922 -0.0097 -0.2974 -0.0451
 1122ERGO    R215737  13.403   2.573   9.742 -0.0157 -0.2621 -0.0018
 1122ERGO    R315738  13.463   2.375   9.565 -0.0919 -0.2341 -0.0606
 1122ERGO    R415739  13.460   2.620   9.405  0.0315 -0.1761  0.0179
 1122ERGO    R515740  13.349   2.438   9.365 -0.0501 -0.1148 -0.0502
 1122ERGO    C115741  13.551   2.462   9.042 -0.0127 -0.0998 -0.0260
 1122ERGO    C215742  13.544   2.364   8.840 -0.1467 -0.2871 -0.1635
 1123ERGO   ROH15743  12.453   6.417   6.216 -0.3387 -0.5678  0.1057
 1123ERGO    R115744  12.501   6.592   6.433 -0.0465 -0.3976 -0.0903
 1123ERGO    R215745  12.297   6.699   6.587  0.1262  0.1015 -0.1891
 1123ERGO    R315746  12.440   6.592   6.792 -0.0302  0.0976 -0.0805
 1123ERGO    R415747  12.282   6.806   6.915 -0.0954  0.1224 -0.2043
 1123ERGO    R515748  12.498   6.780   6.928 -0.1064  0.0994 -0.0498
 1123ERGO    C115749  12.408   6.768   7.298 -0.3713  0.1309 -0.1112
 1123ERGO    C215750  12.399   6.754   7.576 -0.2059  0.2105 -0.0589
 1124ERGO   ROH15751   6.362   0.072   9.683 -0.0697  0.1947 -0.0411
 1124ERGO    R115752   6.446   0.013   9.419  0.0732  0.2621 -0.0122
 1124ERGO    R215753   6.325  -0.183   9.265  0.3164  0.1278 -0.0415
 1124ERGO    R315754   6.297   0.020   9.087  0.1663  0.0923 -0.0574
 1124ERGO    R415755   6.387  -0.208   8.926  0.1205  0.1016 -0.0770
 1124ERGO    R515756   6.478  -0.010   8.933  0.0775  0.1172 -0.1613
 1124ERGO    C115757   6.397  -0.031   8.561 -0.1345  0.0533 -0.1124
 1124ERGO    C215758   6.263   0.161   8.369 -0.2884  0.1789 -0.1012
 1125ERGO   ROH15759   2.558   1.346   6.321 -0.0786 -0.0647 -0.1374
 1125ERGO    R115760   2.510   1.158   6.527 -0.2204 -0.0905 -0.1911
 1125ERGO    R215761   2.587   1.201   6.789 -0.0090 -0.3038 -0.2075
 1125ERGO    R315762   2.325   1.150   6.840 -0.0579  0.0374 -0.0920
 1125ERGO    R415763   2.463   1.081   7.088 -0.0391 -0.2024 -0.1798
 1125ERGO    R515764   2.327   0.953   6.976 -0.2649  0.0055 -0.1396
 1125ERGO    C115765   2.145   0.964   7.311 -0.1025  0.1769 -0.0554
 1125ERGO    C215766   2.127   1.141   7.662 -0.1284  0.0227  0.4027
 1126ERGO   ROH15767   8.563   4.285   9.801  0.0337 -0.0621 -0.1569
 1126ERGO    R115768   8.650   4.177   9.555  0.1320  0.2062 -0.2432
 1126ERGO    R215769   8.513   3.977   9.423  0.4139  0.0411 -0.2958
 1126ERGO    R315770   8.520   4.152   9.216  0.0541  0.1670 -0.2098
 1126ERGO    R415771   8.459   3.894   9.092  0.2617  0.1702 -0.3056
 1126ERGO    R515772   8.621   4.029   9.037  0.0635  0.3865 -0.3561
 1126ERGO    C115773   8.435   4.011   8.704 -0.1647  0.3635 -0.2307
 1126ERGO    C215774   8.376   4.019   8.412  0.1010  0.1066  0.1185
 1127ERGO   ROH15775   7.418  15.370  10.049 -0.4290  0.0034 -0.2346
 1127ERGO    R115776   7.551  15.228   9.844 -0.1655 -0.0004 -0.0666
 1127ERGO    R215777   7.420  15.058   9.670  0.0783 -0.1298 -0.1375
 1127ERGO    R315778   7.538  15.213   9.480  0.1743 -0.1299 -0.0764
 1127ERGO    R415779   7.451  14.972   9.337  0.0782 -0.0402 -0.1593
 1127ERGO    R515780   7.652  15.056   9.339  0.1153 -0.1381 -0.1102
 1127ERGO    C115781   7.579  15.068   8.964  0.1683  0.0118 -0.1148
 1127ERGO    C215782   7.636  15.102   8.583 -0.2324  0.0917 -0.0365
 1128ERGO   ROH15783   7.356   3.542   9.626  0.2790 -0.2014 -0.1128
 1128ERGO    R115784   7.339   3.531   9.344  0.2808 -0.0912 -0.1187
 1128ERGO    R215785   7.215   3.323   9.211  0.0860  0.0657 -0.1970
 1128ERGO    R315786   7.073   3.524   9.095  0.2824  0.2440 -0.1317
 1128ERGO    R415787   7.102   3.322   8.884 -0.2437  0.1176 -0.0864
 1128ERGO    R515788   7.156   3.533   8.870  0.0733  0.0289 -0.2174
 1128ERGO    C115789   6.903   3.509   8.585 -0.2513  0.3151  0.0392
 1128ERGO    C215790   6.863   3.522   8.276 -0.1111  0.0380  0.0154
 1129ERGO   ROH15791  14.011   9.569   6.773 -0.1662  0.2004 -0.1105
 1129ERGO    R115792  13.821   9.545   6.981 -0.1088  0.1726 -0.0612
 1129ERGO    R215793  13.881   9.430   7.225 -0.0480  0.1199 -0.1024
 1129ERGO    R315794  13.786   9.665   7.323 -0.0043  0.1063 -0.0263
 1129ERGO    R415795  13.731   9.469   7.534 -0.0714  0.0374 -0.1028
 1129ERGO    R515796  13.587   9.604   7.442 -0.0319  0.1057 -0.0699
 1129ERGO    C115797  13.555   9.713   7.806 -0.0441 -0.0233 -0.0316
 1129ERGO    C215798  13.606   9.681   8.132  0.0337  0.0739 -0.4497
 1130ERGO   ROH15799   9.866  16.534  10.439 -0.0913  0.0120  0.0706
 1130ERGO    R115800   9.759  16.561  10.178 -0.0959 -0.0713  0.0627
 1130ERGO    R215801   9.751  16.803  10.044 -0.3600 -0.0524  0.0967
 1130ERGO    R315802   9.881  16.663   9.851 -0.1734  0.1216  0.0935
 1130ERGO    R415803   9.702  16.842   9.704 -0.3318 -0.0462  0.0941
 1130ERGO    R515804   9.716  16.625   9.683 -0.0976 -0.0252  0.0550
 1130ERGO    C115805   9.795  16.732   9.325 -0.1402  0.1208  0.0895
 1130ERGO    C215806   9.824  16.645   9.006 -0.3243 -0.1716 -0.5059
 1131ERGO   ROH15807  11.314   7.012   9.268 -0.2706  0.0368 -0.0625
 1131ERGO    R115808  11.145   6.845   9.113 -0.5023  0.3866 -0.2015
 1131ERGO    R215809  11.032   6.928   8.875  0.2853  0.4796 -0.5880
 1131ERGO    R315810  11.149   6.703   8.778 -0.2136 -0.0660 -0.0132
 1131ERGO    R415811  10.940   6.769   8.582  0.3307  0.2688 -0.4883
 1131ERGO    R515812  10.968   6.578   8.684 -0.4350  0.3300 -0.1170
 1131ERGO    C115813  10.997   6.465   8.321 -0.1110 -0.3661  0.1093
 1131ERGO    C215814  10.894   6.429   8.042 -0.2193 -0.0195  0.1566
 1132ERGO   ROH15815   3.672   0.120   6.420 -0.1471  0.0227  0.0369
 1132ERGO    R115816   3.718   0.032   6.685 -0.0867  0.0138  0.0238
 1132ERGO    R215817   3.885   0.167   6.859 -0.0496  0.0107 -0.0072
 1132ERGO    R315818   3.665   0.164   7.020 -0.0147  0.0012  0.0398
 1132ERGO    R415819   3.893   0.144   7.204  0.0238  0.0096 -0.0091
 1132ERGO    R515820   3.721   0.009   7.194  0.0279  0.0036  0.0271
 1132ERGO    C115821   3.691   0.127   7.556  0.0994 -0.0000  0.0339
 1132ERGO    C215822   3.526   0.080   7.894  0.0160 -0.0473  0.0020
 1133ERGO   ROH15823   6.397  17.420   6.319  0.0969 -0.0515  0.1295
 1133ERGO    R115824   6.525  17.583   6.513  0.2215 -0.1883  0.1646
 1133ERGO    R215825   6.385  17.748   6.683  0.3594  0.1419 -0.0262
 1133ERGO    R315826   6.523  17.613   6.875 -0.0398 -0.0280  0.1504
 1133ERGO    R415827   6.386  17.831   7.019  0.4233  0.4313 -0.0959
 1133ERGO    R515828   6.600  17.786   7.024  0.3170 -0.0818  0.0284
 1133ERGO    C115829   6.516  17.754   7.395  0.0857  0.4405  0.0294
 1133ERGO    C215830   6.321  17.768   7.724  0.1189  0.2163 -0.1001
 1134ERGO   ROH15831   8.996   5.075   9.627  0.0172  0.1871  0.0747
 1134ERGO    R115832   8.882   5.169   9.385  0.0026  0.0704  0.0349
 1134ERGO    R215833   8.931   5.050   9.141  0.0132 -0.0292  0.0842
 1134ERGO    R315834   8.660   5.038   9.129  0.0146 -0.0667  0.0937
 1134ERGO    R415835   8.749   4.979   8.856  0.0082  0.1012  0.0543
 1134ERGO    R515836   8.606   5.132   8.915 -0.0134  0.0448  0.1492
 1134ERGO    C115837   8.389   4.926   8.678  0.0066  0.1419  0.0459
 1134ERGO    C215838   8.261   4.875   8.379  0.0988  0.1167  0.5359
 1135ERGO   ROH15839   0.298   0.264   9.806  0.0926 -0.0595  0.1274
 1135ERGO    R115840   0.286   0.399   9.557  0.0019  0.0585  0.1933
 1135ERGO    R215841   0.485   0.377   9.366 -0.0910  0.1058  0.0861
 1135ERGO    R315842   0.279   0.305   9.206 -0.1824  0.2212  0.1518
 1135ERGO    R415843   0.480   0.415   9.023 -0.0326 -0.1941  0.0503
 1135ERGO    R515844   0.271   0.476   9.038  0.0393  0.0854 -0.0030
 1135ERGO    C115845   0.282   0.369   8.672 -0.0844 -0.2604  0.0912
 1135ERGO    C215846   0.415   0.278   8.435 -0.0652  0.1209 -0.0428
 1136ERGO   ROH15847   6.644   1.619   9.799  0.2748  0.2203 -0.0761
 1136ERGO    R115848   6.768   1.602   9.545  0.1888  0.1108 -0.1106
 1136ERGO    R215849   6.790   1.363   9.406  0.0622  0.0693 -0.0534
 1136ERGO    R315850   6.669   1.505   9.209  0.0517  0.0571 -0.0567
 1136ERGO    R415851   6.824   1.301   9.068  0.1262  0.1004 -0.0534
 1136ERGO    R515852   6.831   1.516   9.034  0.0776  0.1101 -0.0343
 1136ERGO    C115853   6.730   1.398   8.686  0.1535  0.1071 -0.0564
 1136ERGO    C215854   6.523   1.253   8.496  0.1155 -0.0744  0.2139
 1137ERGO   ROH15855   3.848  15.608  10.091  0.2571 -0.3154  0.0436
 1137ERGO    R115856   3.986  15.523   9.860  0.2296 -0.0899 -0.0580
 1137ERGO    R215857   3.861  15.391   9.652  0.2728 -0.2146 -0.0047
 1137ERGO    R315858   3.970  15.591   9.502 -0.0774 -0.0396 -0.0380
 1137ERGO    R415859   3.867  15.398   9.306  0.2812 -0.2770 -0.0061
 1137ERGO    R515860   4.070  15.477   9.316  0.1442  0.0985 -0.0081
 1137ERGO    C115861   3.972  15.589   8.965 -0.0427 -0.1491 -0.0380
 1137ERGO    C215862   3.964  15.477   8.613  0.1263  0.5499  0.1663
 1138ERGO   ROH15863  10.244  14.871   6.320  0.1310 -0.3017 -0.1254
 1138ERGO    R115864  10.117  14.757   6.546  0.0896 -0.2154 -0.1044
 1138ERGO    R215865  10.215  14.532   6.674  0.0455 -0.1893 -0.0230
 1138ERGO    R315866  10.205  14.692   6.894  0.0408 -0.1196 -0.0740
 1138ERGO    R415867  10.227  14.421   7.001 -0.1657 -0.1035  0.0149
 1138ERGO    R515868  10.075  14.568   7.052 -0.1030  0.0009 -0.0954
 1138ERGO    C115869  10.223  14.507   7.398 -0.2930  0.0120 -0.0109
 1138ERGO    C215870  10.206  14.462   7.746  0.0153 -0.3851 -0.0605
 1139ERGO   ROH15871   2.765  11.619   6.418 -0.1133 -0.1584 -0.1224
 1139ERGO    R115872   2.977  11.546   6.590 -0.1127 -0.0520 -0.0778
 1139ERGO    R215873   3.105  11.728   6.753 -0.2042  0.0223 -0.0896
 1139ERGO    R315874   3.039  11.552   6.949 -0.1683  0.0313 -0.0689
 1139ERGO    R415875   3.269  11.699   7.056 -0.2243  0.1215 -0.0684
 1139ERGO    R515876   3.250  11.482   7.040 -0.1544  0.1117 -0.0371
 1139ERGO    C115877   3.302  11.515   7.417 -0.2023  0.1877 -0.0365
 1139ERGO    C215878   3.397  11.487   7.795 -0.4682 -0.4378 -0.0683
 1140ERGO   ROH15879   3.661  12.841   6.309  0.1309 -0.0498 -0.1457
 1140ERGO    R115880   3.545  12.881   6.564  0.1737  0.0161 -0.1369
 1140ERGO    R215881   3.346  12.717   6.664  0.0386  0.1727 -0.1525
 1140ERGO    R315882   3.517  12.693   6.874  0.0237 -0.0004 -0.1588
 1140ERGO    R415883   3.252  12.632   6.986 -0.0565  0.3588 -0.1290
 1140ERGO    R515884   3.394  12.779   7.061  0.1404  0.1986 -0.1690
 1140ERGO    C115885   3.358  12.559   7.370 -0.1259  0.3046 -0.1212
 1140ERGO    C215886   3.395  12.440   7.644  0.1515  0.1344 -0.1801
 1141ERGO   ROH15887  14.129   9.261  10.255  0.2680 -0.3172  0.0919
 1141ERGO    R115888  14.255   9.146  10.029 -0.0023 -0.5053  0.0344
 1141ERGO    R215889  14.116   8.997   9.841 -0.4193  0.1182 -0.1731
 1141ERGO    R315890  14.227   9.175   9.667  0.2362 -0.0465  0.0432
 1141ERGO    R415891  14.219   8.922   9.520 -0.7431  0.1137 -0.2799
 1141ERGO    R515892  14.393   9.048   9.551 -0.2305 -0.5564 -0.1274
 1141ERGO    C115893  14.382   9.044   9.170 -0.3162 -0.0434 -0.1391
 1141ERGO    C215894  14.543   9.144   8.906  0.2207  0.0511  0.3531
 1142ERGO   ROH15895   5.346  17.930   9.653  0.1576  0.0115 -0.1421
 1142ERGO    R115896   5.438  17.784   9.428  0.1614  0.0520 -0.1676
 1142ERGO    R215897   5.270  17.706   9.223  0.1123 -0.1350 -0.0618
 1142ERGO    R315898   5.452  17.835   9.068 -0.0878  0.0028 -0.1854
 1142ERGO    R415899   5.278  17.697   8.878 -0.0538 -0.2035 -0.0642
 1142ERGO    R515900   5.495  17.684   8.888 -0.0367  0.0040 -0.1719
 1142ERGO    C115901   5.453  17.814   8.531 -0.3385 -0.1138 -0.1817
 1142ERGO    C215902   5.480  17.753   8.226 -0.0220 -0.1873 -0.0867
 1143ERGO   ROH15903   0.685  11.723   6.529 -0.1741  0.1424 -0.0672
 1143ERGO    R115904   0.770  11.778   6.793 -0.1220  0.0485 -0.0630
 1143ERGO    R215905   0.730  11.601   7.002 -0.1226 -0.0093 -0.1045
 1143ERGO    R315906   0.999  11.628   7.033 -0.1126 -0.0682 -0.1465
 1143ERGO    R415907   0.901  11.552   7.299 -0.1023  0.1464 -0.0906
 1143ERGO    R515908   1.024  11.725   7.251 -0.0580  0.0721 -0.2194
 1143ERGO    C115909   1.252  11.549   7.501 -0.0812  0.1818 -0.1218
 1143ERGO    C215910   1.502  11.507   7.745 -0.0482  0.1026  0.1861
 1144ERGO   ROH15911   7.245   2.073   6.423 -0.1501 -0.1499 -0.0271
 1144ERGO    R115912   7.348   2.033   6.684  0.0740  0.0620 -0.0790
 1144ERGO    R215913   7.510   2.218   6.810 -0.2848  0.4374 -0.1418
 1144ERGO    R315914   7.324   2.199   7.007 -0.1599 -0.0166 -0.0549
 1144ERGO    R415915   7.519   2.394   7.107 -0.3128  0.0606  0.0882
 1144ERGO    R515916   7.450   2.214   7.210 -0.0658 -0.1495 -0.1040
 1144ERGO    C115917   7.349   2.479   7.465 -0.2119 -0.5850  0.3039
 1144ERGO    C215918   7.186   2.684   7.732 -0.0057 -0.2270  0.3448
 1145ERGO   ROH15919  18.042   6.663   6.247 -0.1089 -0.1705 -0.1943
 1145ERGO    R115920  18.035   6.575   6.516 -0.1390 -0.1071 -0.1739
 1145ERGO    R215921  17.998   6.748   6.728 -0.0158 -0.0362 -0.2070
 1145ERGO    R315922  17.794   6.579   6.789 -0.1144  0.1004 -0.1543
 1145ERGO    R415923  17.909   6.653   7.048  0.1499 -0.1578 -0.1958
 1145ERGO    R515924  17.876   6.451   6.974 -0.0802 -0.0846 -0.2964
 1145ERGO    C115925  17.665   6.440   7.292  0.1538 -0.1004 -0.1398
 1145ERGO    C215926  17.320   6.443   7.423 -0.3827  0.0155 -0.0951
 1146ERGO   ROH15927  12.084   4.820   6.251 -0.1073 -0.1875  0.0933
 1146ERGO    R115928  11.999   4.842   6.521 -0.0779 -0.1513  0.0997
 1146ERGO    R215929  11.855   5.058   6.614  0.0572 -0.0676  0.1206
 1146ERGO    R315930  11.682   4.866   6.697 -0.0539  0.0304  0.1190
 1146ERGO    R415931  11.650   5.084   6.891 -0.0119  0.0877  0.0564
 1146ERGO    R515932  11.693   4.875   6.936 -0.1195  0.0804  0.1191
 1146ERGO    C115933  11.368   4.918   7.130 -0.1565  0.2702  0.0175
 1146ERGO    C215934  11.132   4.679   7.273  0.0244  0.0217 -0.0594
 1147ERGO   ROH15935   3.842   8.013   9.586 -0.0258 -0.2211 -0.0181
 1147ERGO    R115936   3.922   8.002   9.314  0.0686 -0.0837  0.0025
 1147ERGO    R215937   3.740   7.995   9.106  0.1389 -0.0932 -0.0597
 1147ERGO    R315938   3.882   8.209   9.018  0.0671  0.0072  0.0663
 1147ERGO    R415939   3.715   8.133   8.790  0.2309 -0.0319 -0.0404
 1147ERGO    R515940   3.932   8.159   8.790  0.2171  0.0888  0.0800
 1147ERGO    C115941   3.834   8.414   8.524  0.2171  0.0980  0.0892
 1147ERGO    C215942   3.815   8.742   8.285 -0.1801  0.2894  0.0925
 1148ERGO   ROH15943  15.222   6.508   6.201 -0.1010  0.1062 -0.0617
 1148ERGO    R115944  15.147   6.605   6.456 -0.0455  0.0619 -0.0291
 1148ERGO    R215945  14.888   6.674   6.519 -0.0400  0.0030  0.0540
 1148ERGO    R315946  14.924   6.499   6.724  0.0531 -0.0126  0.0251
 1148ERGO    R415947  14.767   6.718   6.840 -0.0296 -0.0943  0.0719
 1148ERGO    R515948  14.955   6.639   6.916  0.0124 -0.0265  0.0430
 1148ERGO    C115949  14.730   6.579   7.219  0.0638 -0.1656  0.0552
 1148ERGO    C215950  14.525   6.310   7.462  0.2033 -0.0779 -0.0136
 1149ERGO   ROH15951   0.229  17.442   6.363 -0.1087  0.0165 -0.0994
 1149ERGO    R115952   0.123  17.352   6.610 -0.1918  0.0861 -0.1087
 1149ERGO    R215953   0.235  17.420   6.853 -0.1196 -0.0516 -0.1010
 1149ERGO    R315954  -0.017  17.504   6.909 -0.0394  0.1862 -0.0875
 1149ERGO    R415955   0.131  17.539   7.160 -0.0624 -0.2266 -0.0124
 1149ERGO    R515956  -0.056  17.430   7.134 -0.1836  0.0125 -0.1686
 1149ERGO    C115957  -0.166  17.688   7.392  0.0460 -0.1054  0.0519
 1149ERGO    C215958  -0.172  17.862   7.701  0.1898 -0.0353  0.3539
 1150ERGO   ROH15959  10.486  14.864   8.609  0.0021 -0.0246  0.1741
 1150ERGO    R115960  10.316  15.026   8.452  0.0015 -0.1083  0.0872
 1150ERGO    R215961  10.352  15.299   8.428 -0.1338 -0.0857  0.1248
 1150ERGO    R315962  10.351  15.243   8.162  0.0490 -0.0718  0.1206
 1150ERGO    R415963  10.263  15.523   8.180 -0.2518 -0.1646  0.0953
 1150ERGO    R515964  10.160  15.360   8.077 -0.0343 -0.2670  0.0371
 1150ERGO    C115965  10.210  15.600   7.786 -0.1489 -0.1974  0.0742
 1150ERGO    C215966  10.102  15.734   7.526  0.0071 -0.1016  0.1134
 1151ERGO   ROH15967  11.753  14.886   6.749  0.0141 -0.0407 -0.0299
 1151ERGO    R115968  11.870  14.913   7.006 -0.0040  0.0311 -0.0299
 1151ERGO    R215969  11.738  15.033   7.217 -0.0816 -0.0569 -0.0306
 1151ERGO    R315970  11.796  14.799   7.344  0.0696 -0.0215 -0.0310
 1151ERGO    R415971  11.668  14.965   7.549  0.0765 -0.0582  0.0043
 1151ERGO    R515972  11.861  14.866   7.564  0.1272  0.0272 -0.0616
 1151ERGO    C115973  11.681  14.706   7.860  0.3105 -0.0256  0.0241
 1151ERGO    C215974  11.685  14.695   8.228 -0.2456  0.2065 -0.0479
 1152ERGO   ROH15975  18.062  14.220   6.963  0.0659  0.0860 -0.0035
 1152ERGO    R115976  18.247  14.052   7.097 -0.0343  0.0609  0.1050
 1152ERGO    R215977  18.520  14.076   7.065 -0.0213 -0.1995 -0.0051
 1152ERGO    R315978  18.518  14.095   7.336  0.0754  0.0713 -0.0199
 1152ERGO    R415979  18.774  13.968   7.273  0.0076 -0.0875  0.0187
 1152ERGO    R515980  18.623  13.893   7.411  0.0246  0.1045  0.1454
 1152ERGO    C115981  18.919  13.922   7.649  0.1151  0.2319  0.0187
 1152ERGO    C215982  19.254  13.855   7.842 -0.0324  0.1486 -0.1929
 1153ERGO   ROH15983   2.527  16.351  10.518  0.3212  0.1140  0.0371
 1153ERGO    R115984   2.363  16.304  10.292  0.2435  0.0347  0.1070
 1153ERGO    R215985   2.285  16.506  10.120  0.0391  0.0091  0.1534
 1153ERGO    R315986   2.392  16.343   9.931  0.0591  0.0875  0.0993
 1153ERGO    R415987   2.208  16.516   9.783 -0.3095 -0.2106  0.2227
 1153ERGO    R515988   2.211  16.298   9.781 -0.0294 -0.2008  0.2945
 1153ERGO    C115989   2.264  16.368   9.410 -0.4937 -0.2648  0.2123
 1153ERGO    C215990   2.185  16.382   9.106 -0.0149  0.1470  0.0135
 1154ERGO   ROH15991   3.036   2.019   9.924  0.1424  0.3794 -0.0452
 1154ERGO    R115992   2.912   1.974   9.673  0.0306  0.4345 -0.0008
 1154ERGO    R215993   2.987   2.108   9.444  0.1817  0.2224 -0.0805
 1154ERGO    R315994   3.015   1.856   9.345 -0.1916  0.1291  0.0353
 1154ERGO    R415995   3.014   2.029   9.108  0.3443  0.0539 -0.0296
 1154ERGO    R515996   2.886   1.857   9.143 -0.0104  0.2993 -0.0821
 1154ERGO    C115997   3.056   1.748   8.820  0.0886 -0.1318  0.1088
 1154ERGO    C215998   3.061   1.652   8.547  0.1816 -0.0889  0.1283
 1155ERGO   ROH15999   9.716   4.398   9.480 -0.1130  0.1733 -0.0136
 1155ERGO    R116000   9.784   4.413   9.205  0.0830  0.0336  0.0248
 1155ERGO    R216001   9.883   4.197   9.064 -0.1392 -0.1353  0.1238
 1155ERGO    R316002   9.675   4.252   8.897  0.0415  0.1403 -0.0171
 1155ERGO    R416003   9.876   4.126   8.726 -0.0134 -0.1532  0.1246
 1155ERGO    R516004   9.780   4.318   8.692  0.2711 -0.0171  0.0440
 1155ERGO    C116005   9.678   4.137   8.372  0.2296  0.0952 -0.0072
 1155ERGO    C216006   9.550   4.107   7.998 -0.0819 -0.1913 -0.0884
 1156ERGO   ROH16007   0.524  16.454   6.645 -0.0697 -0.0337  0.0641
 1156ERGO    R116008   0.577  16.398   6.918  0.1949  0.1801  0.0594
 1156ERGO    R216009   0.660  16.592   7.096 -0.1394  0.4326 -0.0628
 1156ERGO    R316010   0.446  16.506   7.240  0.1187  0.0107  0.0891
 1156ERGO    R416011   0.600  16.672   7.427 -0.2778  0.7215 -0.1532
 1156ERGO    R516012   0.534  16.467   7.459  0.3014  0.5501  0.1354
 1156ERGO    C116013   0.364  16.638   7.755 -0.1160  0.4940 -0.0633
 1156ERGO    C216014   0.169  16.565   8.138  0.2050  0.0352  0.2455
 1157ERGO   ROH16015   6.043   8.804   9.859  0.4615 -0.2869  0.0335
 1157ERGO    R116016   6.082   8.666   9.615  0.1529 -0.1793 -0.0810
 1157ERGO    R216017   5.920   8.706   9.394  0.0518  0.1390  0.0443
 1157ERGO    R316018   6.157   8.755   9.270  0.0303 -0.0452 -0.0739
 1157ERGO    R416019   5.966   8.713   9.052 -0.0865 -0.0107  0.0213
 1157ERGO    R516020   6.156   8.610   9.080 -0.1355 -0.1131 -0.0227
 1157ERGO    C116021   6.215   8.764   8.736 -0.1872 -0.2709 -0.1031
 1157ERGO    C216022   6.460   8.750   8.411  0.4753  0.0216  0.1456
 1158ERGO   ROH16023  12.181  10.768   9.972  0.0763  0.1611  0.1621
 1158ERGO    R116024  12.339  10.630   9.782 -0.0658  0.0880  0.0953
 1158ERGO    R216025  12.229  10.483   9.575 -0.2195  0.1729  0.1148
 1158ERGO    R316026  12.389  10.640   9.422 -0.1779  0.0961  0.0797
 1158ERGO    R416027  12.269  10.450   9.234 -0.0098 -0.0976  0.1630
 1158ERGO    R516028  12.482  10.490   9.260 -0.0363 -0.0112  0.2561
 1158ERGO    C116029  12.444  10.578   8.891  0.1514 -0.3273  0.1581
 1158ERGO    C216030  12.452  10.567   8.521  0.3146  0.1584  0.1640
 1159ERGO   ROH16031  17.599  12.778   6.983  0.1251 -0.1464 -0.1340
 1159ERGO    R116032  17.701  12.740   7.244 -0.0485 -0.0025 -0.0426
 1159ERGO    R216033  17.949  12.626   7.291 -0.1227 -0.0694  0.1879
 1159ERGO    R316034  17.990  12.854   7.434 -0.1175  0.0160  0.0523
 1159ERGO    R416035  18.212  12.678   7.509 -0.1823  0.0070  0.2425
 1159ERGO    R516036  18.074  12.777   7.645 -0.2064  0.1313  0.1325
 1159ERGO    C116037  18.404  12.922   7.770 -0.2120  0.1316  0.1470
 1159ERGO    C216038  18.540  12.704   7.970 -0.0309  0.0229  0.2798
 1160ERGO   ROH16039   4.430   3.855   6.258  0.1794 -0.0869  0.1421
 1160ERGO    R116040   4.478   3.843   6.537  0.0884 -0.1390  0.1557
 1160ERGO    R216041   4.433   4.057   6.705  0.1720 -0.1235  0.1580
 1160ERGO    R316042   4.281   3.876   6.841  0.0178 -0.0395  0.1000
 1160ERGO    R416043   4.483   3.964   7.034  0.0337 -0.1969  0.1591
 1160ERGO    R516044   4.438   3.758   6.978 -0.0916 -0.1616  0.1231
 1160ERGO    C116045   4.370   3.740   7.353 -0.1917 -0.1607  0.1053
 1160ERGO    C216046   4.499   3.659   7.721  0.2597  0.3949  0.2814
 1161ERGO   ROH16047   8.590  17.655   6.292 -0.1364 -0.0108  0.0516
 1161ERGO    R116048   8.748  17.626   6.525 -0.0598 -0.0060  0.0017
 1161ERGO    R216049   8.640  17.624   6.779  0.0191 -0.0226  0.0409
 1161ERGO    R316050   8.774  17.388   6.799  0.0419 -0.0135 -0.0158
 1161ERGO    R416051   8.788  17.505   7.068  0.3076  0.0625 -0.0693
 1161ERGO    R516052   8.956  17.435   6.947  0.1872  0.0290 -0.2106
 1161ERGO    C116053   9.000  17.213   7.254  0.4971  0.1204 -0.1866
 1161ERGO    C216054   8.869  17.135   7.632  0.3405  0.2327 -0.1956
 1162ERGO   ROH16055   1.066  14.849   6.814  0.1403 -0.1365  0.0667
 1162ERGO    R116056   1.221  14.744   7.026  0.1710 -0.0748  0.0752
 1162ERGO    R216057   1.381  14.903   7.187  0.0849 -0.0077  0.0969
 1162ERGO    R316058   1.239  14.787   7.387  0.1199 -0.0827  0.0784
 1162ERGO    R416059   1.497  14.856   7.509  0.0034  0.2153  0.1603
 1162ERGO    R516060   1.401  14.660   7.510  0.1986  0.1193  0.1867
 1162ERGO    C116061   1.430  14.719   7.885 -0.0112  0.2748  0.1799
 1162ERGO    C216062   1.416  14.655   8.261  0.2501 -0.0350 -0.1747
 1163ERGO   ROH16063  12.642   9.878   6.516 -0.2151 -0.0418 -0.0802
 1163ERGO    R116064  12.631   9.889   6.798 -0.3237 -0.1452 -0.0791
 1163ERGO    R216065  12.615  10.128   6.937 -0.0595 -0.1755  0.0119
 1163ERGO    R316066  12.397  10.011   7.049 -0.2737  0.0711 -0.1360
 1163ERGO    R416067  12.491  10.201   7.251  0.0790 -0.3528  0.1100
 1163ERGO    R516068  12.454   9.988   7.281 -0.3056 -0.3305 -0.1620
 1163ERGO    C116069  12.214  10.134   7.539 -0.0415 -0.2248  0.0283
 1163ERGO    C216070  12.139  10.356   7.885 -0.1350  0.0184 -0.0259
 1164ERGO   ROH16071  15.111  11.542   7.168 -0.0262  0.1729  0.0109
 1164ERGO    R116072  15.014  11.781   7.284 -0.1737  0.0877  0.0661
 1164ERGO    R216073  14.886  11.787   7.529  0.0627 -0.0138  0.1937
 1164ERGO    R316074  15.077  11.972   7.588 -0.0778  0.2067 -0.0271
 1164ERGO    R416075  14.856  12.031   7.772  0.0792 -0.0845  0.2674
 1164ERGO    R516076  14.952  12.171   7.636 -0.2599  0.0541  0.1575
 1164ERGO    C116077  15.016  12.347   7.968 -0.0432  0.0812  0.1030
 1164ERGO    C216078  15.047  12.409   8.344  0.2004 -0.0021  0.0092
 1165ERGO   ROH16079   5.593   2.014   9.843 -0.1960 -0.0254 -0.0829
 1165ERGO    R116080   5.789   2.034   9.640 -0.0692  0.0060  0.0409
 1165ERGO    R216081   5.836   1.831   9.458  0.0299  0.0417  0.0255
 1165ERGO    R316082   5.795   2.029   9.276  0.1541  0.0831  0.0416
 1165ERGO    R416083   5.975   1.840   9.142 -0.0799 -0.0956 -0.0277
 1165ERGO    R516084   6.007   2.054   9.168  0.1401 -0.1248 -0.0390
 1165ERGO    C116085   6.018   2.030   8.787 -0.0273 -0.1367 -0.0436
 1165ERGO    C216086   6.068   2.139   8.489  0.0589 -0.0141 -0.1295
 1166ERGO   ROH16087   9.462   2.299  10.012 -0.1690  0.0916 -0.0687
 1166ERGO    R116088   9.458   2.378   9.740 -0.0640  0.0683 -0.0786
 1166ERGO    R216089   9.681   2.478   9.611  0.0090 -0.0081 -0.0247
 1166ERGO    R316090   9.628   2.279   9.434  0.0006 -0.0124 -0.0155
 1166ERGO    R416091   9.780   2.477   9.280 -0.2854  0.1228 -0.1161
 1166ERGO    R516092   9.586   2.393   9.227 -0.2670 -0.0092  0.0414
 1166ERGO    C116093   9.788   2.289   8.921 -0.4648  0.1950 -0.1607
 1166ERGO    C216094   9.856   2.232   8.560 -0.0388  0.2660  0.1120
 1167ERGO   ROH16095  12.241   8.514   9.082 -0.0644 -0.1052  0.1024
 1167ERGO    R116096  12.319   8.552   8.813  0.0140 -0.0521  0.1318
 1167ERGO    R216097  12.240   8.383   8.609  0.1746 -0.0854  0.0929
 1167ERGO    R316098  12.153   8.614   8.495  0.0956 -0.1243  0.0749
 1167ERGO    R416099  12.257   8.454   8.272  0.1210 -0.1161  0.0839
 1167ERGO    R516100  12.313   8.659   8.323  0.0646 -0.0948  0.0551
 1167ERGO    C116101  12.186   8.713   7.968  0.0155 -0.1704  0.0617
 1167ERGO    C216102  12.045   8.705   7.661  0.1446  0.2950 -0.1220
 1168ERGO   ROH16103   9.073  14.989  10.185 -0.0094 -0.0496  0.0167
 1168ERGO    R116104   9.001  14.921   9.920  0.0359 -0.0503  0.0044
 1168ERGO    R216105   8.875  15.099   9.749 -0.0603 -0.0951  0.0286
 1168ERGO    R316106   9.083  15.038   9.585 -0.0212  0.0473  0.0238
 1168ERGO    R416107   8.861  15.101   9.404 -0.0018  0.1319  0.0267
 1168ERGO    R516108   8.982  14.920   9.403  0.0283  0.1509 -0.0726
 1168ERGO    C116109   9.048  15.046   9.049  0.0688  0.3976  0.0209
 1168ERGO    C216110   8.981  15.057   8.638  0.0326 -0.2386  0.2229
 1169ERGO   ROH16111  15.981   6.689  10.204  0.0837  0.0110  0.0827
 1169ERGO    R116112  16.088   6.773   9.956 -0.1336  0.1052  0.0202
 1169ERGO    R216113  16.215   6.599   9.782  0.0032  0.2370 -0.0046
 1169ERGO    R316114  16.032   6.695   9.605 -0.1954 -0.0189  0.0553
 1169ERGO    R416115  16.270   6.641   9.443 -0.1269  0.3917 -0.0083
 1169ERGO    R516116  16.160   6.828   9.453 -0.4325  0.2224  0.0541
 1169ERGO    C116117  16.130   6.755   9.080 -0.3888  0.2417  0.0457
 1169ERGO    C216118  16.236   6.721   8.865 -0.0830 -0.1318  0.2429
 1170ERGO   ROH16119   2.087   6.911   6.635  0.1259  0.0982 -0.0372
 1170ERGO    R116120   1.923   6.914   6.866  0.1107 -0.0167 -0.0452
 1170ERGO    R216121   1.900   6.695   7.034  0.1165 -0.0967 -0.1393
 1170ERGO    R316122   1.972   6.876   7.224  0.0944 -0.1719 -0.0604
 1170ERGO    R416123   1.815   6.675   7.369  0.0177 -0.1779 -0.1693
 1170ERGO    R516124   1.781   6.890   7.369  0.0607 -0.1769 -0.1112
 1170ERGO    C116125   1.834   6.832   7.742 -0.0606 -0.2957 -0.1128
 1170ERGO    C216126   1.855   6.799   8.047 -0.0010  0.0507  0.0069
 1171ERGO   ROH16127   7.229  10.609   6.181 -0.0007 -0.0843 -0.1347
 1171ERGO    R116128   7.345  10.523   6.424  0.0485 -0.2533 -0.2177
 1171ERGO    R216129   7.243  10.591   6.672  0.3485 -0.0585 -0.1439
 1171ERGO    R316130   7.243  10.322   6.710 -0.0620 -0.0628 -0.1215
 1171ERGO    R416131   7.191  10.436   6.976  0.1117  0.0406 -0.1304
 1171ERGO    R516132   7.347  10.293   6.924 -0.1022 -0.2063 -0.1198
 1171ERGO    C116133   7.161  10.093   7.189 -0.4116  0.0941 -0.1015
 1171ERGO    C216134   7.298  10.058   7.497 -0.0206 -0.0756  0.0643
 1172ERGO   ROH16135   5.845  10.881  10.118  0.0124 -0.0541 -0.0605
 1172ERGO    R116136   5.738  11.022   9.897 -0.0071 -0.1338 -0.1021
 1172ERGO    R216137   5.893  11.180   9.731 -0.0671  0.0213 -0.0098
 1172ERGO    R316138   5.785  11.025   9.536  0.1712 -0.0616 -0.0797
 1172ERGO    R416139   5.877  11.265   9.397  0.0995  0.0015 -0.0238
 1172ERGO    R516140   5.677  11.180   9.389  0.1607 -0.1392 -0.1563
 1172ERGO    C116141   5.767  11.168   9.019  0.4202 -0.0879 -0.0976
 1172ERGO    C216142   5.877  11.277   8.818 -0.0203 -0.3656  0.0422
 1173ERGO   ROH16143  15.228  15.466   6.293 -0.0981  0.1637 -0.1036
 1173ERGO    R116144  15.124  15.404   6.548 -0.0599  0.0454 -0.1166
 1173ERGO    R216145  15.268  15.266   6.739  0.0133  0.0683 -0.1580
 1173ERGO    R316146  15.207  15.481   6.894 -0.0891 -0.0032 -0.0980
 1173ERGO    R416147  15.329  15.288   7.078  0.1181  0.0468 -0.1748
 1173ERGO    R516148  15.135  15.385   7.102  0.0524 -0.0968 -0.0890
 1173ERGO    C116149  15.306  15.502   7.422  0.0830 -0.0329 -0.1282
 1173ERGO    C216150  15.381  15.614   7.776 -0.0455 -0.0832  0.0281
 1174ERGO   ROH16151   8.469   2.635   6.960  0.0610 -0.0726  0.2098
 1174ERGO    R116152   8.444   2.529   7.221 -0.0928 -0.0984  0.1851
 1174ERGO    R216153   8.539   2.660   7.445 -0.0911 -0.1901  0.2364
 1174ERGO    R316154   8.284   2.628   7.532 -0.1416 -0.0512  0.1457
 1174ERGO    R416155   8.420   2.769   7.750 -0.2053  0.0958  0.0942
 1174ERGO    R516156   8.307   2.583   7.767 -0.2610  0.1362  0.1960
 1174ERGO    C116157   8.111   2.802   8.010 -0.3192  0.3926 -0.0737
 1174ERGO    C216158   7.954   2.684   8.324  0.1408  0.1906  0.1194
 1175ERGO   ROH16159   8.763   6.237   6.462  0.2939 -0.0208 -0.1257
 1175ERGO    R116160   8.948   6.187   6.671  0.0443  0.0190  0.1093
 1175ERGO    R216161   8.886   6.227   6.937 -0.3321 -0.0849  0.0378
 1175ERGO    R316162   8.967   5.969   6.961 -0.2268 -0.0499  0.0792
 1175ERGO    R416163   9.046   6.094   7.214 -0.0103  0.1029 -0.0516
 1175ERGO    R516164   9.175   5.981   7.079 -0.1062  0.0782 -0.1327
 1175ERGO    C116165   9.214   5.774   7.397  0.2762  0.2452 -0.0647
 1175ERGO    C216166   9.160   5.622   7.661 -0.1438 -0.0365  0.2233
 1176ERGO   ROH16167   4.761  14.190  10.187 -0.1339  0.3736  0.0152
 1176ERGO    R116168   4.608  14.191   9.949 -0.0450  0.4169 -0.0443
 1176ERGO    R216169   4.628  14.392   9.760  0.3004  0.2681 -0.1861
 1176ERGO    R316170   4.675  14.184   9.591  0.0892  0.0774 -0.0141
 1176ERGO    R416171   4.592  14.404   9.416  0.1340 -0.0521 -0.1827
 1176ERGO    R516172   4.506  14.204   9.423  0.0207  0.0091  0.0537
 1176ERGO    C116173   4.616  14.216   9.058 -0.1613 -0.4177 -0.0193
 1176ERGO    C216174   4.509  14.264   8.670  0.0748  0.0328  0.0657
 1177ERGO   ROH16175  14.678  13.055  10.494  0.0875  0.1231 -0.0377
 1177ERGO    R116176  14.642  12.906  10.257  0.0644  0.0374  0.0190
 1177ERGO    R216177  14.516  13.009  10.033  0.0085 -0.0541  0.0039
 1177ERGO    R316178  14.745  12.934   9.909 -0.0015 -0.0640 -0.0074
 1177ERGO    R416179  14.547  12.952   9.694  0.0248  0.0220 -0.0079
 1177ERGO    R516180  14.673  12.781   9.739 -0.0123 -0.0064 -0.0479
 1177ERGO    C116181  14.780  12.848   9.379  0.0248  0.0570 -0.0254
 1177ERGO    C216182  14.828  12.962   8.992 -0.0102  0.1468  0.0306
 1178ERGO   ROH16183  14.268  18.028   9.941 -0.0778 -0.0505 -0.1200
 1178ERGO    R116184  14.264  18.178   9.701  0.0507  0.0278 -0.0754
 1178ERGO    R216185  14.454  18.148   9.503  0.0439 -0.0569 -0.0790
 1178ERGO    R316186  14.236  18.108   9.345  0.0179  0.1533 -0.0959
 1178ERGO    R416187  14.464  18.093   9.162  0.0137 -0.1732 -0.0604
 1178ERGO    R516188  14.289  18.221   9.141  0.1722  0.0248 -0.1221
 1178ERGO    C116189  14.265  18.024   8.816 -0.0284 -0.0436 -0.0655
 1178ERGO    C216190  14.121  18.064   8.521  0.0226 -0.2725  0.1147
 1179ERGO   ROH16191   8.009   1.664   9.818 -0.2500  0.0473 -0.0133
 1179ERGO    R116192   7.953   1.753   9.556 -0.3246 -0.0307 -0.0244
 1179ERGO    R216193   8.151   1.822   9.376 -0.3798  0.4148  0.0727
 1179ERGO    R316194   8.024   1.641   9.217  0.0645  0.1627 -0.0114
 1179ERGO    R416195   8.157   1.824   9.030 -0.1373  0.4030  0.0752
 1179ERGO    R516196   7.946   1.770   9.031 -0.0457  0.0088 -0.0738
 1179ERGO    C116197   8.042   1.656   8.680  0.4208  0.1594 -0.0023
 1179ERGO    C216198   8.032   1.720   8.317 -0.2382  0.1616  0.0023
 1180ERGO   ROH16199  10.951  11.641   9.922 -0.0643  0.0419 -0.0815
 1180ERGO    R116200  11.133  11.683   9.709 -0.0659 -0.0535 -0.1036
 1180ERGO    R216201  11.106  11.559   9.464 -0.2023  0.0171 -0.1294
 1180ERGO    R316202  11.118  11.814   9.370 -0.0241  0.0296 -0.0730
 1180ERGO    R416203  11.139  11.646   9.131 -0.0118  0.0686 -0.0968
 1180ERGO    R516204  11.276  11.804   9.191  0.0471 -0.0183 -0.0057
 1180ERGO    C116205  11.170  11.935   8.849  0.2665  0.1104 -0.0249
 1180ERGO    C216206  11.033  12.113   8.502 -0.0581 -0.0215  0.1287
 1181ERGO   ROH16207   4.956  11.306  10.236 -0.0491  0.1725  0.0059
 1181ERGO    R116208   5.054  11.273   9.972  0.0160  0.1618  0.0312
 1181ERGO    R216209   4.908  11.145   9.774  0.1240  0.0251  0.0416
 1181ERGO    R316210   4.952  11.376   9.638  0.0118  0.0174 -0.0149
 1181ERGO    R416211   4.902  11.175   9.430  0.1101 -0.0715  0.0330
 1181ERGO    R516212   5.075  11.308   9.444  0.0508  0.0222  0.0025
 1181ERGO    C116213   4.940  11.410   9.101 -0.0034 -0.1351 -0.0252
 1181ERGO    C216214   4.930  11.421   8.778 -0.2654  0.0877  0.1105
 1182ERGO   ROH16215   0.963   0.953  10.121  0.0506  0.0118 -0.0191
 1182ERGO    R116216   0.856   1.053   9.878  0.0646  0.1238  0.0203
 1182ERGO    R216217   1.009   1.187   9.691  0.1379 -0.0398 -0.0363
 1182ERGO    R316218   0.910   0.998   9.523 -0.1259  0.0623 -0.0013
 1182ERGO    R416219   0.984   1.222   9.349  0.1193 -0.0336 -0.0343
 1182ERGO    R516220   0.790   1.123   9.358 -0.0061  0.2010  0.0110
 1182ERGO    C116221   0.877   1.065   8.991 -0.1392  0.0658 -0.0003
 1182ERGO    C216222   0.930   1.189   8.671  0.0710  0.1562 -0.3285
 1183ERGO   ROH16223  16.954   7.117  10.380 -0.0273  0.0506  0.0564
 1183ERGO    R116224  17.110   7.076  10.147 -0.0322 -0.1029  0.0788
 1183ERGO    R216225  17.048   6.883   9.959 -0.1801 -0.0634  0.0825
 1183ERGO    R316226  17.057   7.094   9.788  0.0277 -0.0792  0.0716
 1183ERGO    R416227  17.141   6.863   9.627 -0.1758 -0.1639  0.0897
 1183ERGO    R516228  17.249   7.051   9.651 -0.0026 -0.2633  0.0865
 1183ERGO    C116229  17.204   7.049   9.272  0.0219 -0.2373  0.0836
 1183ERGO    C216230  17.238   7.191   8.871 -0.0258  0.0502 -0.0489
 1184ERGO   ROH16231  11.008   2.823   6.397 -0.1808 -0.1993 -0.1398
 1184ERGO    R116232  11.009   2.928   6.660 -0.1967 -0.1058 -0.1779
 1184ERGO    R216233  10.932   2.779   6.880  0.0271 -0.1056 -0.1015
 1184ERGO    R316234  11.176   2.854   6.974 -0.0132  0.1738 -0.2053
 1184ERGO    R416235  11.033   2.752   7.209  0.2679 -0.1875 -0.1785
 1184ERGO    R516236  11.130   2.946   7.191 -0.0140 -0.0325 -0.1132
 1184ERGO    C116237  11.320   2.806   7.490  0.3703  0.0271 -0.3208
 1184ERGO    C216238  11.599   2.727   7.681  0.1905  0.0235  0.1847
 1185ERGO   ROH16239   7.341   0.315   9.651  0.1534 -0.0482  0.0530
 1185ERGO    R116240   7.439   0.323   9.386  0.0873 -0.1193  0.0263
 1185ERGO    R216241   7.465   0.095   9.231 -0.0648 -0.1456  0.0390
 1185ERGO    R316242   7.313   0.237   9.055 -0.0416 -0.0869  0.0657
 1185ERGO    R416243   7.463   0.049   8.888 -0.2142 -0.2153  0.0486
 1185ERGO    R516244   7.454   0.265   8.864 -0.0904 -0.2122  0.0094
 1185ERGO    C116245   7.319   0.154   8.524 -0.2795 -0.2007  0.0795
 1185ERGO    C216246   7.224   0.322   8.235  0.2910 -0.5050 -0.0793
 1186ERGO   ROH16247   4.907   7.159   9.667 -0.1575 -0.2167  0.0239
 1186ERGO    R116248   4.711   7.153   9.462 -0.0726 -0.3367 -0.0600
 1186ERGO    R216249   4.668   7.365   9.290 -0.3005 -0.2506  0.0706
 1186ERGO    R316250   4.707   7.176   9.099  0.0556 -0.0690 -0.0415
 1186ERGO    R416251   4.518   7.364   8.979 -0.3872 -0.4400  0.1146
 1186ERGO    R516252   4.492   7.149   8.997  0.0928 -0.4985  0.0080
 1186ERGO    C116253   4.467   7.186   8.619 -0.1036 -0.3797  0.0349
 1186ERGO    C216254   4.461   7.381   8.308 -0.1269  0.2392 -0.1936
 1187ERGO   ROH16255  10.185  11.236   9.703  0.0141 -0.0743 -0.0577
 1187ERGO    R116256  10.114  11.410   9.491  0.2079 -0.1115 -0.1558
 1187ERGO    R216257  10.264  11.431   9.259  0.1892 -0.4715 -0.2100
 1187ERGO    R316258  10.026  11.377   9.140  0.0812 -0.2233 -0.1128
 1187ERGO    R416259  10.219  11.381   8.920 -0.0442 -0.2450 -0.2148
 1187ERGO    R516260  10.034  11.495   8.932  0.0509 -0.1138 -0.0482
 1187ERGO    C116261   9.969  11.301   8.611 -0.2814  0.1197 -0.1263
 1187ERGO    C216262   9.993  11.148   8.284 -0.1114  0.1557  0.1013
 1188ERGO   ROH16263  15.588  14.513  10.307  0.1729  0.1312  0.1446
 1188ERGO    R116264  15.444  14.521  10.063  0.1032 -0.0130  0.1784
 1188ERGO    R216265  15.438  14.746   9.902 -0.1215 -0.0299  0.1516
 1188ERGO    R316266  15.523  14.572   9.711 -0.0218  0.0146  0.1558
 1188ERGO    R416267  15.390  14.786   9.562  0.0569  0.0335  0.1337
 1188ERGO    R516268  15.348  14.573   9.547  0.0691  0.0423  0.0654
 1188ERGO    C116269  15.443  14.645   9.185  0.2544  0.1122  0.1272
 1188ERGO    C216270  15.607  14.555   8.858  0.0741  0.1555  0.0097
 1189ERGO   ROH16271  15.240  17.244   6.641 -0.2141  0.1485  0.1113
 1189ERGO    R116272  15.129  17.167   6.889 -0.1873 -0.0544  0.0615
 1189ERGO    R216273  15.257  16.995   7.062  0.0114  0.1090  0.0765
 1189ERGO    R316274  15.219  17.197   7.240 -0.3513  0.0304  0.0986
 1189ERGO    R416275  15.285  16.963   7.405  0.2883  0.1595  0.0615
 1189ERGO    R516276  15.110  17.093   7.426 -0.0093 -0.2338  0.1636
 1189ERGO    C116277  15.266  17.134   7.772  0.1090  0.1151  0.0734
 1189ERGO    C216278  15.094  17.136   8.059  0.0498  0.1667  0.1563
 1190ERGO   ROH16279   5.209   4.783   9.359  0.1841  0.1783  0.1744
 1190ERGO    R116280   5.090   4.787   9.102  0.0927  0.1373  0.2153
 1190ERGO    R216281   5.081   5.015   8.947  0.0412  0.1122  0.1801
 1190ERGO    R316282   5.199   4.855   8.762 -0.0266  0.0790  0.1652
 1190ERGO    R416283   5.069   5.066   8.605  0.0428  0.1334  0.1834
 1190ERGO    R516284   5.045   4.851   8.578 -0.0366  0.1444  0.1729
 1190ERGO    C116285   5.174   4.946   8.232 -0.0198  0.1145  0.1713
 1190ERGO    C216286   5.258   5.191   7.939  0.0325  0.0509  0.2127
 1191ERGO   ROH16287  10.455  14.647  10.426 -0.3069 -0.0614  0.1186
 1191ERGO    R116288  10.339  14.706  10.175 -0.1266  0.1569  0.0829
 1191ERGO    R216289  10.379  14.946  10.045  0.3732  0.0853  0.0843
 1191ERGO    R316290  10.458  14.786   9.840  0.1267 -0.0783  0.1136
 1191ERGO    R416291  10.355  15.027   9.710  0.1037 -0.1229  0.0499
 1191ERGO    R516292  10.294  14.822   9.670 -0.0137 -0.1264  0.2365
 1191ERGO    C116293  10.416  14.924   9.323 -0.2848 -0.3977  0.0573
 1191ERGO    C216294  10.387  15.127   9.007 -0.3653  0.2067  0.2048
 1192ERGO   ROH16295  11.058  14.090   6.701  0.0822  0.0527  0.1377
 1192ERGO    R116296  11.135  13.907   6.902 -0.1731 -0.1059  0.0970
 1192ERGO    R216297  11.315  13.972   7.101  0.1755 -0.4977 -0.0708
 1192ERGO    R316298  11.114  13.889   7.265  0.1076  0.0126  0.1210
 1192ERGO    R416299  11.360  13.825   7.411  0.1132 -0.7436 -0.1774
 1192ERGO    R516300  11.198  13.688   7.364 -0.3450 -0.2743 -0.0516
 1192ERGO    C116301  11.199  13.661   7.745  0.0130 -0.4078 -0.0593
 1192ERGO    C216302  10.998  13.657   7.960  0.2053 -0.3017  0.0719
 1193ERGO   ROH16303  16.718  16.334  10.222  0.3383 -0.1527  0.0144
 1193ERGO    R116304  16.673  16.464   9.974  0.1379 -0.1119  0.0692
 1193ERGO    R216305  16.878  16.527   9.800  0.0339  0.1685  0.0327
 1193ERGO    R316306  16.727  16.387   9.623  0.1334  0.0624  0.0318
 1193ERGO    R416307  16.881  16.572   9.457  0.1349  0.0237  0.0140
 1193ERGO    R516308  16.665  16.548   9.457  0.1495 -0.0292 -0.0550
 1193ERGO    C116309  16.740  16.468   9.092  0.2872 -0.1600  0.0022
 1193ERGO    C216310  16.763  16.476   8.775 -0.0140  0.0059 -0.1273
 1194ERGO   ROH16311   7.090   4.398   9.795 -0.1288  0.2402  0.2133
 1194ERGO    R116312   7.002   4.557   9.578 -0.0778  0.1580  0.1317
 1194ERGO    R216313   7.152   4.592   9.349 -0.0485  0.0268  0.1314
 1194ERGO    R316314   6.925   4.505   9.226 -0.0513  0.0129  0.1463
 1194ERGO    R416315   7.108   4.572   9.007 -0.0595  0.0087  0.1339
 1194ERGO    R516316   6.904   4.646   9.034 -0.0625  0.0041  0.1394
 1194ERGO    C116317   6.870   4.479   8.692 -0.0685 -0.0149  0.1494
 1194ERGO    C216318   6.661   4.479   8.357  0.3521 -0.2336 -0.1626
 1195ERGO   ROH16319   6.695   8.654   6.573 -0.0461 -0.1205 -0.0221
 1195ERGO    R116320   6.755   8.555   6.831 -0.0650 -0.0983 -0.0099
 1195ERGO    R216321   6.565   8.441   6.995 -0.0484 -0.2007 -0.0676
 1195ERGO    R316322   6.741   8.234   7.002  0.0557 -0.1118 -0.0225
 1195ERGO    R416323   6.641   8.255   7.276 -0.0211 -0.1490 -0.0402
 1195ERGO    R516324   6.850   8.256   7.214 -0.0028 -0.0452  0.0046
 1195ERGO    C116325   6.851   7.953   7.447  0.0926 -0.0355  0.0181
 1195ERGO    C216326   6.797   7.588   7.587 -0.1400  0.1816  0.0283
 1196ERGO   ROH16327   6.275  12.745  10.106 -0.1126  0.2270  0.1315
 1196ERGO    R116328   6.261  12.655   9.838  0.1423  0.1143  0.1549
 1196ERGO    R216329   6.048  12.715   9.672  0.1360 -0.2461  0.0377
 1196ERGO    R316330   6.245  12.808   9.508  0.0791 -0.0227  0.0911
 1196ERGO    R416331   6.017  12.760   9.331  0.0824 -0.0324  0.0685
 1196ERGO    R516332   6.219  12.682   9.306  0.1330  0.0933  0.0037
 1196ERGO    C116333   6.182  12.874   8.979 -0.0023  0.3019  0.1365
 1196ERGO    C216334   6.197  12.878   8.614 -0.1322 -0.0547  0.0141
 1197ERGO   ROH16335   2.373  14.017   6.700  0.2128  0.0907 -0.2124
 1197ERGO    R116336   2.528  14.009   6.937  0.2598  0.0367 -0.2458
 1197ERGO    R216337   2.690  14.218   7.016  0.0547  0.1320 -0.0877
 1197ERGO    R316338   2.548  14.198   7.247  0.1158 -0.2210 -0.0732
 1197ERGO    R416339   2.819  14.271   7.332 -0.0281  0.4586 -0.1046
 1197ERGO    R516340   2.702  14.102   7.403  0.3885  0.1522 -0.0899
 1197ERGO    C116341   2.761  14.284   7.733 -0.0190  0.3173 -0.1009
 1197ERGO    C216342   2.861  14.409   8.147 -0.0687 -0.0575  0.2488
 1198ERGO   ROH16343   9.519   9.022   9.663 -0.0904 -0.1655  0.1032
 1198ERGO    R116344   9.455   9.054   9.389 -0.0615 -0.2150  0.0913
 1198ERGO    R216345   9.560   9.258   9.235 -0.1371 -0.1761  0.0976
 1198ERGO    R316346   9.637   9.053   9.074 -0.0110 -0.1474  0.1187
 1198ERGO    R416347   9.586   9.275   8.891 -0.0675 -0.1645  0.1028
 1198ERGO    R516348   9.501   9.076   8.879  0.0195 -0.2061  0.0865
 1198ERGO    C116349   9.674   9.093   8.540  0.0914 -0.1307  0.1256
 1198ERGO    C216350   9.504   9.158   8.247  0.0317  0.4078 -0.4103
 1199ERGO   ROH16351   1.772   3.349   6.445 -0.0426  0.0531  0.1028
 1199ERGO    R116352   2.000   3.335   6.612 -0.0207  0.0573  0.0729
 1199ERGO    R216353   2.095   3.552   6.754  0.0365  0.0767  0.0026
 1199ERGO    R316354   2.073   3.383   6.965  0.0407  0.1353  0.0506
 1199ERGO    R416355   2.249   3.598   7.059  0.0008  0.1937  0.0038
 1199ERGO    R516356   2.292   3.384   7.064  0.0330  0.1990  0.0710
 1199ERGO    C116357   2.319   3.465   7.436 -0.0160  0.3169  0.0494
 1199ERGO    C216358   2.584   3.634   7.633 -0.2061 -0.4230 -0.0778
 1200ERGO   ROH16359   6.257  12.225  10.177 -0.0956 -0.1193 -0.0417
 1200ERGO    R116360   6.123  12.133   9.945  0.0923 -0.2355 -0.1055
 1200ERGO    R216361   5.956  12.296   9.795 -0.1764 -0.4480 -0.0317
 1200ERGO    R316362   6.118  12.218   9.591 -0.0163 -0.0551 -0.0644
 1200ERGO    R416363   5.892  12.350   9.460 -0.3488 -0.5195 -0.0123
 1200ERGO    R516364   5.968  12.150   9.418  0.0975 -0.3614 -0.0578
 1200ERGO    C116365   6.007  12.309   9.073 -0.2989 -0.1922 -0.0315
 1200ERGO    C216366   6.079  12.338   8.787  0.4606  0.0926 -0.2995
 1201ERGO   ROH16367  12.799   7.768   9.795 -0.0076 -0.3097 -0.1709
 1201ERGO    R116368  12.968   7.839   9.579  0.0812 -0.3482 -0.1144
 1201ERGO    R216369  13.046   7.658   9.385 -0.0943 -0.3085 -0.2255
 1201ERGO    R316370  12.945   7.845   9.216  0.1098 -0.0935 -0.1131
 1201ERGO    R416371  13.102   7.668   9.044 -0.2758 -0.3049 -0.2560
 1201ERGO    R516372  13.121   7.884   9.058  0.0850 -0.3352 -0.2035
 1201ERGO    C116373  13.040   7.851   8.687 -0.1897 -0.1011 -0.1683
 1201ERGO    C216374  12.874   7.887   8.302 -0.0268 -0.0039  0.1180
 1202ERGO   ROH16375   0.847   2.836   6.799  0.3541 -0.0269 -0.0895
 1202ERGO    R116376   0.758   2.705   7.034  0.2252  0.0548 -0.0912
 1202ERGO    R216377   0.823   2.443   7.091 -0.0401 -0.0199 -0.1013
 1202ERGO    R316378   0.912   2.550   7.325  0.0787 -0.1136 -0.1026
 1202ERGO    R416379   0.837   2.276   7.394 -0.2491 -0.0191 -0.0906
 1202ERGO    R516380   0.767   2.458   7.492 -0.0371  0.0669 -0.1033
 1202ERGO    C116381   0.927   2.280   7.789 -0.2592 -0.1065 -0.0857
 1202ERGO    C216382   0.889   2.081   8.059  0.4323 -0.1177  0.2098
 1203ERGO   ROH16383   1.775  11.712   7.023 -0.2467 -0.0889  0.1398
 1203ERGO    R116384   1.908  11.808   7.254 -0.1940  0.0336  0.0617
 1203ERGO    R216385   1.783  11.829   7.499 -0.1177  0.0783  0.1080
 1203ERGO    R316386   1.993  11.678   7.583 -0.0402  0.1680  0.0729
 1203ERGO    R416387   1.865  11.771   7.830 -0.1161 -0.0323  0.0877
 1203ERGO    R516388   2.076  11.793   7.776 -0.1320  0.1174  0.1318
 1203ERGO    C116389   2.110  11.595   8.101 -0.0425 -0.0125  0.0427
 1203ERGO    C216390   2.321  11.666   8.429  0.0089 -0.2192  0.0722
 1204ERGO   ROH16391  17.450   0.177   6.093  0.0191  0.0850 -0.1347
 1204ERGO    R116392  17.493   0.130   6.369 -0.1019  0.1507 -0.1045
 1204ERGO    R216393  17.738   0.056   6.470 -0.2206 -0.1372 -0.0245
 1204ERGO    R316394  17.700   0.271   6.633  0.0377 -0.0089 -0.1256
 1204ERGO    R416395  17.899   0.106   6.772 -0.3948 -0.3671  0.1104
 1204ERGO    R516396  17.711   0.180   6.854 -0.3421  0.0225 -0.0838
 1204ERGO    C116397  17.957   0.336   7.100 -0.2537 -0.3805  0.0940
 1204ERGO    C216398  18.113   0.584   7.202  0.1552 -0.1171  0.1355
 1205ERGO   ROH16399  13.913   2.136   6.509  0.0322 -0.0021 -0.0553
 1205ERGO    R116400  14.101   2.260   6.680  0.0250 -0.0772  0.0073
 1205ERGO    R216401  14.030   2.455   6.862  0.0362 -0.0809  0.0123
 1205ERGO    R316402  14.153   2.289   7.039 -0.0545 -0.1354  0.0248
 1205ERGO    R416403  14.170   2.557   7.161  0.1667 -0.1113 -0.0378
 1205ERGO    R516404  14.336   2.419   7.124  0.0606 -0.2476 -0.0403
 1205ERGO    C116405  14.367   2.460   7.502  0.1575 -0.1801 -0.0553
 1205ERGO    C216406  14.180   2.528   7.812 -0.1712  0.2169 -0.2026
 1206ERGO   ROH16407   3.131   6.397  10.054 -0.0915  0.5619  0.1484
 1206ERGO    R116408   3.136   6.360   9.774 -0.0504  0.5830  0.1463
 1206ERGO    R216409   3.008   6.149   9.650  0.3442  0.3284  0.1534
 1206ERGO    R316410   2.892   6.347   9.504 -0.0667  0.1152  0.1757
 1206ERGO    R416411   3.015   6.171   9.305  0.3233  0.3987  0.1573
 1206ERGO    R516412   3.045   6.386   9.324 -0.1293  0.4669  0.1927
 1206ERGO    C116413   2.910   6.370   8.968 -0.0745  0.2394  0.1805
 1206ERGO    C216414   2.908   6.480   8.696  0.1731  0.1083 -0.1330
 1207ERGO   ROH16415   7.277  10.416   9.928  0.0684 -0.0357  0.1142
 1207ERGO    R116416   7.157  10.449   9.674  0.1108 -0.2789  0.0595
 1207ERGO    R216417   7.134  10.696   9.552 -0.1344 -0.3520 -0.0491
 1207ERGO    R316418   7.260  10.569   9.347  0.0803 -0.2935  0.0444
 1207ERGO    R416419   7.045  10.720   9.219  0.1914 -0.2847 -0.1353
 1207ERGO    R516420   7.084  10.507   9.198  0.2319 -0.2761 -0.1452
 1207ERGO    C116421   7.111  10.615   8.833  0.5828 -0.1907 -0.0978
 1207ERGO    C216422   7.065  10.788   8.551  0.0641  0.5099 -0.3496
 1208ERGO   ROH16423  12.304   3.207   9.991 -0.1393 -0.0617  0.0459
 1208ERGO    R116424  12.297   3.028   9.772 -0.2889 -0.0717  0.0601
 1208ERGO    R216425  12.092   3.027   9.587 -0.1821  0.2312 -0.0547
 1208ERGO    R316426  12.295   3.053   9.409 -0.0359 -0.1043  0.0526
 1208ERGO    R416427  12.058   2.998   9.244 -0.0787  0.3559 -0.0773
 1208ERGO    R516428  12.247   2.889   9.240 -0.2612  0.0029 -0.0004
 1208ERGO    C116429  12.229   3.005   8.877  0.1188  0.1136  0.0101
 1208ERGO    C216430  12.231   2.903   8.431  0.2336  0.0541 -0.2647
 1209ERGO   ROH16431   5.291   8.047   9.894 -0.0469  0.0610  0.0751
 1209ERGO    R116432   5.387   8.104   9.634  0.1271 -0.0846  0.1051
 1209ERGO    R216433   5.463   7.907   9.456 -0.2361 -0.2149  0.0892
 1209ERGO    R316434   5.284   8.030   9.292  0.0428  0.1819  0.0697
 1209ERGO    R416435   5.459   7.878   9.112 -0.1940 -0.1155  0.0797
 1209ERGO    R516436   5.413   8.091   9.100  0.2220 -0.0138  0.1226
 1209ERGO    C116437   5.289   7.977   8.758  0.0922  0.3149  0.0559
 1209ERGO    C216438   5.315   8.032   8.335 -0.0134 -0.0599  0.2293
 1210ERGO   ROH16439   5.621   0.014   6.372  0.0323  0.0231  0.0863
 1210ERGO    R116440   5.459  -0.165   6.519 -0.0599  0.0194 -0.0214
 1210ERGO    R216441   5.552  -0.305   6.738 -0.1457 -0.1255 -0.0844
 1210ERGO    R316442   5.337  -0.192   6.861 -0.1143 -0.1026 -0.0477
 1210ERGO    R416443   5.460  -0.363   7.066 -0.0760 -0.1088 -0.0606
 1210ERGO    R516444   5.251  -0.366   7.001 -0.0956 -0.0976 -0.0211
 1210ERGO    C116445   5.204  -0.291   7.372 -0.0059 -0.0777 -0.0121
 1210ERGO    C216446   5.459  -0.294   7.732  0.0761  0.3093  0.2525
 1211ERGO   ROH16447   7.465  12.415   6.287  0.0068  0.0985 -0.2462
 1211ERGO    R116448   7.289  12.342   6.496  0.1188  0.0620 -0.1635
 1211ERGO    R216449   7.356  12.367   6.763  0.1742  0.2381 -0.1924
 1211ERGO    R316450   7.125  12.510   6.775  0.0681  0.0692 -0.1974
 1211ERGO    R416451   7.202  12.469   7.055  0.0689  0.0867 -0.1941
 1211ERGO    R516452   7.010  12.420   6.965  0.1127 -0.0413 -0.2214
 1211ERGO    C116453   6.896  12.662   7.236 -0.0920 -0.1599 -0.1997
 1211ERGO    C216454   6.651  12.700   7.499 -0.0463  0.0145  0.2763
 1212ERGO   ROH16455  13.271   4.146   9.577  0.0674  0.0475 -0.1033
 1212ERGO    R116456  13.265   3.990   9.341  0.2379  0.1205 -0.1562
 1212ERGO    R216457  13.055   3.999   9.161  0.1659 -0.1431 -0.0815
 1212ERGO    R316458  13.253   4.053   8.983  0.0270  0.2283 -0.1333
 1212ERGO    R416459  13.021   3.989   8.818  0.1369 -0.4432 -0.0735
 1212ERGO    R516460  13.217   3.898   8.805  0.3735  0.0162 -0.0334
 1212ERGO    C116461  13.186   4.035   8.450 -0.0102 -0.2693 -0.1174
 1212ERGO    C216462  13.226   3.822   8.196 -0.1422  0.0684 -0.3319
 1213ERGO   ROH16463  15.953   4.971   6.230  0.0679 -0.2621  0.0618
 1213ERGO    R116464  15.926   5.151   6.447 -0.1500 -0.0551 -0.1322
 1213ERGO    R216465  15.682   5.254   6.525 -0.3108 -0.4296 -0.1157
 1213ERGO    R316466  15.755   5.156   6.768  0.0268 -0.0148 -0.0378
 1213ERGO    R416467  15.525   5.327   6.824 -0.2343 -0.3416 -0.0968
 1213ERGO    R516468  15.720   5.338   6.919 -0.1828  0.1124 -0.2346
 1213ERGO    C116469  15.502   5.277   7.226  0.1272  0.0990 -0.0126
 1213ERGO    C216470  15.522   5.321   7.552 -0.2251  0.0082  0.1331
 1214ERGO   ROH16471  11.628  12.381  10.006  0.1330  0.2679  0.0930
 1214ERGO    R116472  11.782  12.421   9.771  0.0742  0.1635  0.0351
 1214ERGO    R216473  11.763  12.255   9.551  0.0993 -0.0050  0.1511
 1214ERGO    R316474  11.716  12.488   9.420 -0.0226 -0.1138  0.0000
 1214ERGO    R416475  11.803  12.301   9.211 -0.0121 -0.2118  0.1082
 1214ERGO    R516476  11.887  12.498   9.253 -0.0777 -0.1565 -0.0519
 1214ERGO    C116477  11.782  12.547   8.890 -0.1912 -0.4344 -0.0585
 1214ERGO    C216478  11.779  12.561   8.581 -0.2609  0.0590  0.0435
 1215ERGO   ROH16479   8.076   9.785   9.876  0.1309  0.2003 -0.2612
 1215ERGO    R116480   7.960   9.770   9.619  0.0820  0.1485 -0.2367
 1215ERGO    R216481   7.994   9.968   9.428  0.1381  0.0587 -0.3216
 1215ERGO    R316482   8.080   9.761   9.275  0.0220 -0.0405 -0.2538
 1215ERGO    R416483   7.956   9.948   9.086  0.3162  0.0740 -0.3425
 1215ERGO    R516484   7.910   9.736   9.108  0.0906  0.1189 -0.3513
 1215ERGO    C116485   8.015   9.742   8.742  0.3109 -0.0102 -0.2912
 1215ERGO    C216486   7.918   9.857   8.414 -0.1741 -0.2036 -0.0589
 1216ERGO   ROH16487   9.331  10.542   9.788 -0.3064 -0.2052  0.1132
 1216ERGO    R116488   9.318  10.741   9.587 -0.1169 -0.1157  0.1872
 1216ERGO    R216489   9.468  10.730   9.356 -0.0495 -0.1174  0.2319
 1216ERGO    R316490   9.226  10.757   9.235  0.0052  0.0830  0.1623
 1216ERGO    R416491   9.421  10.793   9.019  0.1017 -0.2978  0.1757
 1216ERGO    R516492   9.260  10.929   9.072  0.2463 -0.0670  0.0461
 1216ERGO    C116493   9.167  10.854   8.710  0.2409 -0.2148  0.0776
 1216ERGO    C216494   9.354  10.695   8.455 -0.2742  0.2624  0.1871
 1217ERGO   ROH16495   8.674  15.880  10.233 -0.1037 -0.2212 -0.0621
 1217ERGO    R116496   8.583  15.924   9.968  0.0347 -0.0538 -0.0844
 1217ERGO    R216497   8.722  16.079   9.786  0.2200 -0.0791  0.0315
 1217ERGO    R316498   8.705  15.856   9.632  0.1256 -0.0090 -0.0607
 1217ERGO    R416499   8.779  16.069   9.446  0.4522 -0.0063  0.0669
 1217ERGO    R516500   8.611  15.932   9.426  0.3403  0.1524 -0.1019
 1217ERGO    C116501   8.797  15.853   9.103  0.4988  0.1021  0.0010
 1217ERGO    C216502   8.806  15.851   8.771 -0.3140  0.0510  0.0470
 1218ERGO   ROH16503   1.874  13.191   6.617 -0.1092 -0.3450 -0.0138
 1218ERGO    R116504   1.845  13.176   6.898 -0.0496 -0.2396 -0.0015
 1218ERGO    R216505   2.054  13.224   7.073 -0.0528 -0.0145 -0.0591
 1218ERGO    R316506   1.880  13.404   7.180 -0.1597 -0.0874 -0.1081
 1218ERGO    R416507   2.069  13.345   7.396 -0.1372  0.0564 -0.0812
 1218ERGO    R516508   1.852  13.331   7.406 -0.1339 -0.0609 -0.0942
 1218ERGO    C116509   1.915  13.583   7.685 -0.2867  0.0292 -0.1401
 1218ERGO    C216510   1.988  13.865   7.963 -0.2373 -0.0727 -0.1070
 1219ERGO   ROH16511  10.976  17.424   5.995  0.1809  0.0921 -0.1215
 1219ERGO    R116512  10.755  17.451   6.169  0.1060  0.1361 -0.2240
 1219ERGO    R216513  10.779  17.439   6.444 -0.0444 -0.0196 -0.2193
 1219ERGO    R316514  10.653  17.679   6.434  0.1034  0.0626 -0.1600
 1219ERGO    R416515  10.714  17.640   6.718  0.0642 -0.0597 -0.1628
 1219ERGO    R516516  10.519  17.685   6.632  0.0935  0.0854 -0.1644
 1219ERGO    C116517  10.558  17.983   6.867  0.2663 -0.0060 -0.0743
 1219ERGO    C216518  10.581  18.239   7.038 -0.3501  0.0849  0.1956
 1220ERGO   ROH16519  17.468   2.042  10.199  0.0381 -0.0507  0.0903
 1220ERGO    R116520  17.552   2.088   9.933  0.1149 -0.0757  0.1105
 1220ERGO    R216521  17.614   1.883   9.759 -0.0424 -0.0991  0.0844
 1220ERGO    R316522  17.432   2.005   9.599  0.0868  0.0912  0.0776
 1220ERGO    R416523  17.621   1.879   9.414 -0.1354 -0.2720  0.0832
 1220ERGO    R516524  17.560   2.088   9.415  0.1642 -0.1776  0.0031
 1220ERGO    C116525  17.453   1.991   9.062 -0.0683 -0.1940  0.0762
 1220ERGO    C216526  17.452   1.897   8.725  0.1170 -0.1704 -0.0247
 1221ERGO   ROH16527   8.115   1.645   6.323 -0.1558 -0.1461 -0.1316
 1221ERGO    R116528   8.079   1.591   6.599 -0.0953 -0.3083 -0.1543
 1221ERGO    R216529   8.183   1.366   6.722  0.2764 -0.1824 -0.2260
 1221ERGO    R316530   8.293   1.548   6.890 -0.0489 -0.0509 -0.1482
 1221ERGO    R416531   8.252   1.311   7.056  0.2569 -0.1591 -0.2183
 1221ERGO    R516532   8.182   1.512   7.099 -0.0625 -0.2696 -0.1903
 1221ERGO    C116533   8.396   1.451   7.408 -0.0599 -0.0220 -0.1407
 1221ERGO    C216534   8.620   1.413   7.742 -0.0549  0.0112 -0.1039
 1222ERGO   ROH16535   7.955  13.363   6.322 -0.2733  0.1542  0.0868
 1222ERGO    R116536   7.803  13.266   6.540 -0.1809  0.0419  0.1014
 1222ERGO    R216537   7.889  13.286   6.802 -0.1666  0.0980  0.0908
 1222ERGO    R316538   7.648  13.406   6.838 -0.2499 -0.0742  0.1216
 1222ERGO    R416539   7.735  13.332   7.108 -0.1266  0.0443  0.1195
 1222ERGO    R516540   7.545  13.282   7.014 -0.1141 -0.1182  0.1736
 1222ERGO    C116541   7.419  13.473   7.319 -0.1815 -0.1484  0.1651
 1222ERGO    C216542   7.351  13.379   7.608 -0.0679 -0.1814  0.2945
 1223ERGO   ROH16543   4.815   5.795   6.235 -0.0288 -0.0309  0.0090
 1223ERGO    R116544   5.010   5.663   6.391  0.0222  0.0442  0.0101
 1223ERGO    R216545   5.209   5.798   6.527 -0.0470  0.1237  0.0371
 1223ERGO    R316546   5.112   5.659   6.740 -0.0006  0.0603  0.0162
 1223ERGO    R416547   5.337   5.814   6.848 -0.1432  0.2258  0.0710
 1223ERGO    R516548   5.308   5.598   6.864  0.0098  0.2062  0.0697
 1223ERGO    C116549   5.322   5.692   7.234 -0.1556  0.2257  0.0713
 1223ERGO    C216550   5.271   5.738   7.642  0.4202 -0.0048 -0.0200
 1224ERGO   ROH16551  17.232   2.245   6.819 -0.2428 -0.0522  0.0768
 1224ERGO    R116552  17.283   2.032   6.998 -0.1963 -0.0106  0.1106
 1224ERGO    R216553  17.348   2.073   7.264 -0.0910  0.0501  0.0661
 1224ERGO    R316554  17.139   1.905   7.307 -0.0869  0.0763  0.2018
 1224ERGO    R416555  17.295   1.895   7.555  0.3603 -0.3099 -0.0586
 1224ERGO    R516556  17.232   1.725   7.434  0.0825 -0.1350 -0.1911
 1224ERGO    C116557  17.067   1.633   7.765  0.6271 -0.4948 -0.0038
 1224ERGO    C216558  16.900   1.445   8.008  0.2031 -0.3126  0.0870
 1225ERGO   ROH16559  10.966   6.281   9.040  0.0807  0.0541 -0.0681
 1225ERGO    R116560  10.928   6.156   8.790 -0.0355 -0.0279 -0.0103
 1225ERGO    R216561  10.692   6.027   8.722 -0.1198  0.0690  0.0877
 1225ERGO    R316562  10.701   6.193   8.508 -0.0713 -0.0206  0.0201
 1225ERGO    R416563  10.542   5.965   8.418 -0.2090  0.0299  0.1396
 1225ERGO    R516564  10.718   6.047   8.319 -0.1845 -0.1028  0.0743
 1225ERGO    C116565  10.462   6.085   8.038 -0.2153 -0.0769  0.1064
 1225ERGO    C216566  10.093   6.078   7.805  0.1548 -0.0500  0.1449
 1226ERGO   ROH16567  10.305   9.698   9.750  0.0546  0.0905 -0.1486
 1226ERGO    R116568  10.199   9.692   9.488 -0.0125 -0.0614 -0.1194
 1226ERGO    R216569  10.164   9.921   9.337 -0.2280 -0.1289 -0.1717
 1226ERGO    R316570  10.313   9.785   9.155 -0.1731 -0.0634 -0.1766
 1226ERGO    R416571  10.243  10.036   9.021 -0.1004  0.0087 -0.0912
 1226ERGO    R516572  10.209   9.835   8.945 -0.0928  0.0427 -0.1942
 1226ERGO    C116573  10.428   9.976   8.666  0.0254  0.1503 -0.0488
 1226ERGO    C216574  10.514   9.972   8.370 -0.1419 -0.2090 -0.2068
 1227ERGO   ROH16575  12.470  16.386   6.436 -0.0260  0.1130 -0.0842
 1227ERGO    R116576  12.587  16.567   6.619  0.0434 -0.0365  0.0230
 1227ERGO    R216577  12.505  16.830   6.642  0.3084  0.0558  0.0013
 1227ERGO    R316578  12.475  16.764   6.904  0.0530  0.0437 -0.0295
 1227ERGO    R416579  12.590  17.034   6.907  0.4088 -0.1060  0.0942
 1227ERGO    R516580  12.668  16.859   7.011  0.1111 -0.2296  0.1130
 1227ERGO    C116581  12.611  17.092   7.308  0.2274 -0.2118  0.1192
 1227ERGO    C216582  12.696  17.327   7.434  0.2814  0.1759 -0.2103
 1228ERGO   ROH16583  10.040   7.884   9.525 -0.1230 -0.4726  0.2301
 1228ERGO    R116584  10.044   7.679   9.330 -0.0132 -0.3588  0.1107
 1228ERGO    R216585   9.909   7.699   9.090 -0.0088 -0.2841  0.1165
 1228ERGO    R316586  10.153   7.643   8.985  0.0237 -0.1072  0.0942
 1228ERGO    R416587   9.966   7.601   8.764  0.0336 -0.2329  0.1077
 1228ERGO    R516588  10.114   7.459   8.837  0.1416 -0.1317  0.0911
 1228ERGO    C116589  10.229   7.492   8.475  0.0888 -0.0371  0.0818
 1228ERGO    C216590  10.439   7.414   8.122  0.0669  0.1947  0.1603
 1229ERGO   ROH16591   9.589   4.942   6.285  0.1071 -0.0758  0.0157
 1229ERGO    R116592   9.678   4.923   6.553  0.0010 -0.0300  0.0553
 1229ERGO    R216593   9.554   5.057   6.761 -0.0600  0.0359 -0.0201
 1229ERGO    R316594   9.541   4.809   6.871 -0.1402  0.0613  0.0275
 1229ERGO    R416595   9.517   4.992   7.098 -0.0011  0.1092  0.0005
 1229ERGO    R516596   9.660   4.829   7.077 -0.0791  0.0444 -0.0076
 1229ERGO    C116597   9.483   4.721   7.398 -0.0421  0.1758  0.0572
 1229ERGO    C216598   9.445   4.736   7.687 -0.0742 -0.1256 -0.1166
 1230ERGO   ROH16599   5.044   9.092   6.381  0.0957  0.0637  0.0671
 1230ERGO    R116600   4.926   9.019   6.628 -0.0710  0.0501 -0.0153
 1230ERGO    R216601   5.056   9.051   6.869 -0.1078 -0.2547  0.0477
 1230ERGO    R316602   4.831   9.189   6.936  0.0336 -0.0248  0.0588
 1230ERGO    R416603   4.969   9.145   7.191  0.0822 -0.0211  0.0333
 1230ERGO    R516604   4.762   9.094   7.144  0.0200  0.1365  0.1293
 1230ERGO    C116605   4.708   9.329   7.440  0.3255  0.3307  0.0355
 1230ERGO    C216606   4.625   9.248   7.821 -0.1576 -0.0505 -0.2412
 1231ERGO   ROH16607  15.917   1.414   9.751 -0.1792 -0.3684  0.0209
 1231ERGO    R116608  16.079   1.399   9.519 -0.1729 -0.2788  0.0188
 1231ERGO    R216609  15.999   1.266   9.291 -0.2271 -0.0718 -0.0868
 1231ERGO    R316610  16.053   1.504   9.172 -0.1003 -0.0087  0.0926
 1231ERGO    R416611  16.001   1.318   8.949 -0.2275  0.1917 -0.0478
 1231ERGO    R516612  16.177   1.444   8.975 -0.1522  0.0707  0.0356
 1231ERGO    C116613  16.052   1.573   8.638 -0.1086  0.4044  0.1431
 1231ERGO    C216614  15.989   1.461   8.282  0.1220  0.0002 -0.2766
 1232ERGO   ROH16615   5.743   3.907   9.576  0.1380  0.1998  0.0886
 1232ERGO    R116616   5.773   3.969   9.302  0.1057  0.2139  0.0891
 1232ERGO    R216617   5.575   3.916   9.115  0.0982  0.1990  0.1088
 1232ERGO    R316618   5.603   4.180   9.059  0.0611  0.2041  0.1093
 1232ERGO    R416619   5.579   4.051   8.797  0.3520  0.1580  0.0914
 1232ERGO    R516620   5.738   4.185   8.861  0.2513  0.2228  0.2316
 1232ERGO    C116621   5.607   4.378   8.559  0.4651  0.1388  0.0814
 1232ERGO    C216622   5.621   4.532   8.234 -0.4205  0.0479 -0.2403
 1233ERGO   ROH16623   4.388   3.268   9.822 -0.5043 -0.0014 -0.0648
 1233ERGO    R116624   4.319   3.124   9.588 -0.2832 -0.0279 -0.1170
 1233ERGO    R216625   4.111   3.199   9.424 -0.1770 -0.0876 -0.2869
 1233ERGO    R316626   4.303   3.191   9.231 -0.0195 -0.0421 -0.1330
 1233ERGO    R416627   4.049   3.177   9.084  0.1037 -0.0069 -0.3447
 1233ERGO    R516628   4.217   3.039   9.068  0.1156 -0.0013 -0.2407
 1233ERGO    C116629   4.194   3.157   8.706  0.4150  0.0828 -0.2341
 1233ERGO    C216630   4.210   3.242   8.319  0.2460  0.0499 -0.1715
 1234ERGO   ROH16631  13.733   7.979  10.022 -0.0205 -0.0798 -0.0629
 1234ERGO    R116632  13.848   8.058   9.776 -0.0541  0.0041 -0.0524
 1234ERGO    R216633  14.078   7.943   9.675  0.0436  0.1688 -0.0319
 1234ERGO    R316634  13.923   7.900   9.456  0.0889  0.0547 -0.0427
 1234ERGO    R416635  14.169   8.019   9.351  0.0324  0.1453 -0.0411
 1234ERGO    R516636  13.966   8.089   9.315  0.0097  0.0415 -0.0771
 1234ERGO    C116637  14.076   8.024   8.956  0.0682  0.0246 -0.0564
 1234ERGO    C216638  14.208   8.105   8.682 -0.1242 -0.3176 -0.1219
 1235ERGO   ROH16639  16.429  17.504   6.275  0.0956  0.0277 -0.0198
 1235ERGO    R116640  16.498  17.348   6.502  0.0757  0.0131 -0.0242
 1235ERGO    R216641  16.742  17.372   6.630  0.0601  0.0112  0.0037
 1235ERGO    R316642  16.586  17.412   6.849  0.0356 -0.0112 -0.0093
 1235ERGO    R416643  16.781  17.209   6.931  0.0504  0.0054  0.0021
 1235ERGO    R516644  16.564  17.194   6.946  0.0498 -0.0176 -0.0183
 1235ERGO    C116645  16.658  17.150   7.313  0.0220 -0.0190 -0.0111
 1235ERGO    C216646  16.801  16.852   7.560  0.2671 -0.1891  0.2706
 1236ERGO   ROH16647   3.046   3.113   9.962  0.0748 -0.1883  0.0482
 1236ERGO    R116648   2.918   3.190   9.722  0.0396 -0.1326  0.0850
 1236ERGO    R216649   3.056   3.295   9.506  0.0334 -0.2636  0.0194
 1236ERGO    R316650   2.933   3.093   9.371 -0.1615 -0.1953  0.0917
 1236ERGO    R416651   3.054   3.259   9.162 -0.1252 -0.2963  0.0226
 1236ERGO    R516652   2.845   3.199   9.174 -0.1676 -0.1517  0.1143
 1236ERGO    C116653   2.938   3.050   8.836 -0.4005 -0.2513  0.0924
 1236ERGO    C216654   2.968   3.153   8.582  0.1888 -0.1493  0.0556
 1237ERGO   ROH16655  17.710   8.255  10.759  0.0345  0.1591  0.0641
 1237ERGO    R116656  17.872   8.270  10.527  0.0409  0.0086  0.0589
 1237ERGO    R216657  17.884   8.066  10.341 -0.1840  0.0131  0.0415
 1237ERGO    R316658  17.820   8.266  10.167  0.0215  0.0983  0.0596
 1237ERGO    R416659  17.899   8.041   9.996 -0.1352  0.0496  0.0403
 1237ERGO    R516660  17.979   8.244   9.990  0.0426 -0.0136  0.0880
 1237ERGO    C116661  17.848   8.214   9.633  0.0861  0.1507  0.0567
 1237ERGO    C216662  17.922   8.327   9.249 -0.0402  0.4204  0.0967
 1238ERGO   ROH16663   8.292  16.471   6.245 -0.1832 -0.0685 -0.0283
 1238ERGO    R116664   8.302  16.415   6.522 -0.0906 -0.0549 -0.0286
 1238ERGO    R216665   8.378  16.604   6.709 -0.0993 -0.0233 -0.0559
 1238ERGO    R316666   8.140  16.540   6.823 -0.0489 -0.0946  0.0100
 1238ERGO    R416667   8.251  16.750   6.995 -0.1771  0.1141 -0.1595
 1238ERGO    R516668   8.181  16.553   7.059 -0.0412  0.1157 -0.0020
 1238ERGO    C116669   7.953  16.775   7.269 -0.1751  0.1270 -0.1579
 1238ERGO    C216670   7.881  16.864   7.586 -0.3746  0.2105 -0.1880
 1239ERGO   ROH16671   4.748   4.537   9.289 -0.0142  0.3225 -0.0661
 1239ERGO    R116672   4.616   4.595   9.045  0.1942  0.3438 -0.1791
 1239ERGO    R216673   4.748   4.606   8.803  0.3490 -0.0001 -0.1268
 1239ERGO    R316674   4.559   4.425   8.728  0.1388  0.2007 -0.0917
 1239ERGO    R416675   4.678   4.518   8.476  0.2972 -0.0507 -0.1009
 1239ERGO    R516676   4.466   4.517   8.527  0.2884  0.2308 -0.1424
 1239ERGO    C116677   4.460   4.298   8.215  0.0696  0.1084 -0.0527
 1239ERGO    C216678   4.372   4.049   8.004  0.0494  0.0515  0.2234
 1240ERGO   ROH16679   4.999  10.372  10.248  0.1063  0.2264  0.1929
 1240ERGO    R116680   4.872  10.420  10.000  0.2164 -0.1180  0.0624
 1240ERGO    R216681   4.819  10.675   9.907 -0.2926 -0.2424 -0.0326
 1240ERGO    R316682   4.956  10.589   9.688  0.1230  0.0199  0.1123
 1240ERGO    R416683   4.777  10.797   9.586 -0.2009 -0.3507 -0.0858
 1240ERGO    R516684   4.795  10.594   9.511  0.2977 -0.3247 -0.0615
 1240ERGO    C116685   4.881  10.787   9.194  0.2427 -0.1675  0.0192
 1240ERGO    C216686   4.799  10.912   8.842  0.0393  0.2530  0.2360
 1241ERGO   ROH16687   4.813   1.835   6.546  0.0416 -0.0966  0.1412
 1241ERGO    R116688   4.896   1.880   6.813 -0.0576 -0.0149  0.1575
 1241ERGO    R216689   5.069   2.083   6.883 -0.1081  0.0185  0.1609
 1241ERGO    R316690   4.870   2.150   7.056 -0.1713  0.0474  0.0801
 1241ERGO    R416691   5.118   2.217   7.198 -0.2158  0.2993  0.0624
 1241ERGO    R516692   4.957   2.090   7.271 -0.1604  0.2634  0.1428
 1241ERGO    C116693   4.960   2.358   7.543 -0.3379  0.4898 -0.0709
 1241ERGO    C216694   5.206   2.606   7.744  0.2775 -0.2441 -0.0977
 1242ERGO   ROH16695   7.011   6.823   9.768  0.1376 -0.2256 -0.0995
 1242ERGO    R116696   6.963   6.913   9.504  0.0748 -0.0023 -0.0119
 1242ERGO    R216697   7.161   7.024   9.347  0.1108 -0.1758 -0.0711
 1242ERGO    R316698   7.084   6.831   9.171 -0.2665  0.0371 -0.1533
 1242ERGO    R416699   7.191   7.047   9.003  0.3828 -0.1555 -0.0501
 1242ERGO    R516700   6.995   6.953   8.985  0.1374  0.3210 -0.1863
 1242ERGO    C116701   7.135   6.880   8.638  0.1870  0.0561 -0.1149
 1242ERGO    C216702   7.103   6.908   8.273  0.1935  0.0514 -0.2183
 1243ERGO   ROH16703  17.314  16.733   9.798 -0.2019 -0.3064  0.0390
 1243ERGO    R116704  17.381  16.728   9.524 -0.0333 -0.2017  0.0761
 1243ERGO    R216705  17.310  16.520   9.357  0.1125 -0.1653 -0.0389
 1243ERGO    R316706  17.201  16.719   9.207  0.1586 -0.1389 -0.0358
 1243ERGO    R416707  17.327  16.540   9.012  0.1532 -0.1367 -0.0346
 1243ERGO    R516708  17.359  16.755   9.031  0.1809 -0.1458 -0.0141
 1243ERGO    C116709  17.234  16.739   8.671  0.2204 -0.0951 -0.0292
 1243ERGO    C216710  17.364  16.736   8.292  0.2483 -0.0215 -0.0180
 1244ERGO   ROH16711   5.914  10.877   6.737 -0.0110 -0.3247  0.1603
 1244ERGO    R116712   5.871  10.872   7.017  0.0946 -0.1285  0.1812
 1244ERGO    R216713   6.040  10.999   7.195  0.0786  0.1247  0.0194
 1244ERGO    R316714   5.810  11.117   7.279  0.0326  0.0434  0.0091
 1244ERGO    R416715   5.965  11.076   7.524  0.0493  0.1249  0.0131
 1244ERGO    R516716   5.761  11.010   7.488  0.0739  0.0423  0.0189
 1244ERGO    C116717   5.706  11.231   7.794 -0.0109  0.0487 -0.0003
 1244ERGO    C216718   5.715  11.324   8.021 -0.2363 -0.0343  0.0675
 1245ERGO   ROH16719   8.820   3.620   6.546 -0.1967 -0.0863 -0.1427
 1245ERGO    R116720   8.685   3.668   6.790 -0.0907 -0.0823 -0.0845
 1245ERGO    R216721   8.743   3.530   7.022  0.0851 -0.0038 -0.0790
 1245ERGO    R316722   8.776   3.779   7.124  0.0378  0.0350 -0.1579
 1245ERGO    R416723   8.821   3.600   7.351  0.2950  0.1107 -0.1509
 1245ERGO    R516724   8.681   3.767   7.344  0.2074  0.0382 -0.0847
 1245ERGO    C116725   8.897   3.875   7.639  0.3728  0.2139 -0.2668
 1245ERGO    C216726   9.083   4.021   7.912 -0.1346 -0.3519  0.0354
 1246ERGO   ROH16727  11.781   0.203  10.065 -0.4210  0.0049 -0.1163
 1246ERGO    R116728  11.966   0.210   9.850 -0.3305  0.2121 -0.0348
 1246ERGO    R216729  12.026  -0.014   9.698  0.0876  0.2440  0.0740
 1246ERGO    R316730  11.957   0.148   9.492 -0.0737  0.0611 -0.0189
 1246ERGO    R416731  12.114  -0.065   9.368  0.2063  0.1784  0.1150
 1246ERGO    R516732  12.148   0.149   9.349 -0.0452  0.2164  0.0150
 1246ERGO    C116733  12.100   0.058   8.982  0.1238 -0.0316  0.0517
 1246ERGO    C216734  12.114   0.024   8.605  0.0053  0.3150  0.2422
 1247ERGO   ROH16735   3.024  12.013  10.440 -0.0369  0.1287  0.0433
 1247ERGO    R116736   2.845  11.958  10.228  0.0135 -0.1816  0.0762
 1247ERGO    R216737   2.760  12.152  10.051 -0.3967 -0.3103  0.1207
 1247ERGO    R316738   2.852  11.977   9.865 -0.1029 -0.1159  0.0770
 1247ERGO    R416739   2.763  12.209   9.710 -0.2231 -0.1090  0.1544
 1247ERGO    R516740   2.702  12.002   9.680 -0.0053 -0.1526 -0.0081
 1247ERGO    C116741   2.851  12.078   9.337  0.1538  0.1909  0.1329
 1247ERGO    C216742   2.769  12.120   9.083 -0.2233 -0.0682  0.1851
 1248ERGO   ROH16743   1.557   2.123   6.261 -0.1828  0.2399 -0.1504
 1248ERGO    R116744   1.636   2.108   6.533 -0.3217  0.1186 -0.1158
 1248ERGO    R216745   1.848   2.253   6.634 -0.2198 -0.1119  0.0012
 1248ERGO    R316746   1.662   2.338   6.814 -0.2159  0.0512 -0.0688
 1248ERGO    R416747   1.915   2.449   6.911 -0.1619 -0.1016 -0.0194
 1248ERGO    R516748   1.775   2.328   7.025 -0.2801  0.0149 -0.0336
 1248ERGO    C116749   1.780   2.643   7.240 -0.1244  0.0575 -0.0970
 1248ERGO    C216750   1.729   2.760   7.605 -0.1433 -0.0347 -0.1787
 1249ERGO   ROH16751  17.185   1.313   6.565  0.1396  0.2010  0.0828
 1249ERGO    R116752  17.066   1.136   6.752  0.0723  0.2030  0.0425
 1249ERGO    R216753  17.170   0.885   6.806 -0.0323  0.1433 -0.0273
 1249ERGO    R316754  17.165   0.975   7.063  0.0188  0.0795 -0.0038
 1249ERGO    R416755  17.143   0.683   7.085  0.0042  0.0748 -0.0733
 1249ERGO    R516756  17.008   0.831   7.173  0.0289  0.0617 -0.0125
 1249ERGO    C116757  17.121   0.649   7.488  0.0736 -0.0251 -0.0780
 1249ERGO    C216758  17.254   0.580   7.774 -0.0773 -0.0699 -0.1155
 1250ERGO   ROH16759   5.934   9.734   6.586 -0.0037 -0.0315  0.1457
 1250ERGO    R116760   5.964   9.588   6.827  0.1201 -0.0175  0.1409
 1250ERGO    R216761   6.000   9.711   7.072  0.1260  0.0022  0.1375
 1250ERGO    R316762   5.785   9.559   7.142  0.2078 -0.0911  0.1822
 1250ERGO    R416763   5.854   9.708   7.385  0.1598 -0.0398  0.1517
 1250ERGO    R516764   5.831   9.492   7.368  0.2607 -0.0460  0.1795
 1250ERGO    C116765   5.568   9.565   7.634  0.2561 -0.1518  0.2021
 1250ERGO    C216766   5.446   9.719   7.927 -0.0321  0.0363  0.2689
 1251ERGO   ROH16767   3.504  11.144   6.616  0.0336 -0.1771  0.0805
 1251ERGO    R116768   3.435  11.071   6.880  0.0380 -0.3364  0.0388
 1251ERGO    R216769   3.578  10.884   7.026  0.3000 -0.1140  0.0764
 1251ERGO    R316770   3.591  11.085   7.209 -0.1309 -0.1090  0.1119
 1251ERGO    R416771   3.623  10.839   7.365  0.3279 -0.0790  0.0770
 1251ERGO    R516772   3.478  10.997   7.401  0.0020 -0.3666  0.0769
 1251ERGO    C116773   3.663  11.001   7.735 -0.0604 -0.0540  0.1107
 1251ERGO    C216774   3.650  11.113   8.067 -0.1056  0.0087  0.1093
 1252ERGO   ROH16775  11.540   9.061   9.477  0.0477  0.0358  0.1030
 1252ERGO    R116776  11.480   8.853   9.295  0.0924  0.0060  0.1199
 1252ERGO    R216777  11.235   8.832   9.169  0.0684 -0.0963  0.1676
 1252ERGO    R316778  11.388   8.827   8.944  0.0290 -0.0346  0.1412
 1252ERGO    R416779  11.140   8.689   8.868 -0.0431  0.1412  0.0895
 1252ERGO    R516780  11.343   8.613   8.846 -0.0909  0.0537  0.0107
 1252ERGO    C116781  11.228   8.603   8.482 -0.1450  0.3374  0.0192
 1252ERGO    C216782  11.028   8.547   8.150 -0.1877 -0.1656  0.1459
 1253ERGO   ROH16783   5.829   2.447   6.548  0.0104  0.1558  0.0444
 1253ERGO    R116784   6.009   2.532   6.750  0.0328  0.1615  0.0225
 1253ERGO    R216785   5.924   2.610   7.001  0.0603  0.1738  0.0282
 1253ERGO    R316786   6.103   2.423   7.084  0.0655  0.1746  0.0177
 1253ERGO    R416787   6.036   2.576   7.326 -0.0389  0.0792  0.0527
 1253ERGO    R516788   6.236   2.537   7.247 -0.0063  0.1412  0.1015
 1253ERGO    C116789   6.269   2.381   7.594 -0.0918  0.0250  0.0571
 1253ERGO    C216790   6.138   2.238   7.883 -0.2323  0.2514  0.1194
 1254ERGO   ROH16791   9.606  13.616  10.212  0.2547 -0.0047  0.0050
 1254ERGO    R116792   9.724  13.740   9.987  0.1744 -0.0269 -0.0504
 1254ERGO    R216793   9.801  13.598   9.762  0.0890 -0.0488 -0.0685
 1254ERGO    R316794   9.643  13.780   9.634  0.0444 -0.0575 -0.0243
 1254ERGO    R416795   9.791  13.646   9.420  0.1124  0.0624 -0.0534
 1254ERGO    R516796   9.779  13.860   9.455  0.0382  0.0469  0.0178
 1254ERGO    C116797   9.638  13.843   9.101  0.0842  0.1190 -0.0031
 1254ERGO    C216798   9.651  13.851   8.854 -0.1466 -0.0997  0.1573
 1255ERGO   ROH16799  10.994   3.356   9.927 -0.1834  0.1541 -0.0749
 1255ERGO    R116800  10.850   3.206   9.735 -0.1638  0.0917 -0.0410
 1255ERGO    R216801  10.766   3.313   9.494 -0.1874  0.0297 -0.0617
 1255ERGO    R316802  10.900   3.101   9.390 -0.1546  0.0301 -0.0204
 1255ERGO    R416803  10.769   3.226   9.160  0.0878  0.1473 -0.0925
 1255ERGO    R516804  10.755   3.017   9.219 -0.0247  0.1314 -0.1809
 1255ERGO    C116805  10.897   2.975   8.867  0.2789  0.2161 -0.0717
 1255ERGO    C216806  10.820   2.997   8.574  0.2140  0.0438  0.3028
 1256ERGO   ROH16807  17.631  11.384   7.057 -0.0016  0.1077  0.1998
 1256ERGO    R116808  17.785  11.229   7.237 -0.1712 -0.0710  0.1956
 1256ERGO    R216809  18.000  11.333   7.375  0.0618 -0.3557  0.0617
 1256ERGO    R316810  17.866  11.237   7.592 -0.0070 -0.0519  0.1581
 1256ERGO    R416811  18.125  11.325   7.697  0.0876 -0.2156  0.0556
 1256ERGO    R516812  18.035  11.128   7.722 -0.0990 -0.1090  0.2273
 1256ERGO    C116813  18.072  11.230   8.088  0.0380  0.1512  0.1425
 1256ERGO    C216814  18.283  11.283   8.376 -0.0987  0.1074  0.0215
 1257ERGO   ROH16815   9.482  12.862   6.625  0.0190 -0.1464 -0.1343
 1257ERGO    R116816   9.672  12.950   6.815 -0.0266 -0.1415 -0.0908
 1257ERGO    R216817   9.609  12.995   7.080 -0.1001 -0.0943 -0.1181
 1257ERGO    R316818   9.815  12.824   7.125 -0.1331 -0.1120 -0.0284
 1257ERGO    R416819   9.791  12.979   7.373  0.0574  0.2045 -0.1958
 1257ERGO    R516820   9.971  12.952   7.253 -0.0161 -0.0024 -0.2704
 1257ERGO    C116821  10.091  12.809   7.586  0.1180  0.3619 -0.1568
 1257ERGO    C216822   9.903  12.735   7.894  0.0038 -0.0268 -0.1642
 1258ERGO   ROH16823   6.264  15.998   6.579 -0.0194 -0.1352  0.1376
 1258ERGO    R116824   6.524  16.093   6.638 -0.0309 -0.0364  0.0311
 1258ERGO    R216825   6.601  16.354   6.589 -0.1074 -0.0423 -0.1279
 1258ERGO    R316826   6.670  16.348   6.852 -0.0492  0.1187 -0.1380
 1258ERGO    R416827   6.854  16.542   6.732 -0.0887  0.0612 -0.2938
 1258ERGO    R516828   6.909  16.368   6.852 -0.0504  0.1355 -0.2021
 1258ERGO    C116829   7.066  16.645   7.063 -0.0232  0.2727 -0.3997
 1258ERGO    C216830   7.237  16.854   7.117 -0.0144  0.1347 -0.3975
 1259ERGO   ROH16831  15.537   3.716   6.361 -0.2298 -0.1037 -0.1057
 1259ERGO    R116832  15.382   3.651   6.588 -0.1322 -0.0005 -0.0087
 1259ERGO    R216833  15.490   3.633   6.842 -0.0189  0.0953 -0.0492
 1259ERGO    R316834  15.295   3.812   6.903  0.0208  0.1337 -0.0337
 1259ERGO    R416835  15.423   3.753   7.159 -0.0373  0.0327 -0.0289
 1259ERGO    R516836  15.211   3.739   7.115 -0.0335  0.1029 -0.0664
 1259ERGO    C116837  15.200   3.991   7.400 -0.0108  0.0323 -0.0026
 1259ERGO    C216838  15.094   4.000   7.647  0.0927  0.2001  0.2579
 1260ERGO   ROH16839   6.881   2.616   9.549 -0.0552 -0.0100 -0.0072
 1260ERGO    R116840   6.938   2.457   9.321 -0.1275 -0.0738  0.0176
 1260ERGO    R216841   6.767   2.441   9.104 -0.0925  0.0451 -0.0250
 1260ERGO    R316842   6.989   2.514   8.966  0.0005 -0.1381  0.0266
 1260ERGO    R416843   6.793   2.445   8.759 -0.0456  0.1452 -0.0200
 1260ERGO    R516844   6.995   2.365   8.779 -0.1337 -0.0733 -0.0262
 1260ERGO    C116845   7.016   2.515   8.429  0.0691  0.0315  0.0312
 1260ERGO    C216846   6.896   2.691   8.239  0.1363 -0.2069  0.2067
 1261ERGO   ROH16847   8.424   7.352   8.812 -0.2132  0.1297 -0.1445
 1261ERGO    R116848   8.295   7.250   8.581 -0.0306  0.0942 -0.2328
 1261ERGO    R216849   8.044   7.334   8.502 -0.1428 -0.2155 -0.2126
 1261ERGO    R316850   8.170   7.385   8.267 -0.1768  0.1262 -0.1623
 1261ERGO    R416851   7.886   7.363   8.196 -0.1307 -0.3997 -0.2379
 1261ERGO    R516852   8.051   7.253   8.106  0.1147 -0.0476 -0.2445
 1261ERGO    C116853   7.912   7.428   7.797 -0.1555 -0.1862 -0.2055
 1261ERGO    C216854   7.811   7.448   7.498 -0.1578 -0.1998  0.0283
 1262ERGO   ROH16855  15.480   4.229   9.666  0.0381 -0.1761 -0.0657
 1262ERGO    R116856  15.608   4.226   9.413  0.0158 -0.1539 -0.0783
 1262ERGO    R216857  15.522   4.068   9.204 -0.0465 -0.0816 -0.1119
 1262ERGO    R316858  15.517   4.303   9.070  0.0074 -0.0495 -0.0518
 1262ERGO    R416859  15.565   4.102   8.863 -0.0803 -0.0090 -0.1079
 1262ERGO    R516860  15.685   4.279   8.900 -0.0242 -0.0571 -0.0790
 1262ERGO    C116861  15.585   4.343   8.538 -0.0493  0.0634 -0.0491
 1262ERGO    C216862  15.638   4.438   8.199 -0.1441 -0.1048  0.1736
 1263ERGO   ROH16863   3.890   1.509   9.965 -0.0893  0.1219 -0.0154
 1263ERGO    R116864   3.846   1.564   9.691 -0.0540  0.1203 -0.0216
 1263ERGO    R216865   4.003   1.741   9.548 -0.0058  0.0851 -0.0153
 1263ERGO    R316866   4.034   1.529   9.381 -0.0326  0.0718 -0.0029
 1263ERGO    R416867   3.982   1.756   9.203 -0.2033  0.0296 -0.0064
 1263ERGO    R516868   3.874   1.567   9.206 -0.1420 -0.0033  0.0805
 1263ERGO    C116869   3.998   1.565   8.846 -0.3436 -0.0151  0.0103
 1263ERGO    C216870   3.808   1.377   8.548 -0.0011 -0.1247  0.0010
 1264ERGO   ROH16871   1.270  17.018   6.537  0.1175  0.0098 -0.0938
 1264ERGO    R116872   1.218  17.176   6.766  0.0880  0.1728 -0.2131
 1264ERGO    R216873   1.382  17.175   6.988 -0.0360  0.1984 -0.1292
 1264ERGO    R316874   1.386  17.444   6.946  0.1492  0.1777 -0.2725
 1264ERGO    R416875   1.537  17.406   7.193 -0.2572  0.2270  0.0108
 1264ERGO    R516876   1.367  17.539   7.165 -0.1648  0.2957 -0.3373
 1264ERGO    C116877   1.631  17.792   7.274 -0.2120  0.2242 -0.0423
 1264ERGO    C216878   1.867  17.866   7.400  0.0471  0.0188  0.0450
 1265ERGO   ROH16879   6.390  13.650  10.018  0.0627 -0.2933 -0.0962
 1265ERGO    R116880   6.297  13.712   9.758  0.0269 -0.4554 -0.1216
 1265ERGO    R216881   6.401  13.918   9.607 -0.3379 -0.2237 -0.0581
 1265ERGO    R316882   6.437  13.722   9.422  0.1269 -0.1348 -0.0752
 1265ERGO    R416883   6.392  13.966   9.265 -0.6247 -0.2207 -0.0530
 1265ERGO    R516884   6.284  13.778   9.247 -0.1228 -0.5423 -0.0062
 1265ERGO    C116885   6.421  13.810   8.892 -0.3554 -0.1356 -0.0662
 1265ERGO    C216886   6.366  13.845   8.608 -0.0033 -0.3061 -0.0131
 1266ERGO   ROH16887   5.409  14.450   6.627 -0.2335 -0.0446  0.0057
 1266ERGO    R116888   5.285  14.456   6.881 -0.1904 -0.0556  0.0270
 1266ERGO    R216889   5.107  14.262   6.964 -0.2332 -0.0193  0.0200
 1266ERGO    R316890   5.276  14.242   7.176 -0.2040 -0.1077 -0.0111
 1266ERGO    R416891   5.071  14.037   7.224 -0.2400 -0.0751 -0.0287
 1266ERGO    R516892   5.132  14.195   7.362 -0.1845 -0.1220  0.0002
 1266ERGO    C116893   5.208  13.887   7.574 -0.2166 -0.1904 -0.0863
 1266ERGO    C216894   5.339  13.828   7.818  0.0901 -0.1145  0.2238
 1267ERGO   ROH16895   1.266   9.714  10.708  0.0847 -0.2338 -0.1199
 1267ERGO    R116896   1.312   9.797  10.442  0.2186 -0.0616 -0.0444
 1267ERGO    R216897   1.534   9.717  10.297  0.1235 -0.2356 -0.0928
 1267ERGO    R316898   1.346   9.637  10.116  0.0275  0.1734 -0.1842
 1267ERGO    R416899   1.574   9.726   9.954  0.2062 -0.0659 -0.0795
 1267ERGO    R516900   1.367   9.794   9.936  0.3070  0.2692 -0.0765
 1267ERGO    C116901   1.421   9.657   9.585  0.1643  0.4168 -0.1575
 1267ERGO    C216902   1.369   9.782   9.229 -0.2669  0.1716 -0.1971
 1268ERGO   ROH16903   7.658   5.840   6.360  0.0771 -0.2816 -0.1874
 1268ERGO    R116904   7.514   5.764   6.592  0.1109 -0.1436 -0.1202
 1268ERGO    R216905   7.640   5.695   6.828  0.1468 -0.0397 -0.1084
 1268ERGO    R316906   7.478   5.887   6.933  0.1929  0.0362 -0.1751
 1268ERGO    R416907   7.557   5.723   7.163  0.0176 -0.0031 -0.1425
 1268ERGO    R516908   7.354   5.773   7.103  0.0663  0.0939 -0.2282
 1268ERGO    C116909   7.358   5.920   7.455 -0.0143  0.0895 -0.2250
 1268ERGO    C216910   7.426   6.156   7.680  0.0209  0.2384  0.0582
 1269ERGO   ROH16911   1.973   5.108  10.058  0.3024 -0.0748 -0.1117
 1269ERGO    R116912   1.900   5.023   9.798  0.2911 -0.0132 -0.1274
 1269ERGO    R216913   1.706   5.151   9.648  0.1347 -0.1090  0.0021
 1269ERGO    R316914   1.904   5.164   9.463  0.0595  0.1490 -0.0662
 1269ERGO    R416915   1.665   5.094   9.310  0.0545 -0.0048 -0.0074
 1269ERGO    R516916   1.855   4.988   9.309  0.1580  0.1622 -0.1210
 1269ERGO    C116917   1.828   5.074   8.939 -0.0628  0.2980 -0.0772
 1269ERGO    C216918   1.649   5.163   8.647  0.0684 -0.0558 -0.0616
 1270ERGO   ROH16919   4.861   0.741  10.005  0.2925  0.0169  0.0893
 1270ERGO    R116920   4.862   0.771   9.723  0.1171 -0.0753  0.0778
 1270ERGO    R216921   4.630   0.772   9.573  0.0121  0.0167  0.2374
 1270ERGO    R316922   4.728   1.008   9.482  0.0957 -0.0713  0.0940
 1270ERGO    R416923   4.652   0.862   9.240 -0.0830 -0.1340  0.1889
 1270ERGO    R516924   4.846   0.951   9.282 -0.0192 -0.2159  0.0667
 1270ERGO    C116925   4.756   1.137   8.961 -0.0598 -0.3044  0.0263
 1270ERGO    C216926   4.742   1.193   8.615  0.2487 -0.2007  0.0746
 1271ERGO   ROH16927   9.342   8.197   5.973  0.1082  0.1654 -0.0263
 1271ERGO    R116928   9.565   8.276   6.129  0.1100  0.0018  0.0529
 1271ERGO    R216929   9.564   8.504   6.286  0.2587  0.0598 -0.0397
 1271ERGO    R316930   9.634   8.330   6.483 -0.0073  0.0678  0.0682
 1271ERGO    R416931   9.722   8.592   6.580  0.5417 -0.0036 -0.1681
 1271ERGO    R516932   9.844   8.412   6.562  0.1939 -0.2678 -0.0783
 1271ERGO    C116933   9.880   8.481   6.936  0.4564 -0.0330 -0.1416
 1271ERGO    C216934   9.988   8.573   7.327  0.0541 -0.1047  0.1220
 1272ERGO   ROH16935   9.861   6.512   6.399  0.1223 -0.0819 -0.0491
 1272ERGO    R116936   9.838   6.376   6.647 -0.0908 -0.0203 -0.0336
 1272ERGO    R216937  10.051   6.344   6.819 -0.1733 -0.2145  0.0314
 1272ERGO    R316938   9.881   6.458   6.999 -0.1083 -0.0105 -0.0330
 1272ERGO    R416939  10.110   6.370   7.159 -0.1672 -0.0788  0.0211
 1272ERGO    R516940   9.901   6.321   7.194 -0.2034  0.0745  0.0393
 1272ERGO    C116941   9.986   6.491   7.525 -0.1027  0.1918 -0.0453
 1272ERGO    C216942   9.980   6.650   7.772  0.0499 -0.0504  0.1219
 1273ERGO   ROH16943  10.793   0.420  10.033 -0.0518  0.0633  0.0485
 1273ERGO    R116944  10.786   0.246   9.809  0.0123  0.1612 -0.0300
 1273ERGO    R216945  10.577   0.244   9.628 -0.0629  0.0559  0.0608
 1273ERGO    R316946  10.776   0.282   9.447 -0.1741  0.3216 -0.0118
 1273ERGO    R416947  10.550   0.182   9.290 -0.0040 -0.3495  0.1254
 1273ERGO    R516948  10.752   0.100   9.294  0.1943  0.0986  0.1751
 1273ERGO    C116949  10.721   0.181   8.922 -0.0740 -0.3362  0.0948
 1273ERGO    C216950  10.747   0.139   8.627 -0.2124  0.0206  0.1442
 1274ERGO   ROH16951  15.457  16.720  10.121 -0.0677 -0.0917  0.0741
 1274ERGO    R116952  15.502  16.569   9.886  0.1166  0.0466  0.0193
 1274ERGO    R216953  15.295  16.474   9.729  0.2310 -0.2266  0.0417
 1274ERGO    R316954  15.428  16.605   9.532 -0.0156  0.0372  0.0429
 1274ERGO    R416955  15.273  16.400   9.392  0.1683 -0.1101  0.0194
 1274ERGO    R516956  15.487  16.434   9.375  0.1314  0.1693 -0.0597
 1274ERGO    C116957  15.384  16.481   9.011 -0.0996  0.2051  0.0074
 1274ERGO    C216958  15.420  16.498   8.664  0.1591 -0.0523  0.0941
 1275ERGO   ROH16959   9.333  16.446   6.365  0.2736 -0.0824 -0.2531
 1275ERGO    R116960   9.376  16.559   6.621  0.1071 -0.0462 -0.2400
 1275ERGO    R216961   9.224  16.490   6.841  0.0183 -0.0773 -0.3112
 1275ERGO    R316962   9.467  16.438   6.951 -0.0193  0.0129 -0.1825
 1275ERGO    R416963   9.287  16.469   7.180 -0.1315  0.0617 -0.2732
 1275ERGO    R516964   9.475  16.575   7.147 -0.1368  0.0885 -0.2285
 1275ERGO    C116965   9.552  16.407   7.481 -0.2539  0.2271 -0.1303
 1275ERGO    C216966   9.637  16.524   7.768 -0.1601  0.2255 -0.0509
 1276ERGO   ROH16967  12.435   9.640   9.591 -0.0486 -0.0885  0.1410
 1276ERGO    R116968  12.566   9.578   9.348  0.1467  0.0671  0.2054
 1276ERGO    R216969  12.432   9.561   9.107  0.2675 -0.1927  0.1609
 1276ERGO    R316970  12.619   9.742   9.027  0.0198  0.0860  0.1914
 1276ERGO    R416971  12.553   9.591   8.785  0.4416 -0.1913  0.2245
 1276ERGO    R516972  12.752   9.624   8.868  0.3410  0.2028  0.3555
 1276ERGO    C116973  12.799   9.778   8.522  0.3105  0.0711  0.2901
 1276ERGO    C216974  13.013   9.787   8.250 -0.0572 -0.4385  0.2273
 1277ERGO   ROH16975  11.604   3.926   9.838 -0.0834  0.0375  0.0659
 1277ERGO    R116976  11.524   3.795   9.600 -0.0643  0.0412  0.0551
 1277ERGO    R216977  11.388   3.925   9.397 -0.0523  0.0489  0.0383
 1277ERGO    R316978  11.591   3.830   9.244 -0.0318  0.0541  0.0655
 1277ERGO    R416979  11.377   3.892   9.053 -0.0132 -0.0232  0.0452
 1277ERGO    R516980  11.482   3.702   9.073  0.0115  0.0070  0.0841
 1277ERGO    C116981  11.562   3.784   8.709  0.0287 -0.0605  0.0747
 1277ERGO    C216982  11.583   3.698   8.452  0.1952  0.0047 -0.0292
 1278ERGO   ROH16983   5.719   7.001   6.021 -0.4030  0.1043 -0.0239
 1278ERGO    R116984   5.635   7.123   6.262 -0.2846  0.0021  0.0700
 1278ERGO    R216985   5.508   6.983   6.463 -0.1437 -0.0905  0.0892
 1278ERGO    R316986   5.707   7.086   6.617 -0.0757 -0.1135  0.0187
 1278ERGO    R416987   5.493   7.021   6.806 -0.0543 -0.0280  0.0872
 1278ERGO    R516988   5.592   7.213   6.784 -0.0072 -0.0524  0.0255
 1278ERGO    C116989   5.671   7.140   7.150  0.0616 -0.0132  0.0197
 1278ERGO    C216990   5.509   7.299   7.412  0.1659 -0.2910 -0.1062
 1279ERGO   ROH16991   8.585   8.972   9.662 -0.1533  0.1056  0.1067
 1279ERGO    R116992   8.678   8.881   9.410  0.0899  0.2579  0.1369
 1279ERGO    R216993   8.507   8.807   9.206  0.2700 -0.2183  0.1403
 1279ERGO    R316994   8.651   8.988   9.064 -0.1527  0.1068  0.1077
 1279ERGO    R416995   8.521   8.822   8.861  0.2976 -0.2954  0.1388
 1279ERGO    R516996   8.734   8.865   8.877  0.1965  0.2475  0.1652
 1279ERGO    C116997   8.665   9.000   8.527 -0.0832 -0.0353  0.1074
 1279ERGO    C216998   8.600   9.122   8.259 -0.1179  0.2944 -0.2722
 1280ERGO   ROH16999   3.670   0.562   9.796  0.2050 -0.1287  0.1653
 1280ERGO    R117000   3.570   0.558   9.532  0.0694 -0.0521  0.2166
 1280ERGO    R217001   3.710   0.664   9.318  0.0156 -0.1145  0.1642
 1280ERGO    R317002   3.672   0.416   9.212 -0.1749 -0.0815  0.1456
 1280ERGO    R417003   3.690   0.595   8.980  0.0273 -0.0625  0.1511
 1280ERGO    R517004   3.529   0.454   9.024 -0.1123  0.0639  0.1146
 1280ERGO    C117005   3.642   0.323   8.684 -0.1448 -0.0012  0.1259
 1280ERGO    C217006   3.653   0.383   8.268 -0.2920 -0.0566  0.0095
 1281ERGO   ROH17007   6.069  11.107   6.340  0.0023  0.1384 -0.0591
 1281ERGO    R117008   6.153  11.211   6.589 -0.0288  0.0862 -0.0267
 1281ERGO    R217009   6.126  11.477   6.657  0.0122  0.0830  0.0049
 1281ERGO    R317010   5.997  11.376   6.873 -0.0547  0.0789 -0.0368
 1281ERGO    R417011   6.089  11.640   6.960  0.0771  0.0018  0.0566
 1281ERGO    R517012   6.125  11.450   7.060 -0.0282 -0.0505 -0.0035
 1281ERGO    C117013   5.946  11.639   7.339  0.0520 -0.0494  0.0476
 1281ERGO    C217014   5.896  11.928   7.608 -0.0750  0.0174 -0.1565
 1282ERGO   ROH17015   4.076   2.537   6.255  0.1404 -0.1743  0.0627
 1282ERGO    R117016   3.994   2.630   6.509 -0.0395 -0.1323 -0.0086
 1282ERGO    R217017   4.106   2.537   6.745 -0.1433 -0.0307  0.0824
 1282ERGO    R317018   4.150   2.802   6.790 -0.2600 -0.0027  0.0366
 1282ERGO    R417019   4.140   2.681   7.057  0.1550 -0.0221  0.0492
 1282ERGO    R517020   4.022   2.850   6.987 -0.0475 -0.0961  0.2018
 1282ERGO    C117021   4.201   3.013   7.282  0.2192  0.0091 -0.0131
 1282ERGO    C217022   4.464   3.102   7.335  0.2144 -0.0438  0.0668
 1283ERGO   ROH17023  18.163   9.494   7.151  0.1391 -0.1320  0.0306
 1283ERGO    R117024  18.311   9.678   7.309  0.0935 -0.1075  0.0474
 1283ERGO    R217025  18.222   9.935   7.360  0.0500 -0.1127  0.0325
 1283ERGO    R317026  18.258   9.861   7.619  0.0228 -0.1102  0.0354
 1283ERGO    R417027  18.224  10.151   7.630  0.1170 -0.1067  0.0256
 1283ERGO    R517028  18.389  10.037   7.714  0.0752 -0.1526  0.0313
 1283ERGO    C117029  18.260  10.206   8.030  0.1306 -0.1010  0.0242
 1283ERGO    C217030  18.021  10.419   8.331  0.0088  0.0245  0.0951
 1284ERGO   ROH17031  13.600   5.032   9.341 -0.0552 -0.2059  0.0472
 1284ERGO    R117032  13.471   4.992   9.092 -0.0203 -0.3041  0.0456
 1284ERGO    R217033  13.471   5.182   8.892 -0.2747 -0.2504  0.0988
 1284ERGO    R317034  13.571   4.978   8.742 -0.0252 -0.0859  0.0329
 1284ERGO    R417035  13.498   5.185   8.548 -0.3083 -0.1097  0.0966
 1284ERGO    R517036  13.434   4.977   8.546 -0.0463 -0.1992  0.0432
 1284ERGO    C117037  13.608   4.996   8.206 -0.0936  0.1266  0.0334
 1284ERGO    C217038  13.409   4.985   7.853 -0.0411 -0.0560 -0.0933
 1285ERGO   ROH17039   4.435  17.661   9.879  0.2134  0.0017  0.0354
 1285ERGO    R117040   4.393  17.507   9.646  0.3932  0.0598 -0.0346
 1285ERGO    R217041   4.201  17.571   9.457  0.1442 -0.2156  0.1334
 1285ERGO    R317042   4.412  17.560   9.286  0.0644  0.3273 -0.0205
 1285ERGO    R417043   4.175  17.535   9.115 -0.0500 -0.7454  0.1932
 1285ERGO    R517044   4.346  17.400   9.121  0.4728 -0.1489  0.2391
 1285ERGO    C117045   4.357  17.504   8.755 -0.2380 -0.5442  0.0837
 1285ERGO    C217046   4.399  17.464   8.498 -0.2699  0.1101  0.1228
 1286ERGO   ROH17047   3.726  15.920   6.915 -0.0945  0.1324 -0.0484
 1286ERGO    R117048   3.548  15.897   7.134 -0.0145  0.0648  0.0113
 1286ERGO    R217049   3.410  15.664   7.190 -0.0860  0.0791 -0.0779
 1286ERGO    R317050   3.524  15.694   7.435  0.0323 -0.1176 -0.1086
 1286ERGO    R417051   3.246  15.622   7.492 -0.0376  0.2398 -0.0288
 1286ERGO    R517052   3.354  15.795   7.569  0.2131  0.0811 -0.0309
 1286ERGO    C117053   3.258  15.625   7.897  0.1016  0.1488 -0.0290
 1286ERGO    C217054   3.245  15.668   8.168  0.0733 -0.2072  0.0324
 1287ERGO   ROH17055  14.938  12.495  10.285 -0.1973  0.1407  0.0080
 1287ERGO    R117056  15.016  12.627  10.047  0.1374  0.1947  0.1407
 1287ERGO    R217057  15.244  12.558   9.906 -0.0416 -0.2718  0.0521
 1287ERGO    R317058  15.069  12.535   9.699 -0.1411  0.4095  0.0399
 1287ERGO    R417059  15.331  12.569   9.572 -0.0015 -0.4701  0.0552
 1287ERGO    R517060  15.152  12.688   9.535  0.4004  0.1845  0.0899
 1287ERGO    C117061  15.217  12.555   9.183 -0.0716  0.0542  0.0454
 1287ERGO    C217062  15.104  12.516   8.859 -0.0628  0.4817  0.0969
 1288ERGO   ROH17063  12.374   0.134   6.391 -0.1482 -0.1692 -0.1290
 1288ERGO    R117064  12.405   0.120   6.672 -0.1412 -0.1286 -0.1281
 1288ERGO    R217065  12.504   0.330   6.822 -0.0973 -0.1236 -0.1675
 1288ERGO    R317066  12.274   0.298   6.962 -0.0978 -0.0569 -0.1515
 1288ERGO    R417067  12.465   0.402   7.157 -0.0982  0.0485 -0.2030
 1288ERGO    R517068  12.345   0.221   7.177 -0.0954  0.0541 -0.1108
 1288ERGO    C117069  12.225   0.413   7.484 -0.0992  0.2113 -0.2086
 1288ERGO    C217070  12.266   0.512   7.893 -0.2768 -0.0352  0.2033
 1289ERGO   ROH17071  13.341  12.850  10.239  0.0931  0.1383 -0.0222
 1289ERGO    R117072  13.229  12.903   9.984  0.0818  0.2988  0.0150
 1289ERGO    R217073  13.360  13.055   9.794  0.2809  0.0400 -0.0628
 1289ERGO    R317074  13.317  12.836   9.638 -0.1755  0.0826 -0.0116
 1289ERGO    R417075  13.373  13.054   9.449  0.3954 -0.0889 -0.0587
 1289ERGO    R517076  13.199  12.922   9.447  0.0803  0.3069 -0.0747
 1289ERGO    C117077  13.341  12.849   9.101  0.0334 -0.1240 -0.0083
 1289ERGO    C217078  13.386  12.993   8.893 -0.0577 -0.0223  0.2496
 1290ERGO   ROH17079  13.532  16.209   6.328 -0.2517  0.0081 -0.0082
 1290ERGO    R117080  13.453  16.301   6.584 -0.3025 -0.0751  0.0053
 1290ERGO    R217081  13.334  16.136   6.770  0.0865 -0.2546  0.0996
 1290ERGO    R317082  13.535  16.224   6.930  0.0042  0.1587 -0.0104
 1290ERGO    R417083  13.306  16.188   7.110  0.2210 -0.5760  0.1644
 1290ERGO    R517084  13.427  16.369   7.087 -0.2593 -0.2278  0.1854
 1290ERGO    C117085  13.479  16.301   7.459  0.2220 -0.3755  0.0987
 1290ERGO    C217086  13.296  16.378   7.801  0.2541  0.0140  0.2148
 1291ERGO   ROH17087  15.887  10.335   7.088 -0.2719 -0.2626  0.1363
 1291ERGO    R117088  15.795  10.474   7.316 -0.2387 -0.1728  0.0948
 1291ERGO    R217089  15.780  10.357   7.566 -0.1934 -0.0710  0.1426
 1291ERGO    R317090  15.931  10.571   7.640 -0.1898 -0.0347  0.0347
 1291ERGO    R417091  15.796  10.485   7.886  0.0365 -0.0983  0.1450
 1291ERGO    R517092  15.795  10.686   7.800 -0.0925 -0.0880  0.1607
 1291ERGO    C117093  15.946  10.761   8.143  0.1737 -0.0802  0.0450
 1291ERGO    C217094  15.890  10.685   8.458  0.0049  0.0368  0.2070
 1292ERGO   ROH17095  12.103   4.831   9.455  0.0232 -0.2766  0.0335
 1292ERGO    R117096  11.987   4.706   9.229 -0.1017 -0.1218  0.0111
 1292ERGO    R217097  11.728   4.756   9.147 -0.0404  0.1807 -0.0021
 1292ERGO    R317098  11.848   4.814   8.910  0.0417  0.0724  0.0115
 1292ERGO    R417099  11.561   4.854   8.861  0.0582  0.0760 -0.0966
 1292ERGO    R517100  11.697   4.728   8.745  0.0864  0.0152 -0.0016
 1292ERGO    C117101  11.577   4.964   8.471  0.1926 -0.0867 -0.1391
 1292ERGO    C217102  11.500   4.947   8.135  0.1366  0.0336 -0.3639
 1293ERGO   ROH17103   6.562   2.939   9.768 -0.0123  0.2083  0.0898
 1293ERGO    R117104   6.483   2.858   9.509 -0.0060  0.1313  0.1107
 1293ERGO    R217105   6.232   2.912   9.406  0.0304  0.1980  0.0453
 1293ERGO    R317106   6.375   3.021   9.202  0.1150  0.0501  0.0251
 1293ERGO    R417107   6.122   2.942   9.080  0.1476  0.0211 -0.0112
 1293ERGO    R517108   6.321   2.887   9.012  0.1578 -0.0532  0.0883
 1293ERGO    C117109   6.192   3.062   8.699  0.2953 -0.2209 -0.0632
 1293ERGO    C217110   6.104   3.074   8.406  0.0538 -0.3295 -0.0154
 1294ERGO   ROH17111   0.988   9.291   6.838 -0.2184 -0.0365  0.1384
 1294ERGO    R117112   0.929   9.473   7.048 -0.2219 -0.3089  0.3801
 1294ERGO    R217113   0.918   9.396   7.313  0.4406 -0.5367  0.3615
 1294ERGO    R317114   1.098   9.596   7.345  0.0843 -0.1670  0.1531
 1294ERGO    R417115   0.970   9.569   7.607  0.2107 -0.2007  0.2114
 1294ERGO    R517116   0.989   9.752   7.491 -0.1638 -0.2498  0.0603
 1294ERGO    C117117   1.170   9.858   7.809 -0.2576  0.3421 -0.0716
 1294ERGO    C217118   1.135  10.120   8.035  0.2020 -0.1616 -0.0137
 1295ERGO   ROH17119  12.564   2.142   6.330 -0.2644  0.2099  0.1886
 1295ERGO    R117120  12.739   2.292   6.494 -0.2784  0.2361  0.1804
 1295ERGO    R217121  12.659   2.406   6.732 -0.1671 -0.1797  0.4310
 1295ERGO    R317122  12.870   2.268   6.833  0.1432 -0.0349  0.0056
 1295ERGO    R417123  12.880   2.529   6.967  0.0533 -0.1367  0.2044
 1295ERGO    R517124  13.042   2.433   6.857  0.0009  0.1329 -0.1174
 1295ERGO    C117125  13.208   2.470   7.199  0.4729  0.0243 -0.3269
 1295ERGO    C217126  13.212   2.621   7.461  0.1129  0.1696 -0.0182
 1296ERGO   ROH17127   5.943   1.655   6.254  0.1418 -0.0526 -0.1118
 1296ERGO    R117128   5.905   1.567   6.520  0.0254 -0.0738 -0.1381
 1296ERGO    R217129   6.048   1.357   6.630  0.1510  0.0897 -0.0224
 1296ERGO    R317130   6.107   1.540   6.822 -0.1853  0.1515  0.0322
 1296ERGO    R417131   6.154   1.280   6.950  0.4115  0.1576 -0.0870
 1296ERGO    R517132   6.027   1.441   7.025  0.0709 -0.1255  0.0192
 1296ERGO    C117133   6.270   1.407   7.316  0.2475  0.2551 -0.0733
 1296ERGO    C217134   6.323   1.233   7.616 -0.0663  0.1886  0.2682
 1297ERGO   ROH17135  14.865  16.238   6.166 -0.0454 -0.1346 -0.0846
 1297ERGO    R117136  14.860  16.315   6.439 -0.0854  0.0189 -0.1274
 1297ERGO    R217137  14.629  16.316   6.589 -0.0557 -0.1934 -0.0798
 1297ERGO    R317138  14.775  16.159   6.756  0.1839  0.0910 -0.0160
 1297ERGO    R417139  14.591  16.305   6.933 -0.2142 -0.2754 -0.0993
 1297ERGO    R517140  14.809  16.295   6.951 -0.1900  0.1628  0.0086
 1297ERGO    C117141  14.707  16.152   7.290 -0.0815 -0.0561 -0.0509
 1297ERGO    C217142  14.658  16.208   7.637  0.0023 -0.3410 -0.1122
 1298ERGO   ROH17143   8.203   6.961   9.635  0.2478 -0.0418  0.0315
 1298ERGO    R117144   8.080   6.914   9.385  0.1355 -0.0321  0.0838
 1298ERGO    R217145   7.990   7.120   9.222  0.0738 -0.0240  0.1236
 1298ERGO    R317146   8.148   6.998   9.037 -0.0113 -0.0298  0.0555
 1298ERGO    R417147   7.899   7.056   8.895 -0.0647 -0.0150  0.1607
 1298ERGO    R517148   7.997   6.862   8.910 -0.0701 -0.0188  0.1162
 1298ERGO    C117149   7.993   6.904   8.531 -0.2254 -0.0153  0.1184
 1298ERGO    C217150   8.014   6.645   8.277 -0.1472 -0.1048 -0.1557
 1299ERGO   ROH17151   4.732   2.269   9.942 -0.0316 -0.2640 -0.0925
 1299ERGO    R117152   4.688   2.363   9.678 -0.1735 -0.2606 -0.0687
 1299ERGO    R217153   4.895   2.437   9.510 -0.2819  0.1654 -0.0254
 1299ERGO    R317154   4.779   2.259   9.342  0.0557  0.0007 -0.0915
 1299ERGO    R417155   4.925   2.442   9.166 -0.2566  0.3284 -0.0216
 1299ERGO    R517156   4.714   2.389   9.152 -0.1662 -0.0530 -0.0560
 1299ERGO    C117157   4.834   2.277   8.807  0.0750  0.2686 -0.0815
 1299ERGO    C217158   4.803   2.392   8.538  0.2256 -0.1454 -0.0435
 1300ERGO   ROH17159   4.622   9.523   8.279  0.0634  0.2524  0.0347
 1300ERGO    R117160   4.530   9.342   8.477 -0.0504  0.1842 -0.0788
 1300ERGO    R217161   4.699   9.224   8.662 -0.1324  0.0039 -0.1151
 1300ERGO    R317162   4.523   9.329   8.841 -0.1125 -0.0132 -0.0863
 1300ERGO    R417163   4.714   9.178   9.004 -0.0460  0.0441 -0.1135
 1300ERGO    R517164   4.497   9.158   9.006 -0.0404  0.0003 -0.0620
 1300ERGO    C117165   4.558   9.250   9.371  0.0230  0.0514 -0.0856
 1300ERGO    C217166   4.606   9.135   9.623 -0.1283 -0.0762 -0.2708
 1301ERGO   ROH17167  12.711   5.181   9.597  0.0392  0.0270 -0.0706
 1301ERGO    R117168  12.588   5.236   9.348  0.0412  0.0111 -0.0755
 1301ERGO    R217169  12.655   5.456   9.194 -0.0214  0.0526 -0.0479
 1301ERGO    R317170  12.696   5.268   9.002  0.0610  0.0851 -0.0620
 1301ERGO    R417171  12.559   5.486   8.863 -0.0873  0.0074 -0.0329
 1301ERGO    R517172  12.499   5.277   8.866  0.0371 -0.0266 -0.0332
 1301ERGO    C117173  12.541   5.328   8.491 -0.0484  0.0118 -0.0374
 1301ERGO    C217174  12.507   5.252   8.125  0.4388 -0.0444 -0.0936
 1302ERGO   ROH17175  14.549   3.404   9.841 -0.0607 -0.1858 -0.0752
 1302ERGO    R117176  14.450   3.354   9.581 -0.0391  0.0675 -0.1348
 1302ERGO    R217177  14.457   3.544   9.380  0.2110  0.1813 -0.0218
 1302ERGO    R317178  14.586   3.347   9.243  0.0507  0.1284 -0.1004
 1302ERGO    R417179  14.462   3.513   9.035  0.1998  0.3271 -0.0360
 1302ERGO    R517180  14.441   3.297   9.059  0.0145  0.3318 -0.1305
 1302ERGO    C117181  14.586   3.310   8.707  0.0429  0.3623 -0.1180
 1302ERGO    C217182  14.501   3.278   8.375  0.0653  0.0505 -0.1959
 1303ERGO   ROH17183  15.044  17.601   9.953  0.3424  0.1939  0.1329
 1303ERGO    R117184  15.168  17.495   9.722  0.2637  0.1715  0.1010
 1303ERGO    R217185  15.040  17.317   9.552  0.2477  0.0623  0.2288
 1303ERGO    R317186  15.107  17.500   9.363  0.0693  0.0282  0.1294
 1303ERGO    R417187  15.022  17.265   9.211  0.3357 -0.1606  0.2560
 1303ERGO    R517188  15.210  17.372   9.190  0.2270  0.0332  0.2150
 1303ERGO    C117189  15.075  17.407   8.835  0.2197 -0.3223  0.1783
 1303ERGO    C217190  15.129  17.330   8.534  0.1991 -0.0353  0.0286
 1304ERGO   ROH17191   4.738  15.245   9.931 -0.0140  0.0753  0.0225
 1304ERGO    R117192   4.931  15.379   9.774  0.1185 -0.0136  0.1072
 1304ERGO    R217193   5.148  15.249   9.662 -0.0321 -0.1678 -0.0102
 1304ERGO    R317194   5.054  15.359   9.432  0.0631  0.1123  0.0793
 1304ERGO    R417195   5.308  15.235   9.355 -0.1551 -0.2613 -0.0710
 1304ERGO    R517196   5.249  15.442   9.320  0.1641 -0.1401  0.0613
 1304ERGO    C117197   5.312  15.329   8.961 -0.1374 -0.0527 -0.0224
 1304ERGO    C217198   5.205  15.476   8.650  0.4233 -0.1509 -0.2505
 1305W        W17199  16.092   9.156   1.924 -0.1683  0.1417  0.0950
 1306W        W17200   0.457   4.544   3.100  0.0046  0.0667 -0.1614
 1307W        W17201   3.475   7.439  14.035  0.2540  0.1526 -0.3897
 1308W        W17202   4.628  12.481   2.059  0.0043 -0.2581 -0.3144
 1309W        W17203  14.869   1.975   5.895  0.0021 -0.4230  0.1425
 1310W        W17204  14.430  18.211   4.883  0.0047  0.2352  0.4875
 1311W        W17205  12.067   6.843   5.472 -0.2085  0.0155 -0.0695
 1312W        W17206   4.951   7.484  11.946 -0.1736  0.1114  0.2278
 1313W        W17207   5.889  15.509   0.566 -0.0729 -0.4623 -0.1312
 1314W        W17208   6.896   4.520  10.812  0.0772 -0.1361 -0.0482
 1315W        W17209  16.654   6.193   3.539  0.0211  0.1758 -0.0279
 1316W        W17210   2.372  14.868  14.813 -0.2626 -0.3842  0.3960
 1317W        W17211  14.211  10.784   3.848 -0.0933  0.1064 -0.1128
 1318W        W17212  12.831   1.019   4.859 -0.0580 -0.1309  0.2972
 1319W        W17213   3.789   6.706   0.993  0.2150  0.1431  0.0310
 1320W        W17214   0.098  10.094   0.049  0.1336 -0.0396 -0.0346
 1321W        W17215  17.333  12.999  11.651  0.1507  0.0306  0.0928
 1322W        W17216   2.845   1.266   0.094  0.3291  0.4526  0.3508
 1323W        W17217  15.322   7.104   4.670 -0.2490 -0.0192 -0.0671
 1324W        W17218   2.574   7.674  14.119  0.0971  0.0964 -0.3156
 1325W        W17219   3.735   1.072  13.577 -0.4600  0.3222  0.3269
 1326W        W17220  18.007  12.761   2.649 -0.1680 -0.1483  0.3107
 1327W        W17221   4.258  12.881  12.239 -0.2986  0.0826  0.1163
 1328W        W17222  12.653  11.346  11.038  0.0405  0.1397  0.2299
 1329W        W17223   4.712   5.047  14.493 -0.5318  0.0488  0.1197
 1330W        W17224  10.150  13.163  16.258 -0.1116 -0.1230 -0.0451
 1331W        W17225  16.654   3.176  13.545  0.0157 -0.2412  0.1497
 1332W        W17226  17.333  13.013   6.145 -0.2756  0.0462 -0.2586
 1333W        W17227   7.856   6.298   4.999  0.0127 -0.4883  0.0485
 1334W        W17228   5.575  14.304  14.058  0.0891  0.3008  0.0613
 1335W        W17229   1.983   3.593   4.037  0.0017  0.0795  0.2719
 1336W        W17230   5.958  10.504   3.748  0.3880 -0.0178  0.0001
 1337W        W17231   4.330   8.253  15.503  0.0278  0.0551  0.2711
 1338W        W17232   8.565   7.558   3.387  0.1897 -0.1568  0.0437
 1339W        W17233  15.647   0.885   3.270  0.2810  0.2596 -0.4226
 1340W        W17234   3.690  14.850  13.493  0.0231  0.0699  0.0331
 1341W        W17235  16.563  12.855   5.559  0.3463 -0.2918 -0.1830
 1342W        W17236  12.768   8.772  15.964  0.0283  0.0007  0.1466
 1343W        W17237  15.850  11.952   0.632 -0.0300 -0.1614  0.0601
 1344W        W17238  12.890  15.503   5.894 -0.1007  0.0219 -0.2277
 1345W        W17239  16.276  12.390   3.359  0.0852  0.2914  0.0805
 1346W        W17240   9.502   6.066   0.814  0.0119 -0.1198 -0.0673
 1347W        W17241   9.988   4.381  14.719  0.1285  0.1503 -0.1074
 1348W        W17242   4.730  10.163   2.091 -0.1364 -0.0648 -0.1003
 1349W        W17243  17.327   5.298   2.465  0.2538  0.3687 -0.3766
 1350W        W17244   2.187  17.153   1.014 -0.0072 -0.2502 -0.1102
 1351W        W17245   4.024  12.098   0.118 -0.0675 -0.0715 -0.0466
 1352W        W17246  17.599   2.609   3.685  0.0342 -0.3956  0.0628
 1353W        W17247   1.387   6.221  14.391  0.0630  0.2159  0.1738
 1354W        W17248   8.014  17.346  14.108  0.1232  0.1097  0.2477
 1355W        W17249  13.880   3.228  15.139 -0.2485  0.3970 -0.0328
 1356W        W17250   3.472   7.159   5.606 -0.1653  0.0002 -0.3557
 1357W        W17251  16.052  10.135   0.534  0.1605 -0.0260  0.0444
 1358W        W17252   0.914  12.242  13.689 -0.1878 -0.5044  0.4058
 1359W        W17253  14.354   0.460  13.605 -0.0172  0.1384  0.2794
 1360W        W17254   8.647  12.371  13.755  0.2572 -0.2364  0.0888
 1361W        W17255   7.805   2.536   5.852  0.1657  0.3122 -0.0522
 1362W        W17256   7.606   8.537   2.016 -0.0026  0.0051 -0.2121
 1363W        W17257   9.398   4.259   2.871  0.2792  0.1245  0.1359
 1364W        W17258  15.501   6.333   4.598  0.2203 -0.3661  0.1116
 1365W        W17259  15.876  16.654   4.468  0.0640 -0.0131 -0.2846
 1366W        W17260   4.993   0.256  14.341  0.0103  0.1827 -0.0367
 1367W        W17261   7.000  11.272   4.419 -0.2698 -0.3930 -0.1014
 1368W        W17262   3.700   3.879  13.991  0.3718  0.5090  0.1454
 1369W        W17263  17.011   7.966   4.408 -0.0350 -0.3180 -0.2130
 1370W        W17264   4.857  13.716   3.389  0.2788  0.3115  0.0873
 1371W        W17265   6.559   1.855   4.413 -0.4046 -0.2355 -0.1577
 1372W        W17266   5.923  13.913   4.497  0.1549  0.0871  0.3572
 1373W        W17267  10.920   3.900   1.272 -0.0883  0.0969  0.0287
 1374W        W17268   2.097   0.974   4.459 -0.3658 -0.0443  0.0430
 1375W        W17269  13.022  17.248  14.421 -0.0487  0.0092 -0.4366
 1376W        W17270   8.506   5.340  12.513 -0.2438 -0.2303 -0.2050
 1377W        W17271   1.604  17.831  13.334  0.2427  0.3450  0.1317
 1378W        W17272  17.705  11.906   1.367 -0.2571 -0.0727 -0.0777
 1379W        W17273  10.516   3.471  15.845  0.0397  0.2132 -0.0170
 1380W        W17274   7.297  15.725   5.649  0.1743  0.3913 -0.0090
 1381W        W17275  15.023  12.495  15.487 -0.1986 -0.0209  0.0499
 1382W        W17276   1.088   8.661   3.117 -0.1328 -0.0153 -0.1161
 1383W        W17277  17.008  16.044  13.514  0.2478  0.2633  0.1912
 1384W        W17278  12.277  11.735   0.232 -0.2607  0.2711 -0.1130
 1385W        W17279   5.421  17.008   4.916  0.2043  0.2243  0.0323
 1386W        W17280  13.291  13.172   1.826  0.1524  0.2181 -0.3692
 1387W        W17281   4.905  16.109  12.334 -0.2874  0.1114 -0.0117
 1388W        W17282   5.290  14.730  11.865  0.1017 -0.1512  0.0478
 1389W        W17283   5.321   3.462   1.191  0.0209  0.0723 -0.2847
 1390W        W17284   0.722   9.524   2.942 -0.0577 -0.1304 -0.1977
 1391W        W17285   0.401   1.367  12.342  0.5148 -0.2349 -0.3095
 1392W        W17286   4.560  16.689  13.023 -0.2991 -0.0941  0.0609
 1393W        W17287   7.340  17.220   4.470 -0.2192  0.2638  0.1868
 1394W        W17288   7.864   2.522   4.181 -0.3071 -0.0386 -0.1879
 1395W        W17289  16.068  18.139   2.137 -0.1558  0.0107  0.1671
 1396W        W17290   6.135   3.955  13.459  0.0649  0.0665 -0.1561
 1397W        W17291   6.292   8.150  12.094 -0.0619 -0.2897  0.2724
 1398W        W17292   3.248   5.351   5.054 -0.2552  0.2609  0.1461
 1399W        W17293  10.907   4.490  15.270 -0.1602 -0.0591  0.0558
 1400W        W17294   7.811   7.320   0.052 -0.0021 -0.0501 -0.0367
 1401W        W17295   6.333   5.743  12.174  0.0541 -0.0397 -0.0609
 1402W        W17296  16.079   6.388   0.711  0.2739 -0.1523  0.0615
 1403W        W17297   0.288   4.836   3.469 -0.2437  0.1056 -0.1762
 1404W        W17298   4.334   5.543  16.012 -0.0697  0.0684  0.2202
 1405W        W17299   4.646  17.280  15.633  0.1617 -0.1833 -0.2813
 1406W        W17300  15.942  13.089  16.078  0.0131  0.0567  0.0048
 1407W        W17301   5.510   5.717   2.215 -0.0941 -0.1455 -0.2746
 1408W        W17302  13.604   6.258  11.735  0.5045 -0.2039 -0.0659
 1409W        W17303   6.902   3.845   2.113  0.2035 -0.1319  0.1018
 1410W        W17304   5.832   8.897   4.853 -0.0357 -0.1218  0.2918
 1411W        W17305   7.014   7.090  13.574 -0.0414 -0.0251 -0.6120
 1412W        W17306  13.633  10.851  15.485  0.1177 -0.0509 -0.3382
 1413W        W17307  16.841   4.045  11.501 -0.0601 -0.1358  0.1476
 1414W        W17308   7.432  16.203   4.948 -0.0190  0.0209  0.1826
 1415W        W17309   9.257   9.161   2.503  0.0225  0.0282 -0.2247
 1416W        W17310   0.927   0.299   5.479 -0.0432  0.0986 -0.3268
 1417W        W17311   6.330   4.266   5.752 -0.2999 -0.0398 -0.0463
 1418W        W17312   7.182  17.575   1.024 -0.0811  0.3005 -0.1788
 1419W        W17313   7.847   1.707  12.408  0.1465 -0.2360  0.2955
 1420W        W17314  14.375  16.632  13.782 -0.0434  0.1521  0.0997
 1421W        W17315   5.989  11.867   1.671  0.0664 -0.0798  0.1511
 1422W        W17316   5.729   7.827  13.224 -0.2323 -0.0073 -0.2677
 1423W        W17317  15.638   7.472  14.150  0.0390  0.2102  0.2221
 1424W        W17318   2.594   2.309   4.167 -0.2129 -0.2813 -0.0567
 1425W        W17319   3.012   9.499   0.899 -0.0260  0.0031 -0.2932
 1426W        W17320   5.820   3.549   1.832 -0.2236 -0.2394 -0.2884
 1427W        W17321  17.938   3.307   3.500  0.0948 -0.0089  0.3066
 1428W        W17322  13.829   2.071   3.254  0.1543 -0.3181 -0.1242
 1429W        W17323   9.980   9.467   3.598 -0.0412 -0.1214 -0.2529
 1430W        W17324   8.307  12.318  12.019 -0.0429  0.1739 -0.1718
 1431W        W17325   4.445  14.759  11.731  0.0206 -0.1487  0.1793
 1432W        W17326   0.076  11.878   1.517 -0.0492 -0.1268  0.1427
 1433W        W17327   4.208   1.589   0.064 -0.1237  0.0541  0.2040
 1434W        W17328   8.548  14.823   0.604 -0.0296  0.0127 -0.1498
 1435W        W17329   1.166   3.539  12.965 -0.0183 -0.2990  0.0647
 1436W        W17330   6.221  10.537  14.015  0.0412 -0.2482 -0.0196
 1437W        W17331   9.382   0.403   0.687 -0.0583 -0.1114  0.3060
 1438W        W17332   4.779   9.985   3.208  0.2167  0.2633  0.3286
 1439W        W17333  12.741  11.538  16.354 -0.3444 -0.0665  0.1509
 1440W        W17334  16.956   5.817  11.986 -0.1309  0.0377 -0.3429
 1441W        W17335  15.679   5.449  15.718  0.1628 -0.3689  0.0535
 1442W        W17336   8.329   3.104  14.072 -0.1221  0.1380  0.3264
 1443W        W17337   2.867   3.033  11.001 -0.3529 -0.1141 -0.1059
 1444W        W17338  17.265   2.223  15.252  0.0999  0.1586  0.1183
 1445W        W17339   3.111   7.826  14.162 -0.2243  0.0233  0.3067
 1446W        W17340   3.331   8.656  11.494  0.0978 -0.0883 -0.0724
 1447W        W17341   2.184  11.820  13.366 -0.0761  0.5042 -0.1145
 1448W        W17342  13.072  10.255  15.725  0.1209  0.0606  0.1019
 1449W        W17343   2.260   1.333  13.085 -0.2437  0.1455 -0.0364
 1450W        W17344   3.529  14.297   1.895  0.1484  0.0858  0.1306
 1451W        W17345   4.646   4.396   2.275 -0.2410 -0.0909 -0.2205
 1452W        W17346  16.853   3.431   1.594  0.1256  0.0432 -0.0337
 1453W        W17347  14.066   4.769   5.904 -0.0328  0.1053  0.3705
 1454W        W17348  13.657  10.322   3.235  0.0253  0.1880 -0.2414
 1455W        W17349  18.231   0.710  13.376  0.0584 -0.0482  0.1508
 1456W        W17350  12.519  13.686  14.720 -0.2574 -0.0319 -0.0489
 1457W        W17351   2.183  15.458   5.206  0.5427  0.1659  0.0432
 1458W        W17352  11.356  17.949  14.411  0.0252 -0.0731  0.2554
 1459W        W17353   9.114   2.322   4.803  0.0758 -0.0837 -0.3099
 1460W        W17354  10.847  16.499   0.585  0.3542 -0.1494  0.1001
 1461W        W17355   9.423  14.724  15.880 -0.1425 -0.0319 -0.2947
 1462W        W17356  17.015  15.742  11.704 -0.0400 -0.2301  0.1832
 1463W        W17357  17.964  17.253  15.445 -0.2049  0.0746  0.3301
 1464W        W17358  18.107  11.921   5.437 -0.2057 -0.0108 -0.1234
 1465W        W17359   7.168   7.066  14.718 -0.2230 -0.2563 -0.2753
 1466W        W17360  16.121   6.985  13.520  0.0238 -0.1238  0.2113
 1467W        W17361   3.208   8.343  11.872 -0.1120 -0.2486  0.0766
 1468W        W17362  12.051  16.583  12.092  0.0220  0.2206  0.1374
 1469W        W17363  17.339   6.638   0.425  0.2830 -0.3014 -0.0580
 1470W        W17364   3.990  14.814  16.400  0.2947 -0.2485  0.3324
 1471W        W17365   1.146  13.526   0.518 -0.2804  0.0764 -0.0484
 1472W        W17366  13.109  17.524  16.243  0.1343  0.1793  0.2048
 1473W        W17367  14.155  15.339  13.860 -0.1426  0.0067  0.2311
 1474W        W17368   8.629   2.212   5.083  0.2712  0.1497 -0.0922
 1475W        W17369  17.922   1.239  14.239  0.2897  0.1914  0.0405
 1476W        W17370  12.097   9.847  10.979  0.1977  0.0585  0.2360
 1477W        W17371   2.789   4.072  15.308  0.3747  0.0520  0.0329
 1478W        W17372   4.064  14.663   5.032 -0.0155  0.1924  0.0575
 1479W        W17373  15.892  17.660   5.634 -0.1215 -0.0293  0.1725
 1480W        W17374  14.299   4.298   4.086  0.1377  0.2667  0.0612
 1481W        W17375  17.923  17.381  14.425  0.2944  0.0118 -0.3827
 1482W        W17376   6.499  13.035  15.336  0.2756 -0.1469  0.1137
 1483W        W17377  14.774   3.925   2.405 -0.4727  0.4060 -0.1228
 1484W        W17378   4.980   7.584  15.268 -0.1443 -0.1846  0.0552
 1485W        W17379   1.948  12.720   5.829  0.1714  0.1256 -0.0216
 1486W        W17380   7.091  14.282   4.685 -0.0596  0.0103  0.0936
 1487W        W17381   7.265  15.700   2.270  0.0580 -0.2190 -0.2204
 1488W        W17382   5.049  10.406   5.252  0.6290 -0.0478  0.0843
 1489W        W17383   8.143  13.582  12.504  0.2579 -0.2220  0.2116
 1490W        W17384   0.997  12.054  16.344  0.1821  0.1667  0.0789
 1491W        W17385  11.295   9.841  13.258 -0.1779  0.2191 -0.0987
 1492W        W17386   7.442   1.647   1.484  0.3089 -0.0126 -0.0276
 1493W        W17387   6.076   0.122  11.596  0.1972  0.0008  0.1733
 1494W        W17388  16.860  10.599   6.110 -0.0612 -0.1304  0.1667
 1495W        W17389   0.509   3.974  12.645 -0.0149 -0.0526 -0.2113
 1496W        W17390  10.934  15.890  12.244 -0.1875 -0.0581  0.0904
 1497W        W17391  12.752  17.616  13.671 -0.1756  0.1186 -0.1163
 1498W        W17392   3.271  11.783   4.081  0.0820 -0.0798  0.2504
 1499W        W17393  13.191  15.123   3.692  0.0221 -0.1150  0.0806
 1500W        W17394  10.029  12.175   1.306 -0.0338  0.1217 -0.1707
 1501W        W17395   9.170   6.944   4.945  0.0706 -0.0611  0.0726
 1502W        W17396   7.706   2.460  13.611 -0.0903  0.0358 -0.5321
 1503W        W17397  17.338  16.642   2.238 -0.1850 -0.4688  0.1805
 1504W        W17398   9.711  17.947  13.832  0.2353 -0.1100  0.0391
 1505W        W17399   0.199   5.039  14.020  0.0127  0.0046  0.0368
 1506W        W17400   9.302  16.394  14.363  0.0125  0.0976  0.1521
 1507W        W17401   5.056   1.101  13.700 -0.3335  0.2887 -0.2345
 1508W        W17402   3.833   9.495   1.148 -0.0152 -0.0467  0.0558
 1509W        W17403   6.767   9.973  16.427  0.0068 -0.1665 -0.1734
 1510W        W17404   3.556  17.820   5.413  0.0340 -0.0277  0.0929
 1511W        W17405   4.104   2.965  11.245  0.1031 -0.1020 -0.2899
 1512W        W17406   1.836  17.256   1.976 -0.2211 -0.3749  0.3714
 1513W        W17407   4.329  16.759   0.810 -0.1334 -0.0486 -0.0433
 1514W        W17408   4.456   8.475   3.772  0.2156 -0.2625 -0.0305
 1515W        W17409  13.505   5.896   4.618  0.2792  0.0461 -0.1687
 1516W        W17410  13.851  17.403   3.631  0.2104  0.0063 -0.1792
 1517W        W17411   7.878  18.229  11.856  0.0356  0.0717 -0.0838
 1518W        W17412   6.944   1.940   0.462  0.2910  0.1988  0.3020
 1519W        W17413  11.262  14.377  14.713 -0.0437  0.2964 -0.2334
 1520W        W17414   3.413  15.625  13.124 -0.0231 -0.1617  0.1323
 1521W        W17415  13.802   1.691  13.106 -0.2306  0.3980 -0.2383
 1522W        W17416  13.785  12.808  12.282 -0.0432 -0.0521  0.2301
 1523W        W17417  14.358   1.680  14.546  0.1229 -0.0947 -0.0550
 1524W        W17418   9.093   6.607  15.090  0.2565  0.0813 -0.2154
 1525W        W17419   9.947   0.860  12.155  0.1608 -0.0656 -0.0883
 1526W        W17420  11.735   9.692   4.470 -0.2799  0.2052 -0.2524
 1527W        W17421   7.144  17.496   3.527  0.0225 -0.0310  0.2344
 1528W        W17422  10.252   9.117   3.995  0.0874 -0.0103  0.0209
 1529W        W17423   8.171   5.408   4.391  0.1225 -0.4356 -0.0210
 1530W        W17424   1.273  14.608   1.625  0.1997 -0.3297 -0.1829
 1531W        W17425  15.517  13.038  12.566  0.0733  0.1448 -0.1756
 1532W        W17426  17.041  16.867  15.155 -0.1599 -0.1729  0.0592
 1533W        W17427   2.899  12.370  12.866  0.1963  0.0776 -0.1225
 1534W        W17428   1.417   2.570  13.839 -0.1146 -0.2335 -0.1438
 1535W        W17429  10.871  13.403  14.901 -0.0843 -0.2453  0.1802
 1536W        W17430  17.432  11.628   1.905 -0.3265 -0.0795  0.0246
 1537W        W17431   5.125  13.299   0.898 -0.0736  0.1323  0.2380
 1538W        W17432  14.324  16.558   5.302  0.0627  0.3841 -0.3266
 1539W        W17433   2.485   7.630   4.994 -0.0907  0.1841  0.0351
 1540W        W17434   5.978   7.798  12.826 -0.2838 -0.2224 -0.3368
 1541W        W17435   2.743   6.939   4.187 -0.0245  0.0489  0.0939
 1542W        W17436  17.807  10.896   4.964  0.0304  0.3180  0.0586
 1543W        W17437   7.606   9.093  12.608  0.3604  0.0265 -0.1029
 1544W        W17438  11.292   5.198  10.834 -0.0469 -0.2534  0.0744
 1545W        W17439   3.571  17.334   2.512  0.1504  0.0485  0.0836
 1546W        W17440  12.450  11.017   2.487  0.1037 -0.2431  0.1202
 1547W        W17441  15.408  13.560   3.410 -0.1742  0.1401  0.2067
 1548W        W17442   5.903   2.304  15.353 -0.0291  0.2614  0.1452
 1549W        W17443   4.537  12.064   0.019  0.0142  0.2107 -0.2598
 1550W        W17444   5.191   8.574   2.142  0.0801 -0.3521  0.3010
 1551W        W17445   2.222   8.612   2.490  0.0825  0.0152 -0.0218
 1552W        W17446   1.971   6.624  10.248  0.0811  0.3166  0.3700
 1553W        W17447   8.890   1.414   0.213  0.4501 -0.2487  0.1622
 1554W        W17448   2.785   2.590   3.168 -0.0213 -0.1412 -0.1059
 1555W        W17449   9.607   6.903  11.140 -0.3253  0.2898 -0.0553
 1556W        W17450  13.687  17.395  13.063  0.0478 -0.1857  0.0484
 1557W        W17451  17.536   7.989   2.241 -0.2975  0.3053 -0.1917
 1558W        W17452  17.137   1.742   6.264 -0.0128 -0.0023 -0.1956
 1559W        W17453  10.543   1.066   3.712 -0.0335  0.1013  0.1777
 1560W        W17454  16.034   6.752  15.057 -0.2270 -0.0198  0.2643
 1561W        W17455  10.224   7.685   4.328 -0.1740  0.2647 -0.0026
 1562W        W17456  13.759  12.472  15.229 -0.1258 -0.1307 -0.1615
 1563W        W17457   3.824  17.438  12.686 -0.1449 -0.0277 -0.0412
 1564W        W17458   7.620   0.789   3.158 -0.1106  0.1134  0.1697
 1565W        W17459   4.197  10.022   4.117  0.1850  0.2553 -0.2028
 1566W        W17460  10.550   3.186   0.322 -0.0716 -0.2269 -0.3907
 1567W        W17461   7.304   4.727  11.679 -0.5601  0.0741  0.2671
 1568W        W17462   7.599  17.808   0.063  0.1387 -0.2109  0.2845
 1569W        W17463  12.470   7.123   4.118 -0.0460 -0.2889  0.1870
 1570W        W17464   4.805  14.498  15.094 -0.1406  0.0737 -0.2575
 1571W        W17465   7.648  13.906   3.909 -0.0083 -0.0248  0.0131
 1572W        W17466  10.698   0.724  13.476  0.3053 -0.2883 -0.3573
 1573W        W17467   8.502  13.774   4.501  0.0108 -0.1766  0.1848
 1574W        W17468  11.370  16.221  14.313  0.0816 -0.1971  0.0683
 1575W        W17469   0.388   1.891  14.840 -0.1495  0.1408 -0.0421
 1576W        W17470  17.572   1.741   4.555  0.1986 -0.1611 -0.0363
 1577W        W17471  16.607  15.293   5.754 -0.2642  0.0567 -0.1606
 1578W        W17472  16.262   1.027  13.517 -0.0652  0.0658 -0.0152
 1579W        W17473  15.348   4.426   5.006 -0.1420 -0.3357  0.0730
 1580W        W17474   3.950   6.555   3.356  0.2838  0.3208  0.0978
 1581W        W17475  13.742  14.170   1.965  0.4200  0.1713  0.1485
 1582W        W17476   6.814   8.161  11.802 -0.0062 -0.0341  0.1811
 1583W        W17477   6.996   4.830  14.253  0.2000 -0.2226  0.1803
 1584W        W17478   1.602  10.858   2.822  0.1121  0.3394  0.2968
 1585W        W17479  16.369  13.803   2.529  0.0158  0.3108  0.2219
 1586W        W17480  10.046  11.941  11.390  0.0669 -0.0569 -0.1321
 1587W        W17481   4.647  13.467   0.935 -0.1491  0.0265 -0.0536
 1588W        W17482   8.068   3.776  13.969 -0.1366  0.2456 -0.2348
 1589W        W17483  12.650   7.925   2.294 -0.1858  0.3234 -0.0137
 1590W        W17484  13.752  11.319   3.361  0.0998 -0.1617 -0.0431
 1591W        W17485  17.143  16.769   3.887  0.2284  0.0708  0.0062
 1592W        W17486   5.578  10.992   2.969  0.0512  0.2068  0.1586
 1593W        W17487  11.521  18.076   4.757  0.0070  0.1097 -0.1005
 1594W        W17488   4.566  10.053  11.361 -0.0225 -0.0744 -0.3911
 1595W        W17489   2.854   5.122   4.232  0.0877 -0.0391  0.0909
 1596W        W17490  17.647   3.238   2.650  0.0755  0.1727  0.2042
 1597W        W17491  17.327  13.302  14.499  0.1663  0.1799  0.1813
 1598W        W17492  16.747  13.719   0.709  0.0014  0.1063  0.1225
 1599W        W17493  17.381  12.096  13.280  0.0511 -0.3350  0.4015
 1600W        W17494  17.308   8.990   3.791  0.2900 -0.0799 -0.2557
 1601W        W17495   8.373  16.112   0.946  0.2972  0.1600 -0.0739
 1602W        W17496   3.437   8.786   2.378  0.4333  0.0585 -0.0804
 1603W        W17497  15.412   0.630  13.103  0.0416  0.1958 -0.1948
 1604W        W17498  10.292   8.420   2.326 -0.2034 -0.2721  0.1903
 1605W        W17499  16.491  17.485  14.744  0.0256 -0.3431 -0.0477
 1606W        W17500   5.733  17.074  16.454  0.0526  0.5358  0.0028
 1607W        W17501   2.090   5.094  14.498  0.2854  0.0811 -0.3717
 1608W        W17502  16.641   5.042  13.637 -0.2559 -0.5395 -0.3309
 1609W        W17503  13.415  16.137  13.041  0.0137 -0.2571  0.0563
 1610W        W17504   3.086   7.871   6.423 -0.0895  0.1418 -0.0621
 1611W        W17505  14.077   5.575  12.257 -0.0438  0.1442  0.0437
 1612W        W17506  10.625   9.388  16.040 -0.1279 -0.1938 -0.0020
 1613W        W17507  13.122  12.094  12.137  0.1130 -0.4587  0.1749
 1614W        W17508   9.864   8.773  15.444 -0.0588 -0.3134 -0.0076
 1615W        W17509  13.276   8.526   5.016  0.0261  0.2943  0.3341
 1616W        W17510  16.846   6.620  14.288 -0.1568  0.2483 -0.0523
 1617W        W17511   8.154   5.518  14.636 -0.2848 -0.3495 -0.0241
 1618W        W17512  17.640  10.670   4.115 -0.4893  0.0506  0.2747
 1619W        W17513   1.405  13.421  12.946  0.3454 -0.0483 -0.4092
 1620W        W17514   6.427   6.547  10.836  0.3040 -0.0842  0.0164
 1621W        W17515   8.742  17.892   1.646 -0.2715 -0.2019 -0.1872
 1622W        W17516  11.605   6.261   2.567  0.4750  0.2306  0.0367
 1623W        W17517  14.050   0.152   0.484 -0.2763 -0.2351  0.1266
 1624W        W17518   9.689   4.544  15.887 -0.0105 -0.1717  0.0952
 1625W        W17519   1.338   0.060  13.515  0.1605 -0.0663 -0.0021
 1626W        W17520   0.443   5.669   2.729 -0.0583  0.1869  0.2731
 1627W        W17521   3.335  13.236  16.153  0.0591  0.0216 -0.1221
 1628W        W17522  14.105  14.038  13.757  0.1721  0.0232 -0.0970
 1629W        W17523   5.674  14.312   3.431 -0.1560  0.1734 -0.1814
 1630W        W17524   0.700  18.001  11.627 -0.0124  0.0948 -0.1869
 1631W        W17525   0.032   0.387  13.839 -0.0366 -0.0481  0.0002
 1632W        W17526  14.056   2.301   0.821  0.2292 -0.2738 -0.1299
 1633W        W17527  12.913   0.389  12.704  0.0084 -0.1630 -0.0152
 1634W        W17528  10.575   8.997  10.837 -0.0921  0.4244  0.1913
 1635W        W17529   8.140   8.194   3.526  0.2756  0.2685 -0.0247
 1636W        W17530  14.438  17.893   1.505 -0.0031  0.0444  0.2754
 1637W        W17531  16.839   5.777   5.146 -0.1203  0.3609  0.0600
 1638W        W17532  15.765   4.909   3.674 -0.1432 -0.2909  0.1351
 1639W        W17533   1.010  13.269  14.472 -0.1186 -0.0868  0.1638
 1640W        W17534  13.298   9.813   3.546 -0.1439  0.2593 -0.0299
 1641W        W17535   3.040   6.665   0.161  0.0134 -0.3070 -0.0792
 1642W        W17536   8.966  17.253   2.384 -0.2672  0.2190 -0.0250
 1643W        W17537  11.266  12.068   4.468 -0.0820  0.1211  0.3288
 1644W        W17538   3.451   9.469  13.512 -0.1333 -0.2505 -0.1045
 1645W        W17539   0.446   8.600  11.784  0.0061 -0.2010 -0.2343
 1646W        W17540   2.330  18.062   1.514 -0.0472  0.1390  0.2900
 1647W        W17541   3.801   7.654  13.273  0.3586  0.3143  0.2111
 1648W        W17542   4.395  18.191   3.182 -0.1024 -0.1961 -0.1717
 1649W        W17543   5.268   3.745   3.571  0.2397  0.3159 -0.0871
 1650W        W17544   8.158  11.752  13.195  0.2065 -0.2147  0.2648
 1651W        W17545   9.217   1.901   2.149 -0.2992  0.0819 -0.3265
 1652W        W17546   0.463   3.059  15.958 -0.2372  0.0211 -0.4025
 1653W        W17547  13.952  14.239  15.963  0.1443 -0.1185  0.0807
 1654W        W17548  16.485   3.951   0.397  0.1490  0.0788  0.0062
 1655W        W17549   5.538   0.426  10.677  0.1382  0.2582 -0.1794
 1656W        W17550  16.960  16.846   1.967 -0.0174 -0.0815 -0.1808
 1657W        W17551   4.404  12.030   4.404  0.2322  0.0421 -0.0347
 1658W        W17552   0.713   3.717  11.250  0.0156 -0.1157  0.0729
 1659W        W17553   1.057  16.737   3.647 -0.0078  0.3765 -0.3525
 1660W        W17554   4.217   9.449  16.397 -0.1671  0.1298  0.0716
 1661W        W17555  14.587   9.526  11.642  0.0298 -0.0874 -0.0529
 1662W        W17556   6.798   5.953  14.474  0.1470  0.6575  0.1145
 1663W        W17557  17.438   2.209  14.223 -0.0568 -0.0139  0.0704
 1664W        W17558   2.076  16.405   3.707  0.2155 -0.1468  0.0457
 1665W        W17559   9.917   6.792  14.522 -0.4530  0.0839  0.0623
 1666W        W17560  11.978  13.146  13.307 -0.0075 -0.2624 -0.0472
 1667W        W17561   2.107  13.784  11.127  0.2839 -0.1424 -0.1874
 1668W        W17562  11.947  15.956  10.791 -0.3584 -0.2415 -0.1523
 1669W        W17563   4.811   7.989  15.637 -0.1608  0.1881 -0.1052
 1670W        W17564  17.953   3.066   0.551  0.2370 -0.0803  0.3495
 1671W        W17565   3.508   6.525  15.158  0.0719 -0.1177 -0.0260
 1672W        W17566   6.220   6.791  14.745  0.1009 -0.0288 -0.0082
 1673W        W17567  13.567  17.964   5.231 -0.0196  0.2131  0.1341
 1674W        W17568  10.736  18.208  12.777 -0.0281  0.1513 -0.1726
 1675W        W17569   8.623  17.700  12.159  0.0795 -0.2239 -0.0816
 1676W        W17570   1.510   7.739  16.193 -0.1016  0.5402 -0.0184
 1677W        W17571  11.513   7.542  14.068 -0.0345  0.1218  0.0977
 1678W        W17572   5.880  16.421   6.561  0.2269 -0.0976  0.1593
 1679W        W17573   1.957  12.441   0.741  0.0829  0.2506 -0.0911
 1680W        W17574  14.127   1.766   2.100 -0.0706 -0.1290  0.0529
 1681W        W17575   0.513  17.754  12.037 -0.0079 -0.1300 -0.0299
 1682W        W17576   4.052   9.161  12.319  0.0925  0.0458  0.2506
 1683W        W17577  13.475  17.321   0.851 -0.1285  0.2867  0.1961
 1684W        W17578  16.878   7.861   2.933  0.1976 -0.2509 -0.0878
 1685W        W17579  16.617  14.555   0.234  0.1092  0.0348  0.2176
 1686W        W17580  16.251  16.603   0.245  0.0237  0.1511  0.2017
 1687W        W17581   5.088   8.215   5.027 -0.2807  0.1184  0.4397
 1688W        W17582   6.119   5.604  15.682  0.0504  0.0030 -0.3634
 1689W        W17583   4.097  17.406   4.309  0.1300 -0.1812 -0.2052
 1690W        W17584   9.724   0.735  13.519  0.1944  0.2547 -0.2429
 1691W        W17585   9.414   7.301   5.152  0.2440 -0.0537  0.1985
 1692W        W17586   6.404  14.977   4.957  0.1918 -0.1935 -0.0216
 1693W        W17587  13.165  15.352   3.213  0.1023  0.1582 -0.0012
 1694W        W17588   3.332   4.410   1.110  0.2642  0.2714 -0.2832
 1695W        W17589  10.012  16.834   0.891 -0.2285 -0.0282 -0.3944
 1696W        W17590   5.656   1.812   3.338 -0.0234  0.0976  0.2786
 1697W        W17591   0.173  11.101   1.932 -0.0632  0.1846  0.2626
 1698W        W17592   6.363   1.343   2.827  0.3484 -0.1185  0.3598
 1699W        W17593  13.172   4.814   4.337  0.0036 -0.1169 -0.1121
 1700W        W17594   1.981   6.699   3.718 -0.1201 -0.2627 -0.2173
 1701W        W17595   5.865   8.101   3.357  0.1862 -0.1481  0.0851
 1702W        W17596  15.995   7.341   1.979 -0.0029 -0.0125 -0.1533
 1703W        W17597  10.307   6.069  11.433 -0.0968 -0.2697 -0.3211
 1704W        W17598   1.289   9.539   0.743 -0.1624 -0.1451 -0.0884
 1705W        W17599   8.048  15.746  11.069 -0.1278 -0.1516 -0.2298
 1706W        W17600  17.694  13.261   4.965 -0.0577 -0.2416  0.2955
 1707W        W17601   7.239   3.184  14.899  0.0536 -0.0905 -0.1221
 1708W        W17602  12.393  15.386   2.700 -0.1213 -0.5044  0.1190
 1709W        W17603   6.101  14.042  14.859 -0.0740 -0.1982 -0.1251
 1710W        W17604   8.403  15.504   1.444  0.1429  0.0216  0.1474
 1711W        W17605   3.428   3.980   2.345 -0.0191  0.2678 -0.1482
 1712W        W17606   6.520  14.840  15.351  0.1007  0.1481 -0.3311
 1713W        W17607  14.610   8.119   2.511 -0.0968  0.0931  0.2405
 1714W        W17608  14.399   5.769   0.696  0.1397  0.3538  0.0688
 1715W        W17609  12.538   0.203   0.714  0.0228  0.3064  0.0462
 1716W        W17610   7.638  12.452  12.794 -0.3325 -0.1744  0.2325
 1717W        W17611  15.345   1.953  13.117  0.0304  0.1726  0.1502
 1718W        W17612   4.438   4.209  10.802 -0.2503  0.1787 -0.0416
 1719W        W17613   8.313   1.973   0.654  0.0735  0.0841  0.0320
 1720W        W17614   5.205   5.099  14.370 -0.1107 -0.0823  0.2786
 1721W        W17615   8.790   6.177   2.974 -0.1618 -0.0064  0.1860
 1722W        W17616   7.988  15.054   6.241 -0.0270 -0.2304 -0.0222
 1723W        W17617   8.103   1.269  13.925  0.0294 -0.0106 -0.1663
 1724W        W17618  15.065  15.616  12.284  0.2054 -0.0423 -0.2553
 1725W        W17619  14.506   4.127   1.085  0.2097  0.0716 -0.0561
 1726W        W17620   7.692   9.276   0.912 -0.2143  0.0403  0.0128
 1727W        W17621  10.771  14.452  14.573  0.1560 -0.1453  0.2291
 1728W        W17622  16.251   0.998   3.394 -0.0736  0.1095 -0.1031
 1729W        W17623  12.238  17.479   4.784  0.1118 -0.1007 -0.3029
 1730W        W17624  12.821   4.203  13.841  0.1140  0.0099  0.0206
 1731W        W17625  15.930   8.014   4.383 -0.0479 -0.0340 -0.0722
 1732W        W17626  16.017  11.385   1.845  0.0981  0.1341  0.2326
 1733W        W17627  12.659  15.642  14.608 -0.0660  0.1022  0.4630
 1734W        W17628   2.321   6.304   4.913  0.0829 -0.0086 -0.2058
 1735W        W17629   7.948  16.248   2.620 -0.2203  0.0222  0.0756
 1736W        W17630  15.467  14.318  14.463 -0.2504 -0.1425  0.3516
 1737W        W17631   4.567  10.362   4.036 -0.0636 -0.3346  0.0539
 1738W        W17632  14.499   5.767   2.622 -0.0947 -0.2515 -0.1266
 1739W        W17633  14.367  10.029   5.195  0.2205  0.1153 -0.3270
 1740W        W17634   5.950  16.184  14.236 -0.0442 -0.0987  0.1217
 1741W        W17635  13.570  15.959   2.074 -0.0547 -0.0980 -0.3826
 1742W        W17636  17.397   1.173  14.718  0.0622  0.1069 -0.1068
 1743W        W17637  14.636  11.228  15.399  0.2784  0.0785 -0.0134
 1744W        W17638  14.929  16.613  11.816  0.2721  0.1274  0.0071
 1745W        W17639  11.712   2.222  13.801 -0.1917  0.1737 -0.2586
 1746W        W17640  11.827   7.176  13.250  0.0772 -0.2167  0.0115
 1747W        W17641  11.700  15.678  11.261  0.3425  0.0224  0.0728
 1748W        W17642   3.920  13.923  12.179  0.2574  0.3044 -0.1554
 1749W        W17643   3.581  13.403   2.973 -0.2855  0.0587 -0.1228
 1750W        W17644  13.206  16.337   0.421 -0.0146  0.1004 -0.1257
 1751W        W17645   7.507  13.876   6.016 -0.1028  0.2524 -0.0528
 1752W        W17646  10.537   0.869   0.973 -0.0904 -0.1419 -0.1481
 1753W        W17647   1.669  16.097   3.453 -0.3953 -0.3363 -0.0893
 1754W        W17648   7.390   7.407  13.743  0.0909 -0.0843  0.1187
 1755W        W17649   5.061  17.764  12.030  0.0585  0.0148 -0.2600
 1756W        W17650  16.325   7.297  14.548  0.1622 -0.1431  0.0923
 1757W        W17651   6.091  12.733   4.224 -0.0037  0.0002 -0.2547
 1758W        W17652   8.973  14.778  15.604 -0.2381 -0.2685 -0.2496
 1759W        W17653  10.576   0.947   5.123  0.1874 -0.0578 -0.0598
 1760W        W17654   8.921  13.695   2.074  0.1579  0.0940  0.2990
 1761W        W17655  13.452  17.059   3.368  0.3475  0.0637  0.3393
 1762W        W17656  10.056   2.122   3.143  0.3527 -0.3934 -0.1513
 1763W        W17657   7.141   5.663  14.713 -0.2156 -0.0222 -0.0358
 1764W        W17658   8.726   9.888  11.342 -0.0071 -0.0488 -0.2312
 1765W        W17659  10.795   9.751   5.937 -0.1077 -0.0125  0.0658
 1766W        W17660  15.318  12.969  15.631  0.1258 -0.0527  0.0226
 1767W        W17661   9.088   2.061   0.710  0.2146  0.0581 -0.1931
 1768W        W17662  17.400  15.572   3.125  0.0605  0.1853  0.0214
 1769W        W17663   5.663  16.018   0.392 -0.2322  0.2816 -0.1106
 1770W        W17664   9.849  15.216   5.969 -0.0755  0.3082 -0.0435
 1771W        W17665   0.174  17.067   3.405 -0.1933  0.2605 -0.4296
 1772W        W17666  16.319   6.742   3.446  0.1205 -0.0876  0.0060
 1773W        W17667  10.774  10.353   3.118 -0.2485  0.0168  0.2370
 1774W        W17668  10.162  14.004  11.344  0.3599  0.0624  0.3322
 1775W        W17669   1.557   0.642   1.981 -0.3314 -0.1444  0.2689
 1776W        W17670  16.956  16.347   2.270  0.1965 -0.0284 -0.3851
 1777W        W17671   8.075   2.150  16.220  0.0605  0.2668 -0.0363
 1778W        W17672   5.863   2.471  14.495 -0.2971  0.2781  0.1662
 1779W        W17673   3.716  13.576  12.478 -0.1415 -0.1267 -0.1979
 1780W        W17674  17.069  12.108  11.909  0.1423 -0.0109 -0.0912
 1781W        W17675   3.877   2.070  15.078 -0.1156  0.2176  0.0407
 1782W        W17676   0.214  14.928  13.218 -0.0159 -0.6471  0.0769
 1783W        W17677   8.824  10.976  15.202  0.1625 -0.0772  0.0425
 1784W        W17678  17.100   1.421  12.542 -0.2113  0.2706  0.2066
 1785W        W17679  15.778  15.328   1.022 -0.4528  0.0603  0.1400
 1786W        W17680   3.386  10.958   3.144 -0.0003  0.1092  0.0044
 1787W        W17681   8.979   6.129  10.912 -0.0810  0.1760 -0.0060
 1788W        W17682   4.767   9.375   3.865 -0.2465 -0.0807 -0.1717
 1789W        W17683  14.637   2.231   5.083  0.2680 -0.3508  0.2467
 1790W        W17684   7.031  15.497   1.059  0.1609 -0.2842  0.0464
 1791W        W17685  11.607   8.132  11.261 -0.1760 -0.0544  0.0967
 1792W        W17686   9.754   6.085   2.912  0.0772 -0.2041 -0.2518
 1793W        W17687  11.730   1.707  13.690  0.3212  0.4199 -0.1529
 1794W        W17688   8.631  16.334  13.483  0.3478 -0.2267  0.0013
 1795W        W17689  12.527  11.913  15.632  0.0936  0.0112 -0.0641
 1796W        W17690   5.091  10.517  12.187  0.0701 -0.0161  0.1451
 1797W        W17691  12.815  13.187   3.320 -0.2567  0.1922  0.1119
 1798W        W17692   6.989   0.248  15.201 -0.0252 -0.0107 -0.3679
 1799W        W17693   7.219   6.568   2.516  0.1296  0.1260 -0.0860
 1800W        W17694   2.844   8.048   3.823  0.2955 -0.0601  0.2478
 1801W        W17695   9.210   1.703   3.583  0.2908 -0.1447  0.0292
 1802W        W17696  14.297   7.898  12.905 -0.0452  0.1486  0.1038
 1803W        W17697   1.919   9.766  13.345 -0.1056 -0.0565 -0.0623
 1804W        W17698   2.037  15.996   4.792 -0.2003 -0.1656  0.0021
 1805W        W17699   1.880   7.908  12.665 -0.0690  0.1042 -0.1150
 1806W        W17700  10.905  11.271   3.953  0.2734 -0.0050 -0.1650
 1807W        W17701   2.088   2.740   1.535 -0.0520 -0.1096 -0.1339
 1808W        W17702   4.693   4.234   3.968  0.0427  0.1391 -0.0604
 1809W        W17703   0.007  11.016   4.614  0.0884 -0.3825 -0.1153
 1810W        W17704   4.412   6.679   4.536 -0.4417 -0.0873  0.0721
 1811W        W17705   5.706   0.472   4.601 -0.1905 -0.0900 -0.5423
 1812W        W17706  10.455  10.217  12.648 -0.2391  0.0373  0.0825
 1813W        W17707   3.855  16.910  12.806  0.1387  0.3520  0.2546
 1814W        W17708   4.576  10.736   0.255 -0.1054  0.0704 -0.1282
 1815W        W17709   4.006  13.154   3.859  0.0469 -0.1016  0.0515
 1816W        W17710  11.220   5.284   6.016 -0.2114 -0.0014 -0.2128
 1817W        W17711  13.284  15.255  11.746  0.0525  0.0551  0.0954
 1818W        W17712   0.933  12.736  14.872  0.2412  0.0389  0.0854
 1819W        W17713  16.333  14.179  12.419  0.3880  0.3385 -0.3010
 1820W        W17714   2.634  12.025  15.663 -0.0815 -0.3740  0.0785
 1821W        W17715  15.630  11.497   0.424  0.0697 -0.1953 -0.2184
 1822W        W17716  17.605   2.671  13.096 -0.2083 -0.1654  0.1584
 1823W        W17717   0.476  17.810   4.822  0.2753 -0.0979  0.2773
 1824W        W17718   9.225   7.404  10.896 -0.1029  0.0882 -0.0832
 1825W        W17719   4.975   4.238  14.310 -0.0603 -0.2372  0.1976
 1826W        W17720   8.812   4.802   2.335  0.3338 -0.3786 -0.1108
 1827W        W17721  13.782   8.462   1.110  0.2388 -0.2753  0.0304
 1828W        W17722  13.674   8.153  13.556 -0.3212 -0.2321  0.1006
 1829W        W17723  15.007   3.491  14.252 -0.1458 -0.2389 -0.0022
 1830W        W17724  10.617  16.313   3.849  0.0979  0.2917 -0.1031
 1831W        W17725   7.708   3.362   5.231 -0.0054  0.2889  0.0436
 1832W        W17726   7.664  11.553  13.619  0.1317  0.1520 -0.0336
 1833W        W17727   9.265   5.517   3.243  0.0237 -0.1320 -0.2193
 1834W        W17728   0.150  12.750   4.022 -0.1951 -0.1871 -0.3244
 1835W        W17729   7.926  10.125  14.035  0.2507  0.4120 -0.0938
 1836W        W17730   6.008  15.099  14.073  0.1688  0.0604  0.1654
 1837W        W17731   1.681   2.328  15.605 -0.0408 -0.0096  0.1390
 1838W        W17732  11.318  17.455  14.161 -0.1644 -0.1875 -0.0472
 1839W        W17733  10.458   8.693   5.267  0.2540  0.4046  0.1462
 1840W        W17734   7.395   6.492   0.708  0.1531 -0.0484 -0.0618
 1841W        W17735   2.651   3.050   3.039  0.0752 -0.0452 -0.2019
 1842W        W17736   7.943   3.963  12.595  0.2062  0.0234 -0.3249
 1843W        W17737   7.440  10.109  13.713 -0.2734  0.0745  0.0227
 1844W        W17738  10.227  12.193  15.044 -0.2671 -0.0846 -0.1392
 1845W        W17739   6.690   8.937   4.249 -0.0355  0.0385  0.0087
 1846W        W17740   7.326  17.303  13.459 -0.4127 -0.2236  0.1547
 1847W        W17741  11.006  12.806   4.954  0.1786 -0.0150  0.0255
 1848W        W17742   2.135  11.208  14.472  0.1338 -0.2784 -0.0242
 1849W        W17743   7.225   7.187   4.352  0.2173 -0.0730  0.1016
 1850W        W17744  11.518  12.425  14.792 -0.1508 -0.4095 -0.0521
 1851W        W17745  14.412   9.804   5.617 -0.0742 -0.2090  0.4647
 1852W        W17746  13.392   7.947   3.419 -0.4360 -0.2445 -0.4444
 1853W        W17747  15.723   3.612   3.943 -0.2492 -0.0290  0.1296
 1854W        W17748   0.844  10.686  12.452 -0.3720 -0.1240 -0.2194
 1855W        W17749   3.669   8.387   6.483  0.0112  0.0939  0.3273
 1856W        W17750   1.458  15.387   4.576  0.1733 -0.0039 -0.0407
 1857W        W17751   7.391   2.067  12.233  0.0396 -0.2231 -0.1325
 1858W        W17752  13.127   0.726   0.920  0.0495  0.1507 -0.2114
 1859W        W17753  17.455  12.782   5.457 -0.0639 -0.0733  0.1071
 1860W        W17754   7.381   3.453   6.235  0.1287  0.1283 -0.2807
 1861W        W17755   9.503  16.372  11.759 -0.0015  0.0540 -0.0974
 1862W        W17756  10.968   4.879  12.454  0.1576  0.1948  0.0365
 1863W        W17757  15.498   7.760  13.732 -0.1529 -0.1652 -0.0873
 1864W        W17758   8.034   3.966  11.199 -0.1631 -0.0573 -0.2916
 1865W        W17759   2.040   2.310   1.761  0.0104  0.1499  0.0492
 1866W        W17760   1.388   2.270  14.663  0.1209 -0.0254 -0.0156
 1867W        W17761  17.211  17.023   1.563  0.2987  0.0783  0.0928
 1868W        W17762   4.966  16.454   4.600 -0.3524 -0.2371 -0.2612
 1869W        W17763   8.017  15.339  14.088 -0.2632  0.3799 -0.0285
 1870W        W17764   0.417   0.256   5.199  0.0458  0.0200  0.1503
 1871W        W17765  12.175  12.501  13.200 -0.2388 -0.0032 -0.1822
 1872W        W17766  15.340   1.544  14.096  0.2526  0.0268 -0.2176
 1873W        W17767   1.241  17.074  13.887 -0.2244  0.1356 -0.0489
 1874W        W17768   2.195   3.233  14.104  0.2958  0.1429  0.1823
 1875W        W17769  15.141   0.659   1.111 -0.1420  0.0179  0.2508
 1876W        W17770   3.849   4.175   4.133 -0.4298 -0.1978  0.1203
 1877W        W17771   4.271  16.490   0.323  0.1217 -0.0425 -0.1190
 1878W        W17772   6.018   6.093   4.729 -0.2053  0.2464  0.0411
 1879W        W17773  16.200  16.744  15.438  0.0352  0.2506  0.0055
 1880W        W17774   4.021   0.511   4.209 -0.2124  0.0454 -0.1803
 1881W        W17775   5.290   7.555   3.334  0.2630 -0.2318 -0.4054
 1882W        W17776   1.732  11.330   1.890  0.0624  0.5056  0.0611
 1883W        W17777   7.691   4.620   3.609  0.0869 -0.0487 -0.0531
 1884W        W17778  14.368   0.318  12.498 -0.0575  0.0455  0.0549
 1885W        W17779   4.937  10.364   0.229  0.2362 -0.0724  0.1130
 1886W        W17780   2.561  11.470   1.675  0.0438  0.1106  0.1604
 1887W        W17781   7.857  13.123   4.296 -0.2646 -0.0407  0.0357
 1888W        W17782  16.181  10.885   5.650 -0.1312  0.6249  0.3656
 1889W        W17783  13.540  17.751   4.409  0.2939 -0.3794 -0.1595
 1890W        W17784   1.656  14.449   4.937 -0.1544  0.0289  0.3073
 1891W        W17785   6.050  12.294  15.574 -0.0600 -0.0375  0.3400
 1892W        W17786  14.937  16.562  13.014  0.0937  0.2441  0.1600
 1893W        W17787  12.433   4.960   0.127  0.0471 -0.3099 -0.0669
 1894W        W17788  15.712   1.650   4.919  0.4144  0.0192 -0.0086
 1895W        W17789  10.440  16.208  11.990  0.0720 -0.3679  0.1529
 1896W        W17790   0.837  11.996   1.305 -0.0584 -0.0444  0.1286
 1897W        W17791   1.810  16.731   1.827 -0.4238  0.1644  0.0770
 1898W        W17792   3.717   3.568  10.625 -0.2213  0.0369  0.0854
 1899W        W17793   1.590   8.495  12.700 -0.2713 -0.2916  0.2260
 1900W        W17794   8.655   0.962   0.633 -0.3905  0.0539 -0.0577
 1901W        W17795   6.032   0.961  13.069 -0.2336 -0.2474 -0.1787
 1902W        W17796   1.065   8.365  14.041  0.3200  0.0186  0.0910
 1903W        W17797  16.182  13.541   0.797  0.1801 -0.3594  0.1756
 1904W        W17798   8.056   4.261  11.701  0.1336  0.0237 -0.1283
 1905W        W17799  10.781  17.211   1.197  0.0943  0.0996 -0.0635
 1906W        W17800  17.513  10.716   5.416 -0.2102 -0.0702  0.0871
 1907W        W17801  17.743  10.288  14.801  0.2551  0.0511  0.2012
 1908W        W17802   1.330  10.770  11.986  0.2336 -0.2788 -0.2649
 1909W        W17803  15.483   8.770   5.613  0.1618  0.2543 -0.0609
 1910W        W17804  16.569  10.716  13.033  0.2556  0.0622 -0.0614
 1911W        W17805   2.931  11.627  12.234 -0.1044 -0.2891  0.1546
 1912W        W17806  16.409   5.998   5.477 -0.2300 -0.2131  0.0729
 1913W        W17807   7.397   0.407  14.265 -0.0210  0.0527 -0.0092
 1914W        W17808  17.574  12.429   2.654 -0.2439 -0.1016 -0.2775
 1915W        W17809  14.024   6.156  14.231 -0.0576 -0.4863 -0.0289
 1916W        W17810  10.764  17.565   0.728  0.4340  0.0665 -0.0062
 1917W        W17811  16.504   1.984  14.439 -0.5636 -0.2060 -0.1629
 1918W        W17812   4.266  12.985  14.370  0.0002 -0.0439  0.0226
 1919W        W17813   5.654  11.461  15.463  0.0636 -0.2914 -0.1080
 1920W        W17814  11.823  11.977  16.402 -0.0597 -0.1800 -0.0436
 1921W        W17815   7.023  17.343  11.712 -0.4480  0.0959 -0.1732
 1922W        W17816   3.684  12.704  14.251 -0.2191  0.1865 -0.0090
 1923W        W17817  17.990   4.264   1.450 -0.0605 -0.2714 -0.1463
 1924W        W17818  17.669   6.637   3.134  0.0941  0.1467 -0.0970
 1925W        W17819   6.090  16.870   3.775  0.1158  0.1815 -0.0312
 1926W        W17820   2.102   2.838  15.135 -0.0101  0.0059  0.1986
 1927W        W17821  14.395   8.399  14.076 -0.2258  0.1915  0.0009
 1928W        W17822  14.998   7.374  16.149 -0.0285 -0.0096  0.1980
 1929W        W17823  12.311   9.690  15.919  0.3893  0.0479  0.0787
 1930W        W17824   6.329   9.547  15.753  0.1356  0.0892  0.2383
 1931W        W17825  14.084  17.437  11.819  0.1248 -0.1108  0.1382
 1932W        W17826  16.123   9.909   1.610  0.2654  0.2668 -0.2924
 1933W        W17827   7.670  16.041  11.659  0.1997 -0.1207  0.2583
 1934W        W17828   6.018  14.284   2.443  0.0902  0.0364 -0.1927
 1935W        W17829   8.348   3.579  10.946  0.2613 -0.0177  0.4020
 1936W        W17830  12.291   4.739   2.867 -0.1493  0.3486  0.1030
 1937W        W17831   3.100  14.867  12.505 -0.2050 -0.1799 -0.1921
 1938W        W17832  13.077   5.844  12.334 -0.1875  0.0022 -0.1478
 1939W        W17833  15.714   2.679   2.943  0.1969 -0.2219  0.1144
 1940W        W17834  11.821   2.441   4.812 -0.0718 -0.0214  0.2100
 1941W        W17835   4.334  15.384  14.962 -0.4230 -0.0539  0.0165
 1942W        W17836  15.155  16.180   3.775 -0.1125  0.1637  0.0322
 1943W        W17837  16.987  13.296   1.508  0.0979 -0.2165 -0.1845
 1944W        W17838   1.527  17.137   0.901 -0.2938 -0.2326 -0.1670
 1945W        W17839   6.878   5.032   1.453  0.2780  0.1761  0.1237
 1946W        W17840   1.655   0.748   5.216 -0.3363  0.1250  0.0704
 1947W        W17841   7.792   0.422   1.399 -0.1561  0.2533 -0.0241
 1948W        W17842   9.062   7.686   5.886  0.2170 -0.1544 -0.0613
 1949W        W17843  11.672   2.498  16.057  0.4892  0.0193  0.2042
 1950W        W17844   8.942   8.728   6.071  0.1548 -0.1004  0.0493
 1951W        W17845   8.255  11.079   2.241 -0.0606 -0.3961  0.3024
 1952W        W17846  15.654   6.586   2.695 -0.1684  0.0524 -0.0901
 1953W        W17847   3.171   3.550   5.113  0.2401  0.0815  0.0046
 1954W        W17848   7.892   0.185  15.986 -0.2036  0.3083 -0.0614
 1955W        W17849   4.828   3.059   5.996 -0.0097  0.1065 -0.1743
 1956W        W17850  16.079   3.648  12.057  0.0658  0.1978  0.2489
 1957W        W17851   9.120  14.874   5.508 -0.0783  0.2543  0.0411
 1958W        W17852   7.850  15.315   5.179  0.1709  0.2084 -0.0715
 1959W        W17853  13.613   2.187   0.525 -0.2418  0.3230  0.0309
 1960W        W17854  11.966  16.786  10.969 -0.2983 -0.2205  0.0486
 1961W        W17855  14.473   5.094   0.146  0.2207 -0.2184 -0.0427
 1962W        W17856  12.677   7.062   3.223 -0.2636  0.1994 -0.0667
 1963W        W17857   0.887   0.143  15.220  0.0892 -0.1470 -0.1285
 1964W        W17858   3.612  11.629  15.323  0.2038 -0.2984 -0.0485
 1965W        W17859   1.254  11.599  12.484 -0.0640  0.0783 -0.0054
 1966W        W17860   4.305   9.490  13.292  0.0694 -0.2210 -0.0005
 1967W        W17861   5.275  11.071   3.456 -0.1434 -0.4013  0.1991
 1968W        W17862   1.712  10.353  12.318  0.1256 -0.2888  0.0129
 1969W        W17863   5.972   7.735   1.923  0.0311  0.2716 -0.2406
 1970W        W17864  10.386  15.235  14.221  0.1627  0.1122 -0.0412
 1971W        W17865   4.646   9.084   4.657 -0.0714  0.3091  0.4092
 1972W        W17866   5.352  17.390  13.808 -0.0397  0.1064 -0.1788
 1973W        W17867  11.308  17.768  11.715  0.0677 -0.1243 -0.3549
 1974W        W17868  11.913  16.438   5.514  0.0564 -0.1318  0.0055
 1975W        W17869   1.178   6.091   2.913 -0.2117 -0.2062  0.1146
 1976W        W17870   6.607   4.833  11.251  0.1250  0.3116  0.0903
 1977W        W17871   7.145  12.834  14.477 -0.0007 -0.0206  0.2466
 1978W        W17872  12.481  15.756  14.169  0.0262  0.0610  0.0438
 1979W        W17873   1.632   8.813   4.011 -0.0942 -0.5441 -0.2173
 1980W        W17874   5.537  13.395   0.614 -0.1639  0.0205 -0.2056
 1981W        W17875   2.197   4.296  11.199 -0.1999  0.0797 -0.0754
 1982W        W17876   0.534  15.669  14.282 -0.2010 -0.0244 -0.0973
 1983W        W17877  15.850  10.729   5.144  0.4007 -0.0671  0.0587
 1984W        W17878  14.798   5.948  13.634  0.0859  0.0662 -0.0232
 1985W        W17879   1.913  12.027  11.368  0.1604 -0.0209  0.3697
 1986W        W17880   4.780   4.641  14.859  0.4636  0.0237 -0.0520
 1987W        W17881   5.448   0.044  12.437  0.0462  0.0155 -0.2030
 1988W        W17882  17.528  15.354  16.178 -0.2277 -0.1072 -0.0277
 1989W        W17883  10.217  14.802   4.113  0.2619  0.3858  0.2558
 1990W        W17884   0.908  17.464  11.645 -0.2821 -0.1976 -0.0190
 1991W        W17885  10.841   4.675  11.161 -0.0984  0.0230 -0.2178
 1992W        W17886   1.361  12.008   2.638  0.4456 -0.1310  0.1397
 1993W        W17887  11.589   1.594   1.649 -0.4150  0.0164  0.1661
 1994W        W17888   3.180  12.708   4.487 -0.1182 -0.0018  0.1594
 1995W        W17889   1.666  17.089   3.032 -0.0795 -0.1364  0.0162
 1996W        W17890   9.447   5.060   3.396 -0.0965 -0.1425 -0.0783
 1997W        W17891   2.214  15.901  11.303  0.0145 -0.0528 -0.0388
 1998W        W17892   1.520  13.981   0.444 -0.2062  0.3349  0.0509
 1999W        W17893  12.676  13.321   0.986 -0.0189  0.1921 -0.1378
 2000W        W17894   5.091  10.600  13.195  0.2883 -0.1054 -0.0418
 2001W        W17895   1.180  11.025  15.250  0.0938  0.0464  0.1052
 2002W        W17896   9.190  11.888   1.065  0.0652 -0.0662 -0.0631
 2003W        W17897  12.007   2.774   5.068 -0.0635  0.0614  0.2612
 2004W        W17898  17.257  15.758  14.096  0.1668  0.2822  0.2275
 2005W        W17899  17.901  17.283   5.507 -0.0581 -0.3923 -0.2393
 2006W        W17900   7.753   3.516  12.080 -0.2501  0.0439  0.2361
 2007W        W17901   0.978   8.014   2.674  0.0946 -0.0260  0.1697
 2008W        W17902  17.404  11.859   3.181  0.0582  0.3739 -0.2534
 2009W        W17903  13.676  13.574  11.523 -0.3414 -0.0742 -0.1671
 2010W        W17904   0.763   8.057   4.775 -0.3742  0.1430 -0.2969
 2011W        W17905   8.660   8.881   4.702  0.1380 -0.0560  0.0195
 2012W        W17906   5.443   8.538  13.090 -0.3155  0.2752  0.2633
 2013W        W17907  14.821  14.471   1.072  0.0732 -0.0328 -0.1717
 2014W        W17908   7.873   0.257   0.730  0.1351 -0.3358  0.1330
 2015W        W17909  13.712   2.588  14.401 -0.0797 -0.2961 -0.1239
 2016W        W17910   1.978   8.993   3.600  0.0203  0.2086 -0.0902
 2017W        W17911  12.000  12.895  11.639 -0.0787 -0.0045  0.1103
 2018W        W17912   0.269   6.782  13.879  0.1148 -0.3000 -0.1745
 2019W        W17913  11.264  14.618   4.202  0.1060  0.0297  0.0138
 2020W        W17914  17.212  11.331  14.708 -0.0482 -0.2636  0.0923
 2021W        W17915  12.265   2.159  11.182  0.1679 -0.1301 -0.4076
 2022W        W17916   8.005  12.136   4.157 -0.0817  0.0319  0.2910
 2023W        W17917  16.276  15.196   0.905 -0.0910  0.2857  0.0578
 2024W        W17918   1.002  15.873   2.091 -0.2625 -0.1896  0.2059
 2025W        W17919   8.532   4.843   1.851 -0.0877  0.1435  0.0004
 2026W        W17920   1.189   1.390   2.072  0.0659  0.5886 -0.3216
 2027W        W17921   8.762  10.615   3.305 -0.1423  0.1725  0.1106
 2028W        W17922   2.518   7.649   5.462  0.0855 -0.4687 -0.1851
 2029W        W17923   8.253   7.027   5.811 -0.1217 -0.1750  0.1466
 2030W        W17924   1.198  11.579   4.988  0.1228  0.0362  0.3029
 2031W        W17925  11.290   0.884   3.229  0.1955 -0.1677  0.0974
 2032W        W17926  17.614   3.464   1.762 -0.0167  0.4819  0.1473
 2033W        W17927   6.491   8.267  13.454  0.0873  0.0250 -0.3840
 2034W        W17928   9.350  13.052  13.457 -0.2834 -0.1105  0.1902
 2035W        W17929   9.809   9.545  13.851 -0.0209  0.1447 -0.2846
 2036W        W17930  17.308  16.337   4.629 -0.0843  0.0199  0.1127
 2037W        W17931   7.285   0.296  13.359 -0.1018  0.0788  0.0265
 2038W        W17932   8.431   8.187   0.470  0.3496 -0.3184  0.0118
 2039W        W17933  14.731  14.385  14.020  0.1963  0.1716  0.1193
 2040W        W17934   9.665   7.611   4.279  0.1609  0.2916  0.0228
 2041W        W17935  12.084  14.624   1.384 -0.1301 -0.0478  0.0980
 2042W        W17936  12.127   2.795  14.251 -0.1093 -0.1941  0.1019
 2043W        W17937  12.306   0.357  15.279 -0.1872  0.0096 -0.3070
 2044W        W17938   2.263   2.862  13.726 -0.0310 -0.0274 -0.0034
 2045W        W17939  13.060  10.633   1.829 -0.1510  0.0817 -0.4019
 2046W        W17940   4.250  12.891   4.292  0.2265  0.1755 -0.0436
 2047W        W17941   3.945   7.131   0.569 -0.1032  0.0298  0.0561
 2048W        W17942  12.930   8.242  15.923 -0.3096 -0.0930  0.0869
 2049W        W17943   1.892  12.959   2.344  0.1436  0.0585  0.1578
 2050W        W17944   5.140   3.493  11.091  0.1967 -0.1521 -0.1544
 2051W        W17945   3.932  14.248  15.502  0.0072  0.0868  0.0562
 2052W        W17946   3.584   6.111  13.482 -0.0761  0.1138  0.0346
 2053W        W17947  15.129   2.857  15.841  0.0289  0.2152 -0.1907
 2054W        W17948   9.688  10.535   2.736  0.2719  0.1311  0.1484
 2055W        W17949  10.540   5.044  14.387  0.1496 -0.0144  0.0094
 2056W        W17950  15.514  13.299   0.125  0.0445  0.3101  0.0920
 2057W        W17951  17.982   0.715   5.227  0.0335  0.0514  0.0408
 2058W        W17952  14.829  14.207  12.533  0.0461 -0.1716  0.0968
 2059W        W17953  17.985  12.237   2.468 -0.0996  0.1367 -0.0209
 2060W        W17954  13.097  16.544  16.233 -0.0008  0.0407 -0.3139
 2061W        W17955   4.273  17.707  11.885  0.3087  0.4848 -0.2223
 2062W        W17956   2.545  13.117  14.660  0.3355  0.0155 -0.3868
 2063W        W17957  11.783  10.546  15.661  0.0081 -0.3529 -0.2562
 2064W        W17958  15.841   7.758   0.776  0.0842  0.0497  0.0833
 2065W        W17959   6.699  15.092  14.324  0.1508 -0.0286 -0.0317
 2066W        W17960  11.182  17.881  15.365  0.0331  0.0180  0.0593
 2067W        W17961   9.504  10.890   0.641  0.0499 -0.0262  0.2006
 2068W        W17962   3.997  16.112   5.472 -0.1067  0.0571  0.0819
 2069W        W17963   6.152   8.370  15.833 -0.0626  0.1852  0.0875
 2070W        W17964  10.974  10.821   5.440  0.1064  0.1113  0.0183
 2071W        W17965   7.391  15.580  14.686  0.0647  0.1271 -0.1456
 2072W        W17966   8.515  15.080  13.783  0.0440 -0.0615  0.1809
 2073W        W17967   5.516   7.223  11.451 -0.0622 -0.1359 -0.1534
 2074W        W17968   3.677   1.345  10.933 -0.3172  0.0547  0.4745
 2075W        W17969   1.304  15.187  13.530  0.1631 -0.0142  0.3855
 2076W        W17970  11.824   6.408   1.601 -0.0996  0.1174  0.2976
 2077W        W17971  12.983  16.919   5.415  0.1780 -0.2246  0.2439
 2078W        W17972   6.965  12.629   1.731  0.1840 -0.0700  0.0191
 2079W        W17973   2.154   9.942  14.196  0.0071 -0.1871  0.1957
 2080W        W17974   8.517  18.184   0.615 -0.3425  0.2064 -0.0652
 2081W        W17975   7.357  17.180   2.339 -0.2233 -0.0349 -0.5724
 2082W        W17976   4.491  14.176  12.593  0.1276 -0.0432 -0.0983
 2083W        W17977   0.935  17.281  16.152  0.0338 -0.0978  0.0686
 2084W        W17978   1.709   4.962  16.106  0.0554 -0.1761  0.1195
 2085W        W17979   4.068  17.582  13.547  0.2703 -0.0006  0.1101
 2086W        W17980   6.858  11.457   0.536  0.4764 -0.1413 -0.0483
 2087W        W17981   1.041   6.774   1.683 -0.1481 -0.1373 -0.0822
 2088W        W17982  11.578  11.068   4.778  0.5218 -0.1078 -0.0335
 2089W        W17983  17.177   2.500  12.480  0.0188  0.0293 -0.1958
 2090W        W17984  12.302   4.652  10.669  0.1986  0.1651  0.0072
 2091W        W17985   2.346   3.263   4.129  0.0337  0.0047 -0.2044
 2092W        W17986   8.751   1.088  13.368 -0.3146 -0.1559  0.2643
 2093W        W17987   7.490  12.872   3.242  0.1065 -0.1136 -0.2195
 2094W        W17988  12.270   6.700   0.406  0.0559 -0.2241 -0.1397
 2095W        W17989   9.213  16.799  11.874  0.2706 -0.3309 -0.0896
 2096W        W17990  15.003   2.846  13.578 -0.0242  0.0313 -0.3162
 2097W        W17991  10.890  12.516   0.192 -0.2726 -0.1091 -0.1593
 2098W        W17992  12.700   3.793  14.258  0.0730 -0.2800 -0.1628
 2099W        W17993   5.361   5.523  11.196 -0.0352  0.3563  0.2765
 2100W        W17994  15.139  15.953  15.373 -0.1908  0.2153  0.0072
 2101W        W17995   6.861   4.618  16.434  0.0888 -0.2446 -0.1981
 2102W        W17996  15.291   8.149  14.394 -0.2709  0.0947  0.0147
 2103W        W17997  14.061  12.964  13.520  0.0192  0.1681 -0.0337
 2104W        W17998   3.105  16.406   3.926  0.0388  0.1029 -0.3034
 2105W        W17999   2.470  15.737  14.699  0.0428  0.1956 -0.1689
 2106W        W18000  10.963   2.883   3.956 -0.3448 -0.2474  0.0498
 2107W        W18001   6.747   3.341  13.708 -0.3027 -0.2862  0.0813
 2108W        W18002  10.754   8.266   2.288  0.0855 -0.1990  0.3387
 2109W        W18003   0.230   2.653  15.144  0.1690  0.1438  0.1006
 2110W        W18004   0.665   6.415  12.537 -0.1839 -0.1287  0.3592
 2111W        W18005   9.077   4.528  16.447  0.1813 -0.0534  0.4661
 2112W        W18006   7.563   7.844  11.688  0.1280  0.2987  0.1609
 2113W        W18007   1.053   6.551   4.323  0.0083  0.0002 -0.2526
 2114W        W18008   2.312  11.818   3.054 -0.3403  0.0121  0.0497
 2115W        W18009   3.907   0.101   3.942 -0.2009  0.1046  0.0586
 2116W        W18010  15.206   5.887   4.672  0.3295 -0.0665 -0.3504
 2117W        W18011  16.777  13.814   1.731 -0.3083 -0.0200  0.2359
 2118W        W18012  13.578  10.829   3.463  0.2541  0.3571 -0.2734
 2119W        W18013   8.518   3.586   0.034 -0.1682 -0.1795  0.1970
 2120W        W18014   3.744  14.986  12.405 -0.1691  0.0068 -0.0752
 2121W        W18015  10.462  15.326   6.173 -0.0403 -0.0912  0.1330
 2122W        W18016  14.568  17.275   0.105 -0.1807  0.3469  0.0917
 2123W        W18017   2.469   0.846  16.276 -0.1891  0.1511  0.1299
 2124W        W18018   8.363   2.660   1.700  0.2599 -0.1783 -0.1222
 2125W        W18019   4.007  15.326  14.510 -0.2414 -0.3067 -0.2018
 2126W        W18020   3.684  14.452   1.393  0.0522 -0.0128  0.0523
 2127W        W18021   8.660  16.274   3.142 -0.2856  0.2822  0.0387
 2128W        W18022  13.257   5.620   0.493 -0.3593 -0.0733 -0.1083
 2129W        W18023   7.454  13.191   2.073 -0.0068 -0.0100  0.0486
 2130W        W18024  18.187  14.674   0.150  0.2386 -0.1638 -0.1236
 2131W        W18025  13.446  13.905  11.229 -0.1515 -0.0876 -0.0188
 2132W        W18026  15.603   3.461  13.796 -0.1378  0.1249 -0.2865
 2133W        W18027   1.261   9.239  16.120 -0.1780 -0.1234  0.1473
 2134W        W18028  13.121   7.603  13.837  0.1710 -0.2004 -0.0801
 2135W        W18029  17.623   2.263   4.537 -0.1618  0.3746 -0.3393
 2136W        W18030   5.977   3.506   2.763 -0.2172  0.2996 -0.1243
 2137W        W18031   8.156  16.948  16.344 -0.1117  0.0848  0.2130
 2138W        W18032  18.099   0.587  12.485 -0.0529 -0.0269 -0.0577
 2139W        W18033   2.348   6.593   4.486  0.1209 -0.2711  0.1860
 2140W        W18034  17.144   9.518   3.810 -0.1027 -0.2642  0.1842
 2141W        W18035  11.457   0.189   5.750 -0.1758  0.2433  0.0781
 2142W        W18036   0.218   9.420   0.458  0.2495  0.3143  0.2623
 2143W        W18037  18.183   9.388   4.261  0.3077  0.1608 -0.1254
 2144W        W18038  13.041  14.045   0.358  0.4432 -0.1558 -0.0899
 2145W        W18039   1.721   8.863   5.354  0.0829 -0.3723  0.0533
 2146W        W18040  16.333   8.552   0.154  0.1256 -0.2761  0.0405
 2147W        W18041  12.738  12.127  11.790 -0.4181  0.1831 -0.2426
 2148W        W18042   0.487  17.714   2.781 -0.3443 -0.2535 -0.0482
 2149W        W18043   8.922   7.702  15.720 -0.0423 -0.0851  0.1213
 2150W        W18044   0.149  17.575  12.822  0.1125 -0.0666  0.2453
 2151W        W18045  13.976   4.899   1.538 -0.0815 -0.0793 -0.2826
 2152W        W18046   5.364   3.600   0.310 -0.0551 -0.1394  0.1237
 2153W        W18047  10.767  14.852   4.861 -0.2193  0.0561 -0.0247
 2154W        W18048  17.760   3.675  12.705 -0.0670  0.2144  0.1277
 2155W        W18049  16.172   9.529   1.287 -0.0368 -0.2351 -0.0962
 2156W        W18050  16.536  17.924   4.042 -0.0380 -0.0300  0.0863
 2157W        W18051   9.042   9.134   0.421  0.1550  0.0739 -0.1532
 2158W        W18052   1.391   1.512   0.845 -0.2502 -0.2726  0.0440
 2159W        W18053  15.924  10.127   5.098  0.0082  0.0404  0.0543
 2160W        W18054   7.396   5.079   5.396 -0.3124  0.0056  0.1126
 2161W        W18055   3.452   8.409  15.407  0.0013  0.0158 -0.1744
 2162W        W18056   5.558  14.625  11.408  0.3182  0.2256 -0.0824
 2163W        W18057   7.624   1.628   4.670  0.1242 -0.1381 -0.4285
 2164W        W18058   2.415   1.346  16.174  0.4432 -0.0248  0.3022
 2165W        W18059   3.317   2.130   1.532 -0.1678 -0.2340 -0.2896
 2166W        W18060   6.155   3.184   3.216  0.1873 -0.1452 -0.1155
 2167W        W18061  11.367  10.648  13.848 -0.0624  0.1872  0.2127
 2168W        W18062   8.641  11.648  13.473  0.0026  0.0722  0.1471
 2169W        W18063  16.644   9.480  12.472  0.1043 -0.0262 -0.2562
 2170W        W18064  11.293  14.774   0.795 -0.0856  0.1405 -0.0127
 2171W        W18065   4.486   0.222  11.589  0.0007 -0.0023 -0.0308
 2172W        W18066  15.134   5.217  15.574  0.1206 -0.0314 -0.0374
 2173W        W18067   3.531   0.166  11.586 -0.4658  0.0336 -0.1525
 2174W        W18068   8.569   1.393   4.162  0.0794 -0.0275 -0.0084
 2175W        W18069  11.454   4.204   0.409 -0.1099 -0.0556 -0.0862
 2176W        W18070   1.849   8.070  13.832  0.3431 -0.1074 -0.0343
 2177W        W18071  12.004   7.404   3.237 -0.1484  0.0228  0.0679
 2178W        W18072   3.419  10.603  13.790 -0.1169  0.0356 -0.2337
 2179W        W18073  14.456   7.035   0.809  0.2463 -0.1968 -0.0336
 2180W        W18074  13.727  16.346   4.304  0.2233 -0.3122  0.1309
 2181W        W18075  12.091   6.458   3.370 -0.2150  0.0026 -0.2504
 2182W        W18076  16.911   8.546   3.286 -0.1409  0.3239 -0.0268
 2183W        W18077  18.039  11.842   4.289 -0.4715  0.1414  0.0970
 2184W        W18078   8.912   4.710  15.490  0.1300 -0.0050  0.0924
 2185W        W18079   3.627   9.734   3.337  0.1190  0.1701  0.0660
 2186W        W18080   5.322   0.668  13.701  0.2602  0.0662 -0.3059
 2187W        W18081   3.076   6.030  11.583 -0.4083 -0.2798  0.0982
 2188W        W18082  13.555   1.910   0.932  0.1158 -0.2471  0.1527
 2189W        W18083   0.018  13.483  11.965 -0.0486  0.3156  0.3119
 2190W        W18084  14.961   4.023   1.409  0.1393  0.0491 -0.0240
 2191W        W18085   9.864   4.399  12.187 -0.0059  0.1874  0.0360
 2192W        W18086  14.436   2.151   3.420  0.0462 -0.0402 -0.1333
 2193W        W18087   7.529   3.305  12.461 -0.0851 -0.2026  0.1115
 2194W        W18088   0.584  14.681  14.672  0.1920  0.1086  0.1204
 2195W        W18089   4.500   5.789   4.254  0.0693  0.0259  0.2263
 2196W        W18090   3.099  10.044   5.012  0.1063  0.0080 -0.2750
 2197W        W18091   8.317  17.019  12.880  0.0017  0.0077 -0.1021
 2198W        W18092   9.854   1.952   4.567 -0.2659  0.1603  0.4183
 2199W        W18093   4.447   8.473  13.657  0.1350  0.1957  0.1410
 2200W        W18094  16.510  16.012   5.121  0.0051 -0.0327  0.0647
 2201W        W18095   8.908   8.763  13.073  0.3437  0.0553  0.1928
 2202W        W18096   3.265  13.573   2.221 -0.0723 -0.0677 -0.0780
 2203W        W18097   1.104  14.867  13.972 -0.3059 -0.0857 -0.0094
 2204W        W18098   6.076   9.603  11.733 -0.2603 -0.1140  0.3193
 2205W        W18099  15.356  17.064  11.074 -0.0331  0.1760  0.1026
 2206W        W18100   8.743  16.721   1.150  0.2241  0.0301 -0.0129
 2207W        W18101   1.445  11.131   6.235  0.0395  0.1753 -0.0596
 2208W        W18102  10.689   0.510   3.955 -0.0948 -0.0083  0.2140
 2209W        W18103   9.970   2.811  16.219 -0.2252  0.0389 -0.0287
 2210W        W18104   8.679   0.027  12.360  0.2412 -0.0657  0.2043
 2211W        W18105  12.559   4.241   0.666 -0.0168 -0.1479 -0.3706
 2212W        W18106   2.215  12.698  13.413  0.0101 -0.0647 -0.3516
 2213W        W18107  12.275   8.704  10.022  0.0978  0.1141 -0.0446
 2214W        W18108   8.267   6.698   1.217 -0.2099 -0.0109 -0.0407
 2215W        W18109   7.290   7.410  12.465  0.2074 -0.1191  0.0351
 2216W        W18110   1.226   2.693  14.954 -0.2430  0.1014  0.0238
 2217W        W18111   0.071   8.396   4.062 -0.3122  0.2881 -0.2598
 2218W        W18112   0.217   9.960   0.475 -0.0570 -0.3892  0.1289
 2219W        W18113   8.673   5.764   0.544 -0.0776 -0.0320  0.0540
 2220W        W18114   3.278   7.069  15.836  0.0330 -0.2888  0.0459
 2221W        W18115   2.761  14.608   1.431  0.3944  0.0649  0.2140
 2222W        W18116   3.915  14.117   0.290 -0.1566 -0.1343  0.3615
 2223W        W18117  11.541   2.418  13.319  0.2357 -0.0314 -0.1896
 2224W        W18118  17.406   6.190  13.625 -0.0661  0.1066  0.0100
 2225W        W18119  13.245   4.445   0.326  0.1303  0.1616  0.0998
 2226W        W18120  14.097   5.793   1.756  0.0913 -0.3168 -0.0490
 2227W        W18121   7.221   3.858   1.235 -0.3216  0.0942 -0.1070
 2228W        W18122   2.869   3.869   4.713 -0.3080 -0.1220 -0.3927
 2229W        W18123   4.981   6.432  12.314  0.0658  0.2169 -0.2348
 2230W        W18124  17.046  17.471   0.557 -0.0067 -0.0514 -0.2599
 2231W        W18125   4.194  13.307  16.108  0.0076 -0.0434 -0.0205
 2232W        W18126   4.845   8.785  12.407  0.0518 -0.0279 -0.1754
 2233W        W18127   7.500   8.009   2.020 -0.0206  0.0663 -0.0209
 2234W        W18128  11.280  14.440  13.088 -0.2424 -0.2021 -0.0430
 2235W        W18129   2.140  14.604   0.770  0.1190  0.1479  0.2720
 2236W        W18130   9.413  12.427   2.007  0.0411  0.0701  0.1070
 2237W        W18131   7.748  10.499   3.542  0.2760  0.5242 -0.0380
 2238W        W18132   1.355   7.951  13.970  0.2548 -0.2455  0.1442
 2239W        W18133  12.083   6.777  14.232  0.0179  0.2082 -0.0135
 2240W        W18134  18.147  11.835   3.684 -0.0236  0.1464 -0.1620
 2241W        W18135   3.254   9.721  12.532 -0.2470  0.1010 -0.0640
 2242W        W18136  15.024   5.251   5.134 -0.3082 -0.2965 -0.1269
 2243W        W18137   7.580  14.428  12.120 -0.0227 -0.1526 -0.1353
 2244W        W18138   6.373   8.176   3.799 -0.0997  0.1253 -0.0592
 2245W        W18139   0.058   9.082   0.073 -0.0901 -0.0197 -0.1390
 2246W        W18140   2.885   5.428  14.079  0.2130  0.2324  0.1177
 2247W        W18141  13.518  14.561  14.028  0.1180 -0.0034  0.2783
 2248W        W18142   3.537   3.304  15.696  0.0455 -0.0090  0.0110
 2249W        W18143   5.323   3.054   5.118  0.2695  0.0570 -0.0168
 2250W        W18144   5.133   2.491  16.314 -0.0972 -0.3663 -0.1618
 2251W        W18145  12.120  14.510   5.271 -0.0530 -0.3846 -0.5622
 2252W        W18146   9.170   8.559   3.091  0.1317  0.0721 -0.2052
 2253W        W18147  17.324   6.571  16.344  0.0314 -0.1015  0.2609
 2254W        W18148  12.157   2.068   2.426  0.3068  0.0753  0.0385
 2255W        W18149   2.084   2.458   5.685  0.1400  0.2298  0.1438
 2256W        W18150   5.031  11.327  14.477  0.4504 -0.0843 -0.0923
 2257W        W18151   2.285   9.187  12.530 -0.1271  0.0815  0.1852
 2258W        W18152   0.697   9.347   1.621 -0.1784 -0.1425 -0.2537
 2259W        W18153   6.694  13.725   3.530 -0.2021 -0.1833 -0.0719
 2260W        W18154  14.528   6.554  14.325 -0.1402  0.0904  0.1619
 2261W        W18155  10.567  14.125   0.974  0.0433 -0.0480  0.2087
 2262W        W18156   0.853   2.919  11.850 -0.0640 -0.0034 -0.0445
 2263W        W18157   1.230  10.245  12.027 -0.1159  0.2798  0.2354
 2264W        W18158   7.910   3.038   4.186 -0.1192  0.1193  0.1657
 2265W        W18159  12.208  12.957   0.631 -0.0141  0.0924 -0.1832
 2266W        W18160  14.472   2.839   1.431  0.0633  0.0205  0.1156
 2267W        W18161   6.546   9.736  14.132  0.4042 -0.2160 -0.1506
 2268W        W18162   9.680  13.283  16.434 -0.2332  0.1038 -0.0897
 2269W        W18163   2.480   9.230   1.416  0.4164  0.0723  0.1425
 2270W        W18164  14.596   4.410   4.523  0.1439  0.0386  0.1866
 2271W        W18165  10.385  14.436   4.502  0.1386  0.1227  0.1239
 2272W        W18166   0.653  14.802  12.995 -0.2652  0.2066 -0.2649
 2273W        W18167  11.446  14.478  16.412 -0.1415  0.1037  0.2798
 2274W        W18168   4.115   3.979   2.052  0.2186 -0.1907  0.0037
 2275W        W18169  15.882  11.172  13.537 -0.2991  0.0214  0.0635
 2276W        W18170   5.750   6.666  14.588 -0.0250 -0.1832  0.1111
 2277W        W18171   1.710  15.004   1.945 -0.2738  0.1744 -0.0724
 2278W        W18172   6.224   1.116   3.565  0.0049 -0.1849 -0.3258
 2279W        W18173   9.610  12.011   1.499 -0.0272  0.0452  0.0910
 2280W        W18174   8.446   9.605  10.224  0.1527 -0.3440 -0.2818
 2281W        W18175   5.557  14.211   6.013 -0.0027  0.0884 -0.1454
 2282W        W18176   1.016   4.902  15.647  0.1026 -0.2789 -0.2730
 2283W        W18177  17.776   7.240  16.193  0.1935 -0.3927  0.4947
 2284W        W18178   2.159   0.718   4.916  0.1607  0.0551 -0.2591
 2285W        W18179  17.037   2.304  11.488 -0.2062  0.0832 -0.0042
 2286W        W18180   2.466  15.685   4.901 -0.0772  0.1589 -0.3603
 2287W        W18181   6.554   0.131   1.334  0.4314  0.0902  0.1936
 2288W        W18182  12.581   3.062   4.510  0.1222 -0.2053  0.2766
 2289W        W18183   1.214  17.773  12.628  0.0970  0.2267  0.0742
 2290W        W18184   3.752   9.200   5.177 -0.3328  0.3687 -0.1076
 2291W        W18185  18.141   2.916   2.652 -0.0353  0.1863  0.2304
 2292W        W18186  14.842   1.851  15.554 -0.0608 -0.1763  0.0569
 2293W        W18187   6.815  15.041   5.322  0.0984 -0.1779 -0.0312
 2294W        W18188   5.842   4.052  11.738 -0.0715  0.2343  0.2782
 2295W        W18189  11.769  17.797   3.406  0.1470  0.3404 -0.2671
 2296W        W18190   4.102  16.323   3.918  0.2359  0.0982 -0.0853
 2297W        W18191  16.808   1.745   1.790  0.0705 -0.0682 -0.0757
 2298W        W18192   3.232   3.896  13.065  0.1230 -0.0781 -0.0330
 2299W        W18193   0.985   3.258   5.359 -0.1649  0.0530 -0.1167
 2300W        W18194   6.091   4.277  12.632 -0.1263  0.3765  0.0581
 2301W        W18195   2.707   0.826   0.549 -0.2601  0.2244 -0.3689
 2302W        W18196  10.382   1.294  11.425  0.0403  0.3284 -0.4346
 2303W        W18197   1.921   6.152  14.337  0.1188  0.2069 -0.1531
 2304W        W18198   5.671  11.953   0.360 -0.2916  0.4777 -0.0321
 2305W        W18199   7.385  16.313  13.405  0.0118 -0.0864  0.0403
 2306W        W18200  17.388  14.307  15.444 -0.3239 -0.0073 -0.0846
 2307W        W18201   6.062  16.891  12.909 -0.1696 -0.2224 -0.0614
 2308W        W18202   1.340   8.378  12.285 -0.0505 -0.1836  0.1878
 2309W        W18203  13.347   8.440   1.469  0.0105 -0.0497 -0.2572
 2310W        W18204   8.859  14.233  12.345 -0.0117 -0.3691  0.0451
 2311W        W18205  11.023  10.029  10.416 -0.1478 -0.1214 -0.1571
 2312W        W18206  10.233   5.367   5.035 -0.0108 -0.2600 -0.0874
 2313W        W18207   9.287   2.256  12.952 -0.3137 -0.1070 -0.2263
 2314W        W18208   9.439  13.707  12.686 -0.2375  0.2322  0.1327
 2315W        W18209   2.983   2.245   2.834 -0.1741  0.0412  0.2000
 2316W        W18210   4.408   5.998  13.027 -0.1919  0.1749  0.1291
 2317W        W18211  17.359  15.898   3.491 -0.1485 -0.0932 -0.1632
 2318W        W18212   6.373  10.148   3.846  0.2858  0.0851 -0.1599
 2319W        W18213  11.011  17.250  15.130  0.1030  0.0074  0.0315
 2320W        W18214  15.916  11.937  13.059 -0.0735  0.0020  0.0784
 2321W        W18215   8.963   4.511   3.879 -0.0694 -0.0588  0.0924
 2322W        W18216   3.995   3.589  11.843  0.1569  0.2391  0.0008
 2323W        W18217  12.463  11.142   1.118 -0.1312 -0.1211 -0.0813
 2324W        W18218   9.451   7.593  15.149  0.2033 -0.1524  0.1239
 2325W        W18219   7.410   5.912   2.900  0.0071  0.0634  0.1721
 2326W        W18220  17.600   9.353   0.783 -0.4474  0.1952 -0.0876
 2327W        W18221  14.029  17.650   2.884 -0.2433  0.4465  0.0627
 2328W        W18222   0.161  13.083   2.007  0.0991  0.0722  0.1133
 2329W        W18223   3.437   4.478  15.493 -0.2802  0.2337  0.0765
 2330W        W18224   0.996  10.098   4.450  0.1098  0.0858  0.1189
 2331W        W18225  15.770   3.039  10.356  0.1237 -0.0357  0.1113
 2332W        W18226   8.326   1.519   1.111 -0.0697 -0.1004 -0.0027
 2333W        W18227  14.918  16.958   0.534  0.0544 -0.1057 -0.0963
 2334W        W18228   9.346   4.054  11.100  0.0534  0.0346 -0.3507
 2335W        W18229  14.584   7.794   2.100 -0.3105 -0.2768 -0.0395
 2336W        W18230   2.679   2.783  14.837  0.5076 -0.0033 -0.0596
 2337W        W18231   2.817   9.209  11.616 -0.2365  0.0688 -0.0838
 2338W        W18232  12.457   0.599   4.508 -0.1292  0.2014  0.0641
 2339W        W18233  11.747   3.895   2.345  0.1405  0.2712 -0.0885
 2340W        W18234  13.118   5.634   2.859  0.1048  0.2541  0.2781
 2341W        W18235   1.196   5.048   4.138 -0.2855 -0.3748 -0.2949
 2342W        W18236  17.884   2.135  15.131  0.2000 -0.1924 -0.5849
 2343W        W18237   5.659   4.315   2.302 -0.1233 -0.1991 -0.1548
 2344W        W18238   7.508  17.945  11.689  0.0388  0.1637  0.0663
 2345W        W18239  17.410   1.115  12.280 -0.2372  0.0408  0.2163
 2346W        W18240  14.394  14.332  12.286 -0.1666  0.0515  0.0305
 2347W        W18241   3.594  17.150  15.604  0.0995 -0.1896 -0.2451
 2348W        W18242  17.424  11.342  15.585 -0.2914  0.0214  0.1013
 2349W        W18243  12.160  11.041  13.461 -0.0452 -0.1024  0.0074
 2350W        W18244   9.106  14.175   3.852  0.0217 -0.1709 -0.0316
 2351W        W18245   7.819   9.511   3.763  0.1554  0.2004  0.1223
 2352W        W18246   5.253   9.029   1.911 -0.1510  0.0302  0.0459
 2353W        W18247   0.405   4.612  13.784 -0.1240 -0.0431  0.1167
 2354W        W18248   1.720   5.316  16.452 -0.1539 -0.0209  0.1077
 2355W        W18249  10.418  16.676  15.681  0.0544 -0.4432  0.1268
 2356W        W18250   8.767  10.470   1.616  0.0044  0.0963 -0.0731
 2357W        W18251  16.672   1.737   0.503  0.0568  0.0067 -0.0769
 2358W        W18252  11.648   2.843   1.750 -0.2439 -0.0852 -0.1537
 2359W        W18253   2.988   5.811   3.106 -0.0596  0.3552 -0.2033
 2360W        W18254  15.164   0.278  13.473  0.3593 -0.2032 -0.0503
 2361W        W18255   2.109   9.820   4.099  0.1015 -0.0307  0.1608
 2362W        W18256   9.395   2.378  15.592 -0.0820  0.1086  0.2404
 2363W        W18257   5.347   1.696  11.432  0.0057  0.1458  0.3275
 2364W        W18258   5.851   7.130   4.732 -0.2655 -0.2411  0.4286
 2365W        W18259   9.285   0.111   3.076 -0.2130  0.0958  0.1751
 2366W        W18260  16.741  16.864  14.618  0.3770  0.1312 -0.0269
 2367W        W18261   6.206  10.838   0.586  0.0210  0.0234  0.0187
 2368W        W18262   9.811   3.081  12.546  0.2774 -0.2789 -0.1511
 2369W        W18263  13.047   2.349  15.595 -0.3194  0.1414  0.5342
 2370W        W18264   1.407  17.809  11.217  0.0621 -0.3641 -0.1273
 2371W        W18265  12.259   2.665  15.453 -0.0822 -0.0887 -0.2562
 2372W        W18266   5.639   0.499  16.011 -0.2153  0.0516  0.1258
 2373W        W18267  10.351   2.190   3.923 -0.2474 -0.0582  0.0407
 2374W        W18268  16.044  14.637   2.116  0.0043  0.4861  0.1334
 2375W        W18269  16.740   4.630   1.219  0.3495 -0.2076 -0.3993
 2376W        W18270   8.042   4.441   2.854  0.3448 -0.0680 -0.2342
 2377W        W18271   3.644   4.768  11.907  0.0972  0.1579  0.1944
 2378W        W18272   9.025   2.682  13.073 -0.2841  0.1273 -0.2188
 2379W        W18273   4.444  11.651   2.303  0.0297  0.0645  0.1160
 2380W        W18274   7.793   9.724  11.069  0.0711 -0.1330 -0.2275
 2381W        W18275   3.661   6.658   4.743  0.0554  0.2476 -0.1513
 2382W        W18276  10.320   0.380  12.072 -0.0349 -0.0475  0.0735
 2383W        W18277   4.389  14.803  16.072 -0.1961 -0.0100  0.0789
 2384W        W18278   5.840  13.794   0.599  0.1374 -0.0992  0.1893
 2385W        W18279   2.317   7.734  14.643 -0.2415 -0.2229  0.0149
 2386W        W18280  13.659  13.597  12.861 -0.1343 -0.1376  0.1504
 2387W        W18281  11.619  13.220  15.469 -0.1334  0.0644 -0.2460
 2388W        W18282   8.624  10.809   2.755  0.0256 -0.0964 -0.0846
 2389W        W18283   1.656   3.118   0.962 -0.0459 -0.2378 -0.0547
 2390W        W18284   3.894  15.128   5.098 -0.1146 -0.1116 -0.3696
 2391W        W18285   6.626  16.743   3.856 -0.0461 -0.0825  0.1349
 2392W        W18286  12.492  13.676   2.214 -0.4015  0.5764 -0.0948
 2393W        W18287  10.483  11.686  11.705 -0.0416  0.0949 -0.2328
 2394W        W18288   2.518   2.889   2.156  0.0468 -0.1766  0.2354
 2395W        W18289   0.595   1.211   2.945  0.2237  0.0615 -0.1733
 2396W        W18290   9.044   3.522   5.498 -0.1029  0.5031  0.0170
 2397W        W18291  13.533   9.306   3.984 -0.3271 -0.0188  0.0843
 2398W        W18292   6.233   0.025   4.366  0.0783 -0.1331  0.2993
 2399W        W18293   1.944   3.163   4.375  0.1341 -0.0456 -0.1180
 2400W        W18294   8.893   0.645   5.802 -0.0044 -0.0179 -0.0852
 2401W        W18295  12.627   5.281   3.613  0.1816 -0.1151 -0.1295
 2402W        W18296   5.857   5.608   1.818 -0.0772 -0.1754 -0.1101
 2403W        W18297   8.308  10.462   1.070  0.1450 -0.1868 -0.0644
 2404W        W18298  11.531  16.376   3.309 -0.2278 -0.0868 -0.1873
 2405W        W18299   9.035   0.785   3.399 -0.1491  0.1272 -0.4927
 2406W        W18300   4.624  10.756  11.976  0.1988  0.1035  0.0027
 2407W        W18301  11.675   3.373   4.594  0.1410  0.1011 -0.1141
 2408W        W18302   0.439   0.746  12.411 -0.1041  0.0728 -0.0155
 2409W        W18303   1.027  17.094   3.139 -0.0311  0.0172  0.1336
 2410W        W18304   4.756  17.239   1.047 -0.0083 -0.2998 -0.2005
 2411W        W18305   6.217  16.912   5.222 -0.2300 -0.0039 -0.1661
 2412W        W18306  16.369   4.264   2.259  0.1995 -0.2519 -0.2142
 2413W        W18307   7.807   0.339  14.897 -0.1350 -0.1747  0.2417
 2414W        W18308  10.120  16.503   4.780  0.1436  0.0503  0.1458
 2415W        W18309   7.883   7.136  15.909 -0.0999  0.1812  0.2741
 2416W        W18310  13.779   8.401  12.142  0.1576  0.1539  0.2443
 2417W        W18311  16.921   4.272   4.012 -0.0176 -0.0909 -0.0917
 2418W        W18312  11.957   8.591   1.582  0.5315  0.1032  0.0037
 2419W        W18313   0.995  10.077   3.609 -0.2767 -0.2423  0.1749
 2420W        W18314   6.120  17.274  15.664  0.4251 -0.3781 -0.3197
 2421W        W18315   2.529  15.127   0.806 -0.0796  0.1437  0.3778
 2422W        W18316  15.331   8.216   2.976  0.1581 -0.4405  0.0303
 2423W        W18317  17.516   1.387  13.362  0.2916 -0.0852  0.1038
 2424W        W18318  14.496   5.545  11.845 -0.2240 -0.0943  0.0790
 2425W        W18319   4.957   5.347   1.999  0.4049 -0.1087  0.4391
 2426W        W18320  12.756   4.023  14.787  0.0837  0.2357  0.0114
 2427W        W18321   0.132   3.789  14.173 -0.3057  0.0069  0.0208
 2428W        W18322   1.528  14.563  11.405 -0.0110  0.2021  0.1377
 2429W        W18323  11.684  10.294   2.679 -0.1157 -0.1881  0.1080
 2430W        W18324   3.560   9.767   4.627 -0.0192 -0.0326  0.0321
 2431W        W18325  13.599  17.769   3.185 -0.1860  0.0003  0.0772
 2432W        W18326  16.302   7.127  15.304  0.1029 -0.0551  0.2424
 2433W        W18327  11.767  16.266  15.283 -0.0113  0.0004  0.2329
 2434W        W18328   2.304   9.382   4.326  0.0927 -0.2233 -0.0053
 2435W        W18329   2.894   1.574   4.447  0.1421  0.0869 -0.0260
 2436W        W18330   1.182  13.643   1.310  0.1240 -0.4362 -0.0495
 2437W        W18331   2.576  17.864   4.135  0.5798  0.3357 -0.2991
 2438W        W18332  14.206   1.455  11.322  0.2764 -0.0604  0.4490
 2439W        W18333  14.062   7.984  14.298  0.0594 -0.2057 -0.5478
 2440W        W18334   3.698  10.236   0.699  0.0973  0.1418  0.0610
 2441W        W18335  13.880   1.475   0.929  0.2046 -0.2043  0.0293
 2442W        W18336   3.123  14.970  13.771  0.1403  0.1662  0.0767
 2443W        W18337   0.206   8.670   5.531  0.0071  0.0002  0.1692
 2444W        W18338   5.478   3.941   5.587 -0.2524 -0.1095  0.0726
 2445W        W18339  17.750  10.069   2.738  0.0075  0.1424  0.0048
 2446W        W18340  17.136   8.123  12.660 -0.1906 -0.1916  0.0166
 2447W        W18341  17.017   9.865   1.370  0.0691 -0.0274  0.2337
 2448W        W18342  14.446  16.595  11.636 -0.0065  0.1588 -0.2137
 2449W        W18343  10.676   0.918   2.597  0.0868  0.2085 -0.0499
 2450W        W18344  11.929   6.170  14.124 -0.3571  0.2078 -0.0536
 2451W        W18345  14.142   2.213  14.600  0.1388  0.2278  0.2434
 2452W        W18346  12.002   5.373  11.882 -0.1591  0.0026  0.0390
 2453W        W18347   7.288  18.141   0.234 -0.1043  0.2535 -0.0415
 2454W        W18348   0.161   3.701  13.136  0.1361 -0.1029  0.0002
 2455W        W18349   5.857   1.490  12.172 -0.1937 -0.1602  0.0244
 2456W        W18350   2.132   9.228   1.834 -0.0390  0.0464 -0.0793
 2457W        W18351  18.139  12.531  14.012 -0.1999  0.2114 -0.0735
 2458W        W18352  11.560  12.131   0.849 -0.1274 -0.1472  0.3326
 2459W        W18353   2.885   8.473   5.286  0.2020 -0.1386  0.0476
 2460W        W18354  12.844  11.425   2.593 -0.3021 -0.0545  0.0350
 2461W        W18355   3.149  11.386   0.282  0.1807  0.0278 -0.0431
 2462W        W18356   2.300   3.673   1.895  0.5128  0.3084  0.1914
 2463W        W18357  14.087  12.357  11.460  0.0923  0.2226 -0.3024
 2464W        W18358   6.262  13.373  12.386  0.0427  0.0184  0.0153
 2465W        W18359   9.782  13.682   3.295 -0.2259  0.2257  0.1899
 2466W        W18360  11.941  12.476  12.765 -0.0289 -0.0726  0.0422
 2467W        W18361  18.148  14.033  11.990 -0.0169  0.2639 -0.2178
 2468W        W18362   1.779  12.604  13.135 -0.0443 -0.0651 -0.0873
 2469W        W18363  10.852   2.220   2.134  0.2339 -0.0426 -0.0438
 2470W        W18364   6.109   6.094  15.781 -0.1600 -0.0907  0.2816
 2471W        W18365   7.998   7.662  10.867 -0.0011 -0.0963  0.0506
 2472W        W18366  15.731   7.808  11.849 -0.1000 -0.0467  0.1993
 2473W        W18367   0.308   5.118  14.972  0.1073 -0.0153  0.0039
 2474W        W18368  18.186   8.470  13.924  0.3429  0.1413  0.2754
 2475W        W18369  12.911  14.387  16.011 -0.0521 -0.1384 -0.2088
 2476W        W18370   6.437   2.767   4.063  0.0670  0.0588 -0.1866
 2477W        W18371  17.481  13.639  15.560 -0.0321 -0.2644 -0.1692
 2478W        W18372   6.575   2.520   0.634 -0.0877 -0.3607  0.1270
 2479W        W18373   5.731   2.357  11.892 -0.1983  0.0995  0.3409
 2480W        W18374   7.650   6.848  10.933 -0.1452 -0.2929  0.1168
 2481W        W18375   1.087   8.065   1.344  0.0988  0.1651  0.3731
 2482W        W18376   2.647   1.372  13.525  0.0024 -0.2305 -0.0338
 2483W        W18377  14.831   9.976   2.021 -0.0968  0.1350  0.0486
 2484W        W18378  12.121   2.561   1.093  0.0515 -0.4117  0.2269
 2485W        W18379   0.347   5.167  12.063 -0.1143  0.2055  0.3592
 2486W        W18380  17.822  10.938  15.533 -0.0526  0.2165  0.0617
 2487W        W18381   4.887   2.739   3.644 -0.2590  0.1299  0.1811
 2488W        W18382  11.202   2.644   3.024  0.0276 -0.1556 -0.0275
 2489W        W18383   1.809  16.779   0.068 -0.1657 -0.0176  0.0882
 2490W        W18384  12.434   6.200   9.700  0.0026 -0.2701  0.1498
 2491W        W18385   3.994   9.666   0.638 -0.2570 -0.1525  0.2656
 2492W        W18386  10.842  10.222  13.620  0.1523 -0.1732  0.0007
 2493W        W18387   1.388   2.720  15.707 -0.0502 -0.0743 -0.2950
 2494W        W18388   9.075   1.922   3.014  0.4583  0.0116  0.0443
 2495W        W18389  14.369   7.487   4.145  0.3358  0.2238  0.0175
 2496W        W18390  11.968   0.747   4.755  0.1409 -0.1596  0.0767
 2497W        W18391  10.423   6.534  14.878 -0.2403 -0.1702  0.1701
 2498W        W18392   1.257  15.218  14.331 -0.0848 -0.0384  0.1659
 2499W        W18393  16.860   7.449  13.075  0.0582  0.1917  0.5586
 2500W        W18394   3.134   1.584  12.016  0.1564 -0.0093 -0.0680
 2501W        W18395   1.606   4.354  11.362 -0.1891  0.1689 -0.2250
 2502W        W18396  12.129   2.594   0.526  0.2542  0.1531  0.0720
 2503W        W18397  12.597  13.767  15.592 -0.0224  0.0466 -0.3966
 2504W        W18398  10.257   0.868  11.760  0.1428  0.1978  0.0534
 2505W        W18399  10.847  15.630   5.863 -0.3720  0.0909 -0.1666
 2506W        W18400   9.329   9.096   4.792 -0.0459 -0.0623  0.3210
 2507W        W18401   9.032   4.130  11.631 -0.1485 -0.1308  0.0490
 2508W        W18402  12.242   5.134   4.577 -0.0643 -0.0969 -0.1879
 2509W        W18403   0.303  13.618   0.677 -0.0101 -0.0214  0.0819
 2510W        W18404   4.650  15.627  12.436  0.1283 -0.0103  0.0019
 2511W        W18405   9.774  11.108   4.445 -0.0914  0.0422  0.1090
 2512W        W18406  13.768  12.540  14.187 -0.0144 -0.1531  0.2304
 2513W        W18407   8.179  17.580  10.562  0.3411  0.1119  0.2351
 2514W        W18408   1.931  14.603   3.379 -0.1980  0.1611  0.1949
 2515W        W18409   4.859   4.432  12.043  0.2329 -0.3039  0.1915
 2516W        W18410   4.339   3.526   1.873 -0.0414  0.0215  0.0465
 2517W        W18411   2.957   1.718   0.875  0.0605 -0.1090  0.2004
 2518W        W18412  16.822   0.147  14.573  0.0385  0.1016 -0.0281
 2519W        W18413  14.912  15.777   0.271 -0.0085  0.0434 -0.0016
 2520W        W18414  15.940  10.094   1.234  0.2770 -0.3478  0.1728
 2521W        W18415   7.193  13.934   5.142 -0.1455  0.1137 -0.0697
 2522W        W18416   7.782   2.539   0.534 -0.2860  0.0985 -0.2401
 2523W        W18417   1.470   0.189   1.772 -0.0532  0.1137  0.2073
 2524W        W18418   8.242  14.156   0.136  0.1297 -0.2188 -0.0979
 2525W        W18419  10.290   0.230   1.846 -0.0217  0.2493 -0.0319
 2526W        W18420  15.399  13.723   4.438 -0.0675  0.2861 -0.3767
 2527W        W18421  18.141   1.951   4.845  0.1530  0.2307  0.1741
 2528W        W18422   9.689   7.792  11.746 -0.2409 -0.0207  0.2634
 2529W        W18423  16.408  16.236  15.303 -0.0155 -0.1078 -0.2225
 2530W        W18424  17.349  12.256   4.912 -0.0015  0.0497 -0.1593
 2531W        W18425  17.773   9.667   4.204 -0.2371 -0.0838 -0.0174
 2532W        W18426  14.272   8.182  15.125 -0.0105  0.3092 -0.0205
 2533W        W18427   9.584   5.190   4.649  0.1615  0.1156  0.1008
 2534W        W18428  11.636  10.404   6.253 -0.0073  0.1057  0.1186
 2535W        W18429   1.377  13.642  15.302  0.0035 -0.0871 -0.2855
 2536W        W18430  15.237  12.516  14.871  0.0057  0.0756 -0.2175
 2537W        W18431  17.423   5.426   1.997  0.1757 -0.3066  0.1671
 2538W        W18432   0.533   3.906   2.378  0.0082  0.1236  0.1021
 2539W        W18433   1.245  17.732   3.721  0.0354 -0.1037  0.0972
 2540W        W18434   7.649  17.384  12.413 -0.0670 -0.0423  0.0685
 2541W        W18435   1.344   5.826  12.506 -0.1255 -0.3583  0.2700
 2542W        W18436   1.693  10.669  10.994  0.4633 -0.0762  0.1366
 2543W        W18437   4.916   0.467   1.828  0.0274  0.3260 -0.1447
 2544W        W18438   5.065   6.878   5.225 -0.1019 -0.2340 -0.3030
 2545W        W18439   8.036   9.164  13.073  0.3211  0.0540 -0.0280
 2546W        W18440  10.070  13.766  14.325  0.1103 -0.0261  0.1007
 2547W        W18441   9.405   1.545   0.363  0.4342 -0.0515 -0.0641
 2548W        W18442  16.328   8.408   5.272 -0.0614  0.3446 -0.2386
 2549W        W18443   8.670   4.992  11.971  0.0612  0.0679 -0.3300
 2550W        W18444  16.713   9.361  15.580 -0.0013 -0.1227  0.2641
 2551W        W18445  14.149   9.218  13.579 -0.6117 -0.2248 -0.0877
 2552W        W18446   5.173   6.487  15.851  0.1624  0.4672 -0.2042
 2553W        W18447  16.136  12.627  12.245 -0.0146  0.2024  0.3330
 2554W        W18448   0.456  15.991  10.620 -0.2572  0.1700 -0.3166
 2555W        W18449   9.978   4.926   1.357  0.3447 -0.1707  0.0831
 2556W        W18450   7.116  17.368  15.496 -0.1434 -0.1703 -0.0769
 2557W        W18451   2.947  12.433  12.012 -0.1314  0.1996 -0.6422
 2558W        W18452   8.267   2.419  15.783  0.0770  0.0515  0.0768
 2559W        W18453  13.177  15.304  12.322  0.0568 -0.3614  0.3408
 2560W        W18454   6.496   9.350   3.488 -0.1951  0.3456 -0.1935
 2561W        W18455   9.208  12.106   0.509  0.0614 -0.0183  0.0552
 2562W        W18456   8.571   8.282  12.255  0.1233 -0.2025  0.0855
 2563W        W18457   8.034  13.063  13.410  0.0704 -0.0674  0.0940
 2564W        W18458   1.493   4.208  15.410  0.1161 -0.1035 -0.0967
 2565W        W18459  15.120   4.621  11.741  0.2627 -0.1783  0.0063
 2566W        W18460   0.737  15.424   3.890 -0.0673  0.0606  0.0409
 2567W        W18461   1.498   3.230  13.302 -0.1131  0.0683  0.1912
 2568W        W18462   2.997  16.232   3.391 -0.0241  0.0589  0.1633
 2569W        W18463   6.028  10.937  12.852 -0.1115 -0.1639  0.1761
 2570W        W18464   8.678  14.383   0.290 -0.2090  0.0403  0.1818
 2571W        W18465   1.411   3.938  11.582  0.2661  0.1008  0.1131
 2572W        W18466   0.256   8.305   5.158  0.0525  0.0337 -0.0292
 2573W        W18467   2.390  13.197  12.329 -0.1517  0.1596  0.1182
 2574W        W18468  15.129   7.298   0.200  0.1007 -0.1227  0.1157
 2575W        W18469  15.334  14.924  15.230 -0.1130 -0.1067  0.0663
 2576W        W18470  13.349   9.494   4.444 -0.3416  0.0835 -0.0707
 2577W        W18471  14.156  11.555   2.104  0.0927  0.0961  0.0271
 2578W        W18472  13.500   2.367  15.639  0.0160 -0.3108 -0.0610
 2579W        W18473   1.719   2.573   2.386  0.0777  0.1720 -0.1789
 2580W        W18474  16.101   4.509   0.878  0.1772 -0.2198 -0.0252
 2581W        W18475   7.595  13.634   4.327  0.0623 -0.0427 -0.0282
 2582W        W18476  11.787  14.335   4.989  0.1538 -0.1527 -0.2689
 2583W        W18477  15.436  11.011  11.913  0.2035  0.2551  0.3359
 2584W        W18478  10.968   0.657  14.980  0.1456  0.1069 -0.1120
 2585W        W18479   3.180  13.110   2.020 -0.1996 -0.2241  0.0929
 2586W        W18480  11.414  12.082  13.906 -0.1272 -0.0620 -0.0485
 2587W        W18481  13.824  11.172  11.783 -0.0584  0.1284  0.0597
 2588W        W18482  14.751  13.663  16.211  0.0614  0.2122  0.4109
 2589W        W18483   3.282   5.649  11.129  0.0044 -0.0644  0.1153
 2590W        W18484  10.922   6.525  16.349 -0.1463 -0.0397 -0.1821
 2591W        W18485  12.974  11.542  12.284  0.1651  0.0413  0.1826
 2592W        W18486  12.445   0.400   5.478 -0.2313  0.0900  0.1272
 2593W        W18487  14.663   9.651   2.635 -0.0001 -0.0407  0.3441
 2594W        W18488   9.756  18.212   2.893  0.3098 -0.0207  0.3162
 2595W        W18489   1.073  17.057   1.173 -0.0607  0.0577 -0.0259
 2596W        W18490   9.038  15.479  11.961 -0.0033 -0.0487 -0.0576
 2597W        W18491  14.867   1.206  10.199 -0.0450  0.0979 -0.0453
 2598W        W18492   1.309   8.814  14.916 -0.0916 -0.4023  0.2732
 2599W        W18493   6.235  15.133  15.682  0.2431 -0.4181  0.0809
 2600W        W18494  17.575   3.040  15.388 -0.0565 -0.0978 -0.0216
 2601W        W18495  10.724   7.941  16.387 -0.2543  0.1509 -0.0952
 2602W        W18496  17.952   8.134  11.604  0.0414 -0.3308 -0.1463
 2603W        W18497   8.917   4.329   2.442  0.2485 -0.2103 -0.2036
 2604W        W18498  12.469  10.231   3.115 -0.3816  0.2724 -0.1689
 2605W        W18499   5.826  17.921  16.198 -0.1938 -0.3501  0.0768
 2606W        W18500   2.183  13.041  13.058 -0.1345 -0.0110 -0.3300
 2607W        W18501   2.664  12.738   2.827 -0.1160 -0.1646  0.0794
 2608W        W18502   0.456   9.395  15.499  0.0974 -0.2323  0.0744
 2609W        W18503   1.652   7.505  12.489  0.1576  0.0431 -0.3245
 2610W        W18504   7.225   2.154   0.112 -0.1053  0.0131 -0.0070
 2611W        W18505  14.486   0.307  13.125  0.4915 -0.2014 -0.1038
 2612W        W18506   5.851   0.468  14.883  0.3972  0.1657  0.0874
 2613W        W18507  17.115   2.901   1.131 -0.1049 -0.0245 -0.5631
 2614W        W18508   1.490  14.776   3.165 -0.0660  0.1859  0.0414
 2615W        W18509  12.193   2.380  13.937 -0.4452 -0.0647 -0.1267
 2616W        W18510  10.529  17.994  13.686  0.2566  0.1493  0.1315
 2617W        W18511   3.191  12.261   3.217  0.2929 -0.2602 -0.0496
 2618W        W18512   0.493  17.487  16.108  0.0478 -0.1636 -0.1025
 2619W        W18513  11.338   8.975  11.599 -0.1083  0.1324  0.0646
 2620W        W18514   5.752  14.618  12.273 -0.0480 -0.0930 -0.0974
 2621W        W18515   1.587   3.538  11.212 -0.0226 -0.0414 -0.0023
 2622W        W18516   3.452  12.224   0.189  0.1713 -0.0376 -0.0986
 2623W        W18517   1.308  11.810   1.347  0.1299  0.1013  0.0343
 2624W        W18518   2.953  16.872   0.238  0.2241  0.1616  0.0786
 2625W        W18519   3.204   6.462  16.123  0.0847 -0.0896  0.1423
 2626W        W18520   1.663   1.335  13.660  0.3464  0.0136  0.0832
 2627W        W18521   5.927   0.099  13.879 -0.1397 -0.2713 -0.0470
 2628W        W18522   9.152   2.690  14.106  0.2170  0.0522  0.3582
 2629W        W18523  17.921   7.867  15.588  0.0330 -0.1840  0.3198
 2630W        W18524   0.647   8.852  14.270  0.3998 -0.2925  0.2170
 2631W        W18525   7.683   8.671  11.265 -0.0060  0.1931 -0.0480
 2632W        W18526   3.969  15.704  14.963  0.0498 -0.1013 -0.0129
 2633W        W18527  14.707  10.723  13.649 -0.0700 -0.1056  0.1254
 2634W        W18528  13.118   9.333   5.235  0.0522  0.1233  0.1233
 2635W        W18529   3.195   8.675  15.022  0.0033  0.3321  0.0768
 2636W        W18530  10.596   9.777   2.436  0.1198  0.0487 -0.2657
 2637W        W18531  15.514   2.619   0.029 -0.1240 -0.1687  0.0932
 2638W        W18532   1.496   0.490  15.613 -0.1486 -0.2238  0.1353
 2639W        W18533   9.257  15.678   3.933  0.0231  0.0380 -0.1585
 2640W        W18534  11.296   2.052  12.847  0.2084  0.2234  0.0454
 2641W        W18535  11.808   3.390  15.444 -0.1023  0.1882  0.1328
 2642W        W18536   5.454   9.035   5.127  0.0098  0.3887 -0.1594
 2643W        W18537  10.285  13.180   2.378 -0.1083  0.0337 -0.1307
 2644W        W18538  12.478   5.333   4.124  0.0971  0.1635  0.1981
 2645W        W18539  16.356   5.763   3.356 -0.0026 -0.2180 -0.1113
 2646W        W18540  12.206  12.586   1.324 -0.1430  0.2598 -0.2454
 2647W        W18541   0.152  15.524  11.267 -0.0748  0.0596  0.0310
 2648W        W18542  10.790   5.548  11.324 -0.0962  0.0352  0.3810
 2649W        W18543  12.005   7.615  11.328 -0.0927  0.2861 -0.0828
 2650W        W18544   8.072   0.703  12.505 -0.2475  0.2774  0.0525
 2651W        W18545  15.971   3.082  13.889 -0.3692  0.2955 -0.0921
 2652W        W18546   6.950  15.999   3.991 -0.0673 -0.5138 -0.0857
 2653W        W18547   8.774  13.306   0.384  0.0239  0.3238  0.0231
 2654W        W18548  10.417  11.832  12.596 -0.0353 -0.0624 -0.2178
 2655W        W18549  11.187   7.427  15.268 -0.1284 -0.1587 -0.0597
 2656W        W18550  13.151   6.182  12.779  0.1162 -0.0785  0.1829
 2657W        W18551   6.363   0.344  13.828 -0.0207 -0.2100  0.1527
 2658W        W18552   0.752   7.881   5.695 -0.0587  0.0014  0.0054
 2659W        W18553  12.175   8.595  15.030  0.1494 -0.0215 -0.3879
 2660W        W18554   0.459  14.510   2.776 -0.1347 -0.1474  0.1969
 2661W        W18555   9.619  10.703   3.711 -0.4361  0.1985  0.1760
 2662W        W18556  13.538  17.944  13.078  0.2386  0.0563  0.1022
 2663W        W18557   9.144   1.978  11.286 -0.0401  0.1330 -0.0441
 2664W        W18558   6.941   0.353  16.087  0.2423 -0.0666  0.1071
 2665W        W18559   9.595  15.889   5.548  0.0714  0.0451  0.0383
 2666W        W18560   3.848  11.020   4.691 -0.3012 -0.2477  0.0294
 2667W        W18561   7.108   2.142  13.874 -0.0340  0.0756  0.0951
 2668W        W18562  10.612   7.414  14.593 -0.1806  0.1096  0.0378
 2669W        W18563   9.481   7.705   1.473 -0.0492 -0.2313  0.0379
 2670W        W18564   0.681   1.468   3.476 -0.2061 -0.0042 -0.0810
 2671W        W18565   9.876  17.939   0.897  0.2810 -0.1435  0.1843
 2672W        W18566   5.050   9.182  10.858 -0.3533 -0.1732  0.1246
 2673W        W18567  16.658   0.826  13.193  0.4095  0.0395 -0.2048
 2674W        W18568   8.673  12.134   2.188 -0.1342 -0.0194 -0.2576
 2675W        W18569   7.026  10.629  11.433  0.4951  0.2398  0.0882
 2676W        W18570   0.982   5.268  14.472 -0.0063 -0.2834  0.1403
 2677W        W18571  12.792  14.991   0.952  0.3341  0.0017 -0.0972
 2678W        W18572   0.216   7.342  11.590  0.0357 -0.0765  0.0753
 2679W        W18573  11.722   3.276   5.125 -0.1301 -0.1270  0.1320
 2680W        W18574  16.501   3.110   1.645 -0.2357  0.3348  0.0915
 2681W        W18575  16.797   6.453  14.802 -0.4173 -0.0903  0.1602
 2682W        W18576  12.256   7.676  13.986  0.0002 -0.0368 -0.1420
 2683W        W18577   2.274   3.390   2.276 -0.1325  0.2939 -0.3073
 2684W        W18578  13.759   5.207  12.503 -0.0798  0.0862  0.3946
 2685W        W18579  12.183   4.069   5.439  0.0829  0.2403  0.0968
 2686W        W18580   1.225  10.385   5.069  0.1332 -0.0716 -0.2119
 2687W        W18581  10.698  10.560   4.601 -0.2505 -0.0592 -0.1641
 2688W        W18582   9.102   1.505   0.762  0.0331 -0.0423 -0.1960
 2689W        W18583   1.960   0.350   1.579  0.0020 -0.3482 -0.0857
 2690W        W18584  15.940   2.393   0.187 -0.2734 -0.0864  0.1575
 2691W        W18585   7.877  15.024  12.304 -0.0451  0.0463 -0.5981
 2692W        W18586  14.890  16.009  12.538 -0.2037  0.0300 -0.2893
 2693W        W18587  18.121  11.126  14.369  0.0285 -0.0964  0.0764
 2694W        W18588  17.288  13.350   2.945 -0.2889  0.2781  0.3737
 2695W        W18589  15.590   4.089  13.889 -0.2560  0.4915  0.1967
 2696W        W18590  16.437  12.421   4.432  0.1671 -0.2498  0.1205
 2697W        W18591   9.633   2.825  15.372  0.0310 -0.1727 -0.0397
 2698W        W18592   9.000  12.315  15.726 -0.0747  0.0676 -0.0460
 2699W        W18593  11.958   3.503   0.584 -0.1944  0.0938 -0.0331
 2700W        W18594  14.058   9.042   3.763 -0.1952 -0.2479  0.2330
 2701W        W18595   9.196   0.289   2.187  0.2153 -0.2702 -0.0364
 2702W        W18596  16.135   2.012   4.358 -0.1124 -0.1796  0.1662
 2703W        W18597   2.957  15.513  14.793  0.0143  0.0478  0.1905
 2704W        W18598  12.688   2.674  16.123  0.1631 -0.0695 -0.0561
 2705W        W18599  12.669   4.039  11.941  0.5343  0.3802  0.0945
 2706W        W18600  12.798   9.984  15.369 -0.1151  0.0489  0.4700
 2707W        W18601  14.151   0.956  11.238  0.4009 -0.2385 -0.0769
 2708W        W18602  10.493   5.163   6.059 -0.1300 -0.1984 -0.0169
 2709W        W18603   2.891  16.365   1.010  0.2724  0.2110  0.2621
 2710W        W18604   3.457   1.385  14.981 -0.0729  0.0058 -0.3603
 2711W        W18605  13.787  15.053   0.830 -0.0298 -0.3234 -0.0883
 2712W        W18606   9.860   1.066   4.835 -0.3091  0.2734  0.1194
 2713W        W18607   8.421   3.180   4.402 -0.1712 -0.3474 -0.0799
 2714W        W18608   7.724  15.171  14.461 -0.1452  0.2331 -0.2449
 2715W        W18609  15.743  15.284   4.593  0.1292  0.1804 -0.2370
 2716W        W18610  17.394   4.279  11.950  0.0875  0.0189  0.0149
 2717W        W18611   9.082  14.280  13.205  0.1362  0.1765 -0.4709
 2718W        W18612  16.602   5.288   5.220 -0.1260 -0.0005 -0.1975
 2719W        W18613  14.433  15.225  11.654  0.1120  0.0728  0.2149
 2720W        W18614   6.359   7.582  11.749 -0.1220 -0.0756  0.2263
 2721W        W18615   5.113  13.019  12.627  0.0223 -0.0488  0.1827
 2722W        W18616   7.542  14.931  16.312 -0.1248 -0.0692  0.0463
 2723W        W18617  10.750  17.896   2.320 -0.1282 -0.0320  0.0593
 2724W        W18618   2.020  13.368  11.966  0.1476  0.1617 -0.0566
 2725W        W18619   4.471   3.184   2.393 -0.0733 -0.0757 -0.0612
 2726W        W18620   3.811  11.135   5.314  0.1326 -0.1757 -0.0495
 2727W        W18621   7.306   3.781   0.742  0.1445 -0.1162  0.0401
 2728W        W18622   7.654   2.618  14.403 -0.0165 -0.0335 -0.2761
 2729W        W18623  15.578   3.351  15.180 -0.0897  0.0021  0.2634
 2730W        W18624   1.919   5.511   5.206  0.1116  0.0643 -0.3055
 2731W        W18625  11.326   2.940  11.978 -0.1213 -0.2540  0.0899
 2732W        W18626  14.907  11.788   5.039  0.0390  0.1437  0.0705
 2733W        W18627   8.104   9.047   3.758  0.1118  0.1613 -0.1753
 2734W        W18628  12.466  15.141  14.636 -0.2813 -0.3748 -0.0544
 2735W        W18629  17.063   5.163  14.429  0.1105 -0.1514  0.3277
 2736W        W18630   8.797  12.235   5.605  0.2336 -0.0120 -0.0035
 2737W        W18631  14.888  14.675  12.276  0.3810  0.1045  0.4798
 2738W        W18632   8.317  17.236   1.998 -0.0537 -0.0434 -0.0096
 2739W        W18633   5.844  16.106   2.652  0.0375 -0.3085 -0.0362
 2740W        W18634   6.083  13.187   3.091 -0.1050 -0.1832  0.3625
 2741W        W18635   4.525   7.127  11.906  0.0577  0.1691  0.1994
 2742W        W18636   1.674   5.828  13.551  0.0013  0.1873 -0.1132
 2743W        W18637   0.242  14.650   1.413 -0.2483 -0.1009 -0.1021
 2744W        W18638   0.216  17.974  13.951  0.1507 -0.3978  0.0181
 2745W        W18639   6.156  12.929  13.888 -0.1920  0.1803  0.0276
 2746W        W18640   7.173  15.816  11.669  0.0198  0.1170 -0.0448
 2747W        W18641   7.268   7.079  15.248 -0.1562 -0.0439  0.1739
 2748W        W18642   5.442  14.410   4.594  0.0168  0.0043 -0.3929
 2749W        W18643  11.221  14.452  11.707 -0.2274  0.0002  0.1544
 2750W        W18644  14.283   1.552  12.423  0.1744 -0.0870 -0.0326
 2751W        W18645   8.294   1.294  11.193  0.2289 -0.2845 -0.5083
 2752W        W18646   1.471   8.224  14.929 -0.1139  0.1922  0.0488
 2753W        W18647  13.273   9.692   0.414 -0.1918 -0.1209  0.1616
 2754W        W18648  15.678  17.797   5.168 -0.0727 -0.0074 -0.3588
 2755W        W18649  12.382   7.401   0.652 -0.1116 -0.2518 -0.0685
 2756W        W18650  12.776   2.107   4.980  0.2222  0.3091 -0.1605
 2757W        W18651  16.656  15.620   4.429  0.0308  0.1046  0.1705
 2758W        W18652  12.560   6.923   0.831 -0.2187  0.0039 -0.0909
 2759W        W18653   3.086  16.260   1.436 -0.0610 -0.1601 -0.0543
 2760W        W18654   0.526   2.669  11.366  0.0580 -0.0704  0.2255
 2761W        W18655  10.704  11.356   3.262  0.3361  0.1392 -0.0328
 2762W        W18656   6.284  11.965   6.358 -0.0553 -0.2235 -0.0007
 2763W        W18657   6.509   6.099   2.827 -0.1150  0.0417  0.2384
 2764W        W18658  18.052   0.812  12.912  0.0366 -0.1183 -0.2511
 2765W        W18659  15.736  16.404   3.344 -0.1240 -0.4330  0.1893
 2766W        W18660   2.799   2.929   3.595  0.2997  0.0522  0.3569
 2767W        W18661   5.667  13.080   3.374  0.0748 -0.0404 -0.0853
 2768W        W18662   1.531   7.581   0.211  0.1227 -0.1079  0.0111
 2769W        W18663   2.764   9.961  13.100 -0.0358 -0.2378  0.1210
 2770W        W18664   0.838  12.226  14.532  0.0468  0.0323 -0.1385
 2771W        W18665  10.609   9.779  15.182 -0.1382 -0.3733  0.4545
 2772W        W18666   4.149  10.580   2.871 -0.2064  0.0712  0.0291
 2773W        W18667  12.990  17.667   2.658 -0.0136 -0.0608 -0.2388
 2774W        W18668   6.131  11.812   5.672 -0.2079 -0.0511  0.0558
 2775W        W18669  10.721   0.750  11.944  0.1550 -0.0553  0.4045
 2776W        W18670   6.671   5.755  13.956 -0.2256 -0.2387  0.3095
 2777W        W18671  10.649   7.841   4.490 -0.0096 -0.2645  0.0573
 2778W        W18672   0.142   2.344   4.569 -0.1652  0.1788  0.2392
 2779W        W18673   8.191  13.717  15.727  0.2607  0.1273 -0.1568
 2780W        W18674  11.192   5.612  14.396  0.3616  0.0166 -0.1865
 2781W        W18675  13.691  14.168  13.518 -0.3630 -0.1951 -0.0259
 2782W        W18676   5.588  10.924  15.615 -0.1609 -0.2835 -0.0705
 2783W        W18677   2.841  12.748   0.028 -0.1925  0.0560 -0.0402
 2784W        W18678   7.552   5.495   2.654 -0.2332  0.1802 -0.1538
 2785W        W18679   3.203   3.026   3.341 -0.1939 -0.2150 -0.3365
 2786W        W18680  18.071   8.582  12.465 -0.0613 -0.0133 -0.0954
 2787W        W18681   1.521   6.047  11.539 -0.1680 -0.0120  0.1451
 2788W        W18682   0.477  15.078   1.303  0.1615  0.0438  0.0822
 2789W        W18683   5.208  15.446   5.541 -0.0631 -0.2932 -0.0048
 2790W        W18684  16.568   0.535   1.363 -0.0839 -0.2306 -0.0684
 2791W        W18685  14.468  12.833   3.025 -0.0527  0.5025  0.0265
 2792W        W18686   7.593   5.008   0.186  0.0557  0.1745 -0.1905
 2793W        W18687  13.518  10.909  12.736 -0.0620 -0.0560  0.0486
 2794W        W18688  17.981  14.847   1.042  0.0773 -0.2197  0.2888
 2795W        W18689  12.978   6.486   0.665 -0.0820 -0.0491  0.0802
 2796W        W18690   8.542  14.896   4.771  0.2423 -0.1400  0.0678
 2797W        W18691  17.617  17.579   3.190 -0.0855  0.1411  0.2275
 2798W        W18692   5.965  11.347  14.361 -0.0579  0.0453 -0.3753
 2799W        W18693  14.096   0.610   4.696 -0.2622  0.0577  0.0793
 2800W        W18694  10.482   7.126   4.224 -0.1862 -0.0066  0.1074
 2801W        W18695   4.436   3.744   4.374 -0.1857  0.1026 -0.2244
 2802W        W18696  12.183  16.239   1.305 -0.0333  0.0724  0.1535
 2803W        W18697  12.751   1.663  12.176  0.0139 -0.2139  0.0681
 2804W        W18698   2.672  16.461   4.431 -0.0561  0.0022 -0.0416
 2805W        W18699   1.273   3.178   1.826 -0.0069 -0.1796 -0.1680
 2806W        W18700  16.212  14.092   0.186 -0.0960  0.1103  0.1895
 2807W        W18701   2.909   9.753   0.216  0.0625  0.0711 -0.2235
 2808W        W18702   3.591  17.858   3.764 -0.1581  0.2062 -0.3517
 2809W        W18703   0.021   3.511   4.577  0.1274  0.0375  0.0816
 2810W        W18704   1.975  16.180   2.982 -0.1291 -0.0764 -0.0932
 2811W        W18705   1.724  10.675  13.064  0.0391 -0.0596  0.0543
 2812W        W18706  11.434   5.778  14.797 -0.1811  0.0086  0.0294
 2813W        W18707  15.702   8.802  15.842 -0.1099  0.2556  0.0749
 2814W        W18708   4.930  15.693  12.017  0.2163  0.2996 -0.0093
 2815W        W18709  10.485   6.559   0.930 -0.2497 -0.2267  0.0207
 2816W        W18710  14.427   3.617   1.150 -0.1340  0.2496  0.3324
 2817W        W18711   2.369  11.644  12.115  0.0462  0.0567 -0.5358
 2818W        W18712  11.028   1.610   0.979 -0.0434 -0.1311 -0.0754
 2819W        W18713   1.888   6.324   2.385  0.4394  0.0273 -0.0254
 2820W        W18714  17.851  16.550   2.408 -0.2849  0.0293  0.2645
 2821W        W18715   4.033   5.589   0.938 -0.2445  0.1481  0.3205
 2822W        W18716  14.854  10.817   0.480  0.1757 -0.0664 -0.1194
 2823W        W18717  11.840   6.243  12.178 -0.2608  0.0402 -0.0601
 2824W        W18718   6.073  16.369  15.826 -0.4719 -0.2558 -0.2398
 2825W        W18719   7.995   4.544   0.971 -0.0807  0.2147 -0.1128
 2826W        W18720   9.998  13.742   1.332  0.0937  0.1125 -0.3328
 2827W        W18721   6.742   2.320  13.577  0.2401  0.1689  0.1626
 2828W        W18722   0.293   0.113   3.259  0.4942  0.2505 -0.0021
 2829W        W18723  17.938  10.787   2.379  0.1075  0.1508  0.3615
 2830W        W18724   4.338  17.870   4.491 -0.3027  0.2824  0.0469
 2831W        W18725   0.774  16.953   2.722  0.0743 -0.0228  0.2587
 2832W        W18726   4.337  16.449  15.629 -0.1149 -0.1838  0.0891
 2833W        W18727  15.628  13.872   0.135  0.1850  0.0232 -0.2794
 2834W        W18728  17.714  13.812   5.610 -0.1943 -0.1736  0.0897
 2835W        W18729  12.321  17.290  15.688 -0.0222 -0.0900  0.3108
 2836W        W18730  10.044   0.747   3.276  0.0986 -0.0539 -0.2367
 2837W        W18731   5.582   5.374  14.832  0.0857  0.0356 -0.1668
 2838W        W18732  12.539  10.946   3.534  0.1157 -0.2305  0.0995
 2839W        W18733   4.607  12.461  14.584  0.0322 -0.0120 -0.3562
 2840W        W18734   5.911  11.311   0.742  0.1533 -0.1563  0.0509
 2841W        W18735   0.756   1.448  15.550 -0.2277 -0.0031  0.2340
 2842W        W18736  15.341  17.110  14.942 -0.0792 -0.2263  0.0458
 2843W        W18737  13.756  16.430  11.024  0.0815 -0.0023  0.2564
 2844W        W18738   4.594   3.696  12.612  0.0706  0.0193  0.4085
 2845W        W18739  14.807  10.672  14.135 -0.0869  0.0794 -0.1143
 2846W        W18740  17.452  12.485  11.942  0.0635 -0.0511  0.2032
 2847W        W18741  16.040   4.206  14.289 -0.1448 -0.0940  0.2216
 2848W        W18742   6.953  13.976  10.960  0.3247 -0.1784  0.1206
 2849W        W18743  15.826   8.034  14.749 -0.1393 -0.1251 -0.1189
 2850W        W18744   6.846  15.114   3.701  0.0832  0.3625 -0.2152
 2851W        W18745  15.336   8.570   0.842  0.1253 -0.1112  0.0660
 2852W        W18746   7.433  10.418  15.874 -0.0382 -0.1833 -0.4078
 2853W        W18747   4.810  17.365   5.039 -0.2613 -0.1179 -0.2774
 2854W        W18748   0.982   6.606   1.098  0.0362 -0.0780 -0.1306
 2855W        W18749   6.448   9.886   0.962  0.1232  0.0673 -0.0668
 2856W        W18750   7.926   5.394  11.368 -0.0492 -0.0615 -0.1772
 2857W        W18751  15.793   6.466   4.991  0.1907  0.1720 -0.2212
 2858W        W18752   4.858   4.101  12.946  0.1790 -0.0485  0.1565
 2859W        W18753  11.074   3.527  13.224 -0.0841  0.2791  0.0929
 2860W        W18754  15.172   0.135  11.578 -0.0045  0.1589  0.2194
 2861W        W18755  10.849  17.012  13.525 -0.1368 -0.2962 -0.3769
 2862W        W18756   8.024   4.182   2.399  0.2025  0.0903  0.1951
 2863W        W18757   0.018   0.995  13.816  0.0677 -0.2928 -0.0345
 2864W        W18758   3.181   7.308   3.437 -0.1312 -0.3413  0.0848
 2865W        W18759  10.808   1.918   2.600  0.2216  0.0083 -0.2326
 2866W        W18760   9.321  17.400  13.270 -0.0791 -0.1746 -0.1914
 2867W        W18761   3.079   1.738   5.304  0.1309 -0.0299  0.1647
 2868W        W18762  14.473   0.876  14.606 -0.1723 -0.2224 -0.0822
 2869W        W18763   9.328  17.222  12.710  0.1227 -0.2584 -0.0891
 2870W        W18764  14.855  11.513   3.581 -0.0540 -0.2041 -0.0638
 2871W        W18765  13.491   2.198   3.661  0.2025  0.0824 -0.2984
 2872W        W18766  10.380   4.565  10.338 -0.0890  0.1333  0.1682
 2873W        W18767  10.605   0.063   4.139  0.1232 -0.0428 -0.2668
 2874W        W18768  17.128   7.662   2.124 -0.4303  0.0949 -0.0615
 2875W        W18769   2.561   4.912   3.290  0.3888  0.2390 -0.0225
 2876W        W18770   8.115   8.701   4.628  0.0182 -0.2413 -0.2161
 2877W        W18771  10.587   5.391   5.497 -0.2075  0.3854  0.1000
 2878W        W18772   5.186   5.035  14.892 -0.0275 -0.0289  0.0210
 2879W        W18773   3.280  16.608  13.534 -0.0568 -0.1628 -0.3477
 2880W        W18774  17.472   0.629   5.380 -0.1366 -0.0494 -0.0205
 2881W        W18775   9.440   1.719  11.591 -0.1131  0.0304  0.0958
 2882W        W18776  13.999  12.994  14.975  0.1358  0.0088  0.3360
 2883W        W18777   6.553  10.031  15.953  0.0695 -0.1634 -0.2326
 2884W        W18778  12.761   7.448   5.873 -0.0653  0.1298  0.0497
 2885W        W18779   1.040   0.448   0.307  0.0428  0.1700 -0.0567
 2886W        W18780  10.797   0.976  15.358 -0.0596  0.2181 -0.1328
 2887W        W18781   1.734   2.667   4.262 -0.1068  0.0955 -0.2978
 2888W        W18782  10.874   7.980   4.060  0.2014 -0.0090  0.0397
 2889W        W18783  15.621   9.115   4.517  0.1325  0.0574  0.1457
 2890W        W18784   4.316   6.314  11.319  0.0865  0.0716  0.1341
 2891W        W18785   5.580   0.455   0.524 -0.1069  0.3181  0.1597
 2892W        W18786   1.011  14.246  15.757  0.1699  0.1739 -0.0548
 2893W        W18787  13.622  16.539  13.235 -0.4095 -0.2397  0.0269
 2894W        W18788   8.607   5.905  12.385 -0.0249 -0.1291  0.1491
 2895W        W18789  16.359   6.830   1.435  0.0423  0.5114 -0.1457
 2896W        W18790   7.538   9.054   2.184 -0.1189 -0.0513  0.1775
 2897W        W18791   1.121  17.384   1.739  0.1083 -0.0543 -0.2117
 2898W        W18792  11.088   3.083  12.404 -0.0966 -0.3002  0.0388
 2899W        W18793   0.949  11.054   0.985  0.2752 -0.0203 -0.0432
 2900W        W18794  18.046  14.538   0.622 -0.3222 -0.1455 -0.0144
 2901W        W18795  14.605   8.595   0.284  0.0794 -0.0015  0.5208
 2902W        W18796   0.873  15.163  12.149  0.0409  0.4626  0.2670
 2903W        W18797   2.159   4.432   3.534  0.2733 -0.2264  0.1943
 2904W        W18798  11.925  16.686   3.109  0.0099 -0.0364  0.2313
 2905W        W18799   5.816   3.288  12.716  0.3302  0.0675  0.0007
 2906W        W18800  15.963   7.105   1.506 -0.1122  0.0249 -0.0673
 2907W        W18801  16.603  14.215   2.687  0.1741 -0.0839  0.0891
 2908W        W18802   4.276   4.518   1.323 -0.0389  0.1890 -0.1030
 2909W        W18803  17.760   1.830  14.339 -0.0182 -0.4895 -0.1155
 2910W        W18804  16.929   7.365   6.088  0.0877 -0.0420  0.1156
 2911W        W18805   8.508   4.448  13.536  0.0264 -0.1320  0.1113
 2912W        W18806   5.642   0.596   1.524  0.0348 -0.2200 -0.0615
 2913W        W18807  10.579   5.780  11.805 -0.0865  0.0918  0.2851
 2914W        W18808  15.275  16.245   3.229 -0.0212  0.0241 -0.1427
 2915W        W18809  17.249  10.156   5.327  0.2191 -0.2082 -0.3427
 2916W        W18810   9.039   7.270   0.252 -0.0121 -0.1719  0.0224
 2917W        W18811   2.197  12.314   4.967  0.1216  0.3984  0.0075
 2918W        W18812   8.751  10.439  12.054 -0.0254 -0.1611  0.1338
 2919W        W18813   9.972   7.868  12.647  0.3199  0.2770 -0.0377
 2920W        W18814   0.340  14.278   0.913 -0.0986 -0.1979 -0.0445
 2921W        W18815   7.009  15.887  14.416  0.2026  0.0108 -0.0148
 2922W        W18816  15.687  11.149  16.437 -0.0894  0.1863  0.5566
 2923W        W18817   5.882   9.876   0.777  0.3079  0.1272  0.2211
 2924W        W18818   4.524   2.012  11.065 -0.3198  0.1261  0.1981
 2925W        W18819   1.553  11.448   5.833 -0.3353  0.1014 -0.0364
 2926W        W18820   8.267   2.645   0.325 -0.1486 -0.1887  0.0463
 2927W        W18821  12.195   8.121   1.921 -0.0837 -0.0414 -0.0918
 2928W        W18822   7.351   3.639   3.632  0.0315 -0.0027  0.3472
 2929W        W18823   6.397  10.372   0.669  0.0213  0.1775  0.3610
 2930W        W18824   2.525  17.315  11.495 -0.1426  0.1356 -0.1209
 2931W        W18825  13.024   8.749  11.970  0.1127 -0.0204 -0.1427
 2932W        W18826   3.163   4.172  10.893  0.1513  0.0811  0.2855
 2933W        W18827   5.972  11.863  15.228 -0.0242  0.2383 -0.0397
 2934W        W18828  13.546  11.240   5.268 -0.1717 -0.2609  0.1551
 2935W        W18829  10.626  14.372   4.974  0.0779  0.0118  0.0766
 2936W        W18830   0.498  14.719   4.108  0.1161  0.1182  0.2806
 2937W        W18831  14.311   5.182   2.487  0.0787  0.0271 -0.0808
 2938W        W18832   5.248  12.261   4.962 -0.1018  0.3312 -0.3641
 2939W        W18833  13.690  18.110   1.369  0.0242  0.0912  0.2910
 2940W        W18834   3.410  11.531   5.294 -0.1628  0.0862  0.1410
 2941W        W18835   4.165   8.810  16.054 -0.0253  0.1642  0.1729
 2942W        W18836  17.578  17.259   0.691 -0.0144  0.0568 -0.1351
 2943W        W18837  16.580  17.111  15.495  0.1735 -0.1351  0.0568
 2944W        W18838  17.859   3.441   5.102  0.0374  0.0046 -0.1273
 2945W        W18839  12.590   0.909  11.502  0.3263  0.0382 -0.0456
 2946W        W18840   9.844   5.316  14.985 -0.0584  0.1560 -0.0069
 2947W        W18841   9.255  17.928   2.195 -0.0201 -0.2243 -0.1806
 2948W        W18842   9.313  17.855   3.398  0.0796 -0.0675  0.0870
 2949W        W18843  17.269   5.630  16.439  0.2613 -0.2499  0.1668
 2950W        W18844   3.622  17.447  13.672 -0.2106  0.1105  0.0899
 2951W        W18845   3.497  13.479   3.860 -0.2424  0.2479  0.0562
 2952W        W18846   0.589   6.287   0.959  0.1299 -0.3553 -0.1896
 2953W        W18847  11.260   1.586   2.662 -0.1782  0.0349 -0.3203
 2954W        W18848  17.341   5.347  13.104 -0.2088 -0.1991  0.0368
 2955W        W18849   1.309   6.197   4.836  0.1380  0.0720  0.3367
 2956W        W18850  15.855   7.892   3.026 -0.0963  0.2834 -0.0979
 2957W        W18851  14.790   3.605   1.954 -0.0747 -0.0047  0.3289
 2958W        W18852   5.985   3.394   0.671 -0.1049  0.2803  0.0798
 2959W        W18853  13.027   0.117  12.306 -0.1322  0.0064  0.1223
 2960W        W18854  14.587  14.247  11.447 -0.0135  0.1621  0.1855
 2961W        W18855   0.718   3.740  16.410 -0.0817  0.0496  0.1861
 2962W        W18856   1.196  11.588   5.513 -0.0837 -0.0046  0.1314
 2963W        W18857   7.752  11.026   1.727 -0.1996 -0.0642  0.0048
 2964W        W18858  10.420  17.518   3.671 -0.0616 -0.0172  0.0741
 2965W        W18859   1.353  15.363   2.163 -0.1156 -0.0174  0.0152
 2966W        W18860   1.689  18.156   0.001 -0.2505 -0.0506  0.0169
 2967W        W18861   6.997  16.567   2.990  0.4333  0.1075 -0.1577
 2968W        W18862   1.539  12.098  13.106  0.1215  0.1196 -0.1543
 2969W        W18863  10.824  11.050  14.579 -0.1575 -0.0487 -0.1986
 2970W        W18864  17.971   8.407  15.759  0.1461 -0.0410  0.2489
 2971W        W18865  12.825   1.985   0.829 -0.1260 -0.0978  0.2965
 2972W        W18866   7.977  16.063   3.090 -0.1536  0.2122  0.0981
 2973W        W18867   7.609   5.622   5.313 -0.1309 -0.0294 -0.1749
 2974W        W18868   6.531   4.304   2.105 -0.1812 -0.0806  0.3903
 2975W        W18869   2.059  16.502   0.443 -0.1662  0.1253 -0.1261
 2976W        W18870  14.906  11.029   3.501 -0.0751 -0.1020 -0.2965
 2977W        W18871  16.440   7.422   5.175 -0.1411  0.1278  0.1338
 2978W        W18872   5.867  17.245  10.018 -0.0541  0.2068 -0.0936
 2979W        W18873  16.883  10.728  14.400 -0.1255 -0.0350  0.0940
 2980W        W18874   9.280  12.277  12.977 -0.0320 -0.0197  0.1006
 2981W        W18875  13.652   6.377   1.826 -0.3659 -0.2175 -0.1083
 2982W        W18876  16.279   8.735  15.077 -0.2203  0.0663  0.0610
 2983W        W18877   9.976   6.823   3.238  0.0923 -0.2375  0.1260
 2984W        W18878   6.115   6.648  13.716 -0.0543  0.0661 -0.0048
 2985W        W18879   4.762  14.220  14.381  0.1769 -0.1014 -0.0818
 2986W        W18880   2.220  11.670   6.716 -0.2444  0.1973 -0.0192
 2987W        W18881  14.724   2.131  11.468 -0.2483  0.0838  0.1033
 2988W        W18882   0.839  15.607  11.854  0.0362  0.0238 -0.2943
 2989W        W18883   4.616  13.848   5.453  0.1107  0.1016 -0.0939
 2990W        W18884   9.545  16.440   0.007 -0.0631  0.1547  0.1279
 2991W        W18885  11.189   2.600  12.841 -0.0599  0.1042 -0.3005
 2992W        W18886   9.184   4.482   3.395 -0.2952 -0.4234 -0.0822
 2993W        W18887   3.395   7.951  12.426  0.0852 -0.1686  0.1427
 2994W        W18888   9.547  10.665   3.192  0.1960 -0.2675 -0.1807
 2995W        W18889  10.096  16.087   3.855  0.2624  0.2221 -0.0699
 2996W        W18890  13.920   2.737   4.486 -0.3527 -0.1458 -0.0594
 2997W        W18891  11.059  14.384   2.857  0.1685  0.2325 -0.2178
 2998W        W18892   8.626  13.475  16.333 -0.2409 -0.1293  0.0264
 2999W        W18893  13.565   6.674   1.387  0.1104  0.1582 -0.2993
 3000W        W18894   2.946   8.839   2.264  0.4351 -0.1671  0.0422
 3001W        W18895   1.377   0.430   0.697  0.0322  0.0353  0.0865
 3002W        W18896  17.884  11.467   5.611  0.1179 -0.0891 -0.3834
 3003W        W18897   7.845  10.378   0.715 -0.2119 -0.3976 -0.1111
 3004W        W18898  12.593   6.946   4.575 -0.2225  0.2989  0.1892
 3005W        W18899   9.849   5.548  13.030  0.0720  0.0621 -0.1626
 3006W        W18900  13.299  12.343   5.898  0.2884 -0.2079 -0.2964
 3007W        W18901   9.627   9.667  15.644  0.2960 -0.2280 -0.1068
 3008W        W18902  16.493  17.184   4.972  0.3144 -0.1641 -0.2321
 3009W        W18903  12.152  17.550   0.994 -0.0086 -0.2102 -0.0306
 3010W        W18904   4.798  12.832   4.781  0.1363 -0.0796 -0.1989
 3011W        W18905  13.746  15.510   5.292  0.3798  0.0139 -0.2719
 3012W        W18906   1.751   1.251  13.120  0.0107  0.0367  0.0505
 3013W        W18907   7.999  12.012  16.157  0.2099  0.0761 -0.1571
 3014W        W18908  17.210   7.911  14.499  0.1151  0.1962 -0.1032
 3015W        W18909  16.421  11.834  15.034 -0.1347  0.1392 -0.0772
 3016W        W18910  10.099  15.228   3.723  0.0184 -0.2142  0.2343
 3017W        W18911  11.620   6.633  14.194 -0.1882 -0.0981 -0.0239
 3018W        W18912   5.126   3.526  11.943  0.3172 -0.1062 -0.2624
 3019W        W18913  10.121  16.589  16.239 -0.3130 -0.2540 -0.0043
 3020W        W18914  16.762  16.422   5.330  0.2986 -0.0922 -0.0100
 3021W        W18915   8.596   5.177  13.897 -0.1253 -0.0435  0.0160
 3022W        W18916   8.444  11.564   2.145 -0.1395 -0.1367 -0.1248
 3023W        W18917   3.841  14.173  14.009 -0.3752 -0.3536 -0.0975
 3024W        W18918   6.397   9.376   3.953 -0.1236 -0.2845  0.2022
 3025W        W18919   2.649   7.532  14.998 -0.0133 -0.1105 -0.1625
 3026W        W18920   8.649   9.965  12.247 -0.2116 -0.1911 -0.1718
 3027W        W18921   1.598  16.525  13.940 -0.1691 -0.1474  0.1854
 3028W        W18922  11.633   7.874  12.723 -0.0628 -0.0325 -0.1758
 3029W        W18923  14.823   6.913  11.802 -0.0944 -0.1275  0.2185
 3030W        W18924   6.192   3.266  10.651  0.2890  0.3001 -0.1011
 3031W        W18925   4.268   4.018   3.729 -0.0131  0.1760  0.1410
 3032W        W18926  11.670  15.858  13.530  0.0895  0.0814  0.3643
 3033W        W18927  14.328  18.106  12.788  0.1103  0.0511 -0.2093
 3034W        W18928   6.662  18.014  14.489  0.0295 -0.2843 -0.3712
 3035W        W18929  14.505  16.528   4.854 -0.0059  0.1400  0.3892
 3036W        W18930   8.407   1.093  15.777 -0.1197 -0.2560 -0.2929
 3037W        W18931   8.303   1.293   5.924 -0.2268  0.1182  0.0727
 3038W        W18932  18.127  16.936   3.836 -0.2362 -0.1139  0.1427
 3039W        W18933   1.100   7.805   1.759 -0.2528  0.1882  0.1634
 3040W        W18934  18.123  13.474  16.203 -0.1208 -0.0286 -0.2816
 3041W        W18935   3.705  15.794   2.676  0.0312 -0.1687 -0.2042
 3042W        W18936  11.898  16.049  13.947  0.1942  0.0480 -0.1223
 3043W        W18937   5.218   3.841  14.273 -0.0106  0.0164  0.0835
 3044W        W18938   2.964   0.479   1.789 -0.3831  0.0435  0.1693
 3045W        W18939   0.978  17.897   1.489 -0.1926 -0.1563 -0.0012
 3046W        W18940  16.241   2.223  13.003 -0.4588  0.2783 -0.2194
 3047W        W18941  13.133   0.237   4.505 -0.3466 -0.1349 -0.0263
 3048W        W18942  13.550   4.345   4.067  0.1994 -0.0530 -0.0078
 3049W        W18943  10.364   8.809  11.500 -0.0819  0.0394  0.0907
 3050W        W18944   6.361   3.342  14.947 -0.1477 -0.2486 -0.0948
 3051W        W18945   7.127   9.455  12.724 -0.2208 -0.0136 -0.3266
 3052W        W18946  13.888  14.065   2.670  0.1646 -0.1755  0.3161
 3053W        W18947   9.084  10.618   0.816  0.0716 -0.0073  0.1095
 3054W        W18948  17.782  18.197   1.876  0.1871  0.0813  0.1442
 3055W        W18949  15.717   2.639   2.290  0.0202  0.5700  0.0721
 3056W        W18950   6.596   9.531  12.060 -0.0748 -0.1731  0.2195
 3057W        W18951   2.663  16.577   5.857  0.2982 -0.0550 -0.0458
 3058W        W18952   9.027   6.359  16.310  0.0234 -0.0985 -0.1900
 3059W        W18953   5.909   1.878  12.626  0.0037 -0.2049 -0.2138
 3060W        W18954  13.059  12.002   1.314 -0.1580  0.0037  0.0771
 3061W        W18955   9.213   8.053   1.633 -0.0973 -0.1930  0.1861
 3062W        W18956   9.749   4.915  14.660  0.2478 -0.2810  0.0803
 3063W        W18957   3.600  15.086   3.942 -0.0268 -0.3555 -0.1429
 3064W        W18958  11.339  14.982  13.921  0.0455 -0.0799  0.0681
 3065W        W18959   9.004  12.365   6.167 -0.1501  0.4856 -0.0098
 3066W        W18960   3.197   3.956   2.838 -0.0497  0.0987 -0.0192
 3067W        W18961   9.703   3.552  12.281  0.1594  0.0053  0.3608
 3068W        W18962   7.475  11.668  11.104 -0.1832  0.0185  0.0116
 3069W        W18963   1.601  12.949   1.668 -0.1956 -0.0607  0.0959
 3070W        W18964  17.177  13.804  12.045 -0.3294  0.1624 -0.2518
 3071W        W18965  11.238  12.660  12.221  0.0217 -0.3088  0.1257
 3072W        W18966   9.769  16.355  14.010  0.0711  0.3555 -0.0342
 3073W        W18967   2.984  11.392   2.507 -0.2498 -0.0857 -0.0628
 3074W        W18968   3.995  11.015   3.116 -0.2481 -0.1236  0.1208
 3075W        W18969  14.354  14.914  14.848 -0.1947  0.0313 -0.1029
 3076W        W18970   9.002   8.410   2.182  0.4112  0.0299 -0.1780
 3077W        W18971   4.341   2.420  14.608  0.0507 -0.0219 -0.0256
 3078W        W18972   1.466  14.135  12.335  0.1163  0.1834  0.0246
 3079W        W18973   9.853   4.860   2.075 -0.1601  0.1501 -0.0444
 3080W        W18974  17.956  10.556   3.660 -0.0494 -0.0595  0.0410
 3081W        W18975   5.782   0.795  11.530 -0.2498  0.0377 -0.0261
 3082W        W18976   8.383   9.886   5.503 -0.1714  0.0568  0.1835
 3083W        W18977  15.489   4.726  16.324  0.4511 -0.0153  0.0750
 3084W        W18978  12.511   1.464   2.707 -0.1492 -0.0077  0.1059
 3085W        W18979  10.637   8.146   1.809 -0.1915  0.3286 -0.0732
 3086W        W18980   8.495  12.426  14.247  0.0128 -0.1223 -0.0756
 3087W        W18981   7.820  15.344  16.437 -0.1353 -0.0160 -0.2393
 3088W        W18982   5.828   7.225   0.615  0.2493 -0.0733  0.0975
 3089W        W18983   7.888  14.728   4.935  0.2586 -0.0574  0.2737
 3090W        W18984   6.940  13.711  14.854  0.2791 -0.1860 -0.2565
 3091W        W18985   7.162  15.161   3.299  0.0803  0.3176 -0.2587
 3092W        W18986   3.232   3.973  12.095  0.0139 -0.0156  0.1063
 3093W        W18987  12.095   2.977   4.622  0.0773  0.1762 -0.0877
 3094W        W18988   1.072  10.608  14.949  0.0741 -0.2711 -0.0676
 3095W        W18989   1.411  11.701  11.964  0.3868 -0.0678  0.3068
 3096W        W18990  16.003   3.789   5.446  0.0421 -0.0438 -0.0970
 3097W        W18991   7.458  13.899   4.768 -0.2091  0.0545 -0.0288
 3098W        W18992  17.549   2.632   5.919 -0.0031  0.5468 -0.0892
 3099W        W18993   4.066   5.896   1.920 -0.0181  0.3383  0.0321
 3100W        W18994   5.473  15.014   3.867 -0.1258  0.2547 -0.1417
 3101W        W18995   1.529  11.094   2.357 -0.1190 -0.1618 -0.0201
 3102W        W18996  15.365   6.105   3.973  0.1565 -0.2166 -0.0938
 3103W        W18997   2.536   5.959  15.132 -0.0633 -0.2682 -0.1412
 3104W        W18998  10.102   2.650   3.939 -0.1789  0.0782  0.1228
 3105W        W18999   7.900   3.723  11.615  0.1488 -0.2897  0.0335
 3106W        W19000  16.294   1.733  14.803 -0.0202 -0.0102  0.0825
 3107W        W19001  12.319   3.415  10.563  0.0552 -0.1062  0.0286
 3108W        W19002   3.790   1.115   1.392 -0.2351  0.2905  0.0467
 3109W        W19003  13.543  12.944   3.887  0.1898  0.0767 -0.3549
 3110W        W19004   9.499  15.989   2.606 -0.1652 -0.0072  0.4099
 3111W        W19005  16.110  15.418   5.684 -0.3420  0.1891  0.0151
 3112W        W19006   8.050   0.452  11.659  0.1872  0.0701 -0.1525
 3113W        W19007  11.119  15.037   2.225  0.0101 -0.2537 -0.0435
 3114W        W19008  10.743   7.743   5.517  0.1665  0.1834 -0.1400
 3115W        W19009   5.419  13.785  16.210 -0.0072  0.1034  0.2670
 3116W        W19010   1.604  10.020   2.214 -0.0376 -0.2869  0.0228
 3117W        W19011   9.380   0.030   0.992 -0.1723  0.2038 -0.2417
 3118W        W19012  14.108  12.392   1.013 -0.0213 -0.0369  0.1140
 3119W        W19013  16.436   4.538  12.401 -0.1051  0.0139  0.2961
 3120W        W19014  17.950   4.787   1.372 -0.3604  0.0597  0.1639
 3121W        W19015   8.394   3.032   5.811 -0.0579 -0.0636  0.2002
 3122W        W19016  18.165   9.512   3.732  0.0787  0.0991 -0.0988
 3123W        W19017   5.850  13.173  13.567 -0.2038  0.0865 -0.0739
 3124W        W19018   5.342   3.506  12.536 -0.1352 -0.0921  0.1530
 3125W        W19019   0.327  12.983   2.563 -0.3700  0.0901 -0.1825
 3126W        W19020   2.187  13.406  13.542  0.0932  0.0764 -0.1724
 3127W        W19021   2.283   5.394   3.203  0.0122 -0.0864  0.1693
 3128W        W19022   8.537  14.201  11.906 -0.2167 -0.0277  0.0606
 3129W        W19023  14.624   5.499  13.494  0.2017 -0.2783 -0.2575
 3130W        W19024  13.831   5.391  13.807  0.0809  0.2175  0.0077
 3131W        W19025   3.004  13.873  15.569 -0.0714 -0.4010 -0.0318
 3132W        W19026   3.993   3.425  14.561  0.2595  0.0272 -0.2300
 3133W        W19027  16.001  12.972  14.710 -0.0487  0.1511  0.1043
 3134W        W19028   3.713   4.246   0.797  0.0166  0.2657 -0.3842
 3135W        W19029  15.602   2.061  11.438  0.0639  0.0119  0.1862
 3136W        W19030   0.364  13.517  13.886 -0.1078  0.0676  0.2945
 3137W        W19031   2.985   5.543  15.922  0.5339 -0.2723  0.3857
 3138W        W19032  16.712  16.207   2.763  0.0284 -0.2488 -0.0614
 3139W        W19033  10.936  11.404  11.842 -0.0401 -0.0359  0.2071
 3140W        W19034   9.160   0.006   1.741 -0.2689 -0.3133 -0.1943
 3141W        W19035   5.248   1.631   0.186  0.0662  0.0925  0.2669
 3142W        W19036   0.026   3.445  12.714  0.0928 -0.0092  0.2172
 3143W        W19037   0.695   6.302   0.052  0.3151 -0.0456  0.2396
 3144W        W19038  17.640  14.141  12.159  0.0586 -0.0112 -0.2107
 3145W        W19039   6.259  16.226  12.216 -0.0000 -0.0720 -0.0365
 3146W        W19040   8.967  13.617  14.689 -0.0119  0.2698 -0.1308
 3147W        W19041  11.769  17.638   4.731 -0.0104  0.0890 -0.0272
 3148W        W19042   2.497  17.588  13.064 -0.4648 -0.0100 -0.1145
 3149W        W19043   9.890  13.939  12.462  0.3294  0.0286 -0.0333
 3150W        W19044   8.363   4.433   0.457  0.0742 -0.0378 -0.0215
 3151W        W19045   7.561  11.487   3.194 -0.1686  0.2312 -0.0046
 3152W        W19046   7.653  15.147   4.758  0.1799  0.1499  0.1162
 3153W        W19047   6.396   6.064  14.191 -0.0803 -0.2628  0.0463
 3154W        W19048  18.175  16.524  14.284  0.0854  0.0328  0.0535
 3155W        W19049   9.555  17.527  11.946 -0.3187 -0.0909 -0.1374
 3156W        W19050  16.501  11.652   3.838  0.1446  0.0332  0.2510
 3157W        W19051   3.917  10.321   1.431 -0.2700 -0.2672 -0.1062
 3158W        W19052   4.964   7.634   1.602 -0.1208 -0.0554 -0.1492
 3159W        W19053   8.309   6.838  15.197 -0.4394 -0.2167 -0.3317
 3160W        W19054   7.357   8.039   9.883 -0.2895  0.1645 -0.1220
 3161W        W19055  10.234   9.977   2.820  0.3569  0.4735 -0.1054
 3162W        W19056   9.190   4.038  13.766  0.1887  0.0259  0.5307
 3163W        W19057   6.219  13.012   0.101 -0.1242  0.1482  0.2395
 3164W        W19058   4.759  16.914   3.579  0.1371  0.0474  0.0235
 3165W        W19059  13.740   0.665  15.537 -0.1636 -0.1043 -0.0342
 3166W        W19060  16.840   0.041   4.816 -0.2006 -0.0462  0.1522
 3167W        W19061  17.057   8.532  15.147  0.4386 -0.1980 -0.2498
 3168W        W19062   6.538   0.520   1.742 -0.2467  0.1608 -0.0161
 3169W        W19063   5.507  10.838  12.997  0.1425  0.2003  0.0752
 3170W        W19064  10.168  13.852   3.835  0.0752 -0.0971 -0.3097
 3171W        W19065   4.191  11.219  14.933  0.1427 -0.2329 -0.0272
 3172W        W19066  12.887   0.064   4.057  0.1344 -0.3766  0.1891
 3173W        W19067   1.349   3.084   0.564 -0.1876 -0.2673 -0.1632
 3174W        W19068  10.533  10.444  13.083 -0.2443 -0.2651 -0.4600
 3175W        W19069  12.775  11.182   1.577  0.2992  0.0083 -0.1791
 3176W        W19070  15.045   4.436  14.673  0.0538 -0.1476 -0.1030
 3177W        W19071   7.485   6.962  16.142 -0.2232  0.0132 -0.3848
 3178W        W19072   0.521  11.836   2.137  0.0461  0.1883 -0.0404
 3179W        W19073  10.338  12.216   2.719 -0.0135 -0.0402  0.1875
 3180W        W19074   9.363  10.073  15.393  0.0081  0.1699  0.1489
 3181W        W19075   6.976  15.435   2.946  0.0168  0.1115  0.0584
 3182W        W19076   9.512   6.820   2.565  0.0053  0.1776 -0.2371
 3183W        W19077   7.403   8.826  12.191  0.1136  0.3309  0.2167
 3184W        W19078   8.548  16.655  14.531  0.2146  0.1768 -0.3258
 3185W        W19079  14.020   6.743   1.565 -0.3877  0.1581  0.0327
 3186W        W19080   3.226   0.067   1.814 -0.0542 -0.0032  0.0044
 3187W        W19081  16.608  17.445   3.258 -0.3670  0.0128 -0.0988
 3188W        W19082  13.803   6.875   5.018 -0.0308  0.2646 -0.0971
 3189W        W19083   7.559  14.987   5.988  0.1474 -0.0658 -0.2646
 3190W        W19084   8.915   5.046   1.031 -0.3086  0.1614 -0.0436
 3191W        W19085   7.167   3.019  15.344 -0.2272 -0.3903  0.2968
 3192W        W19086  10.639   5.284   0.191 -0.1158  0.1011  0.0027
 3193W        W19087  16.024   9.289   2.384 -0.1236 -0.0781  0.3376
 3194W        W19088   7.494   0.990  12.373 -0.3168  0.2957  0.2229
 3195W        W19089  16.355   3.524  13.116 -0.2780  0.0946 -0.0176
 3196W        W19090   3.764  12.927   3.180  0.3433 -0.2459  0.0615
 3197W        W19091  11.656   6.560  11.334  0.2793 -0.0001 -0.1592
 3198W        W19092   8.841   9.301  15.852 -0.0722  0.1460  0.0245
 3199W        W19093   3.806   2.339  15.527 -0.1057 -0.2860 -0.1875
 3200W        W19094  15.470   7.016   1.265 -0.0462  0.1060 -0.0151
 3201W        W19095  11.314  15.940   5.835  0.0409 -0.0915  0.1701
 3202W        W19096  10.794   5.724   0.576 -0.3401  0.0605 -0.1297
 3203W        W19097  17.952   7.647   2.967 -0.0809 -0.0235 -0.2553
 3204W        W19098  13.162  14.624  16.451  0.0680 -0.2581 -0.1131
 3205W        W19099   7.091   4.457  12.656  0.0155  0.1912  0.1782
 3206W        W19100   0.099   3.736  16.409 -0.2590 -0.1091 -0.2576
 3207W        W19101   3.206  14.755   0.002  0.1282  0.0247  0.1267
 3208W        W19102  10.035  13.357   2.899 -0.0891  0.2276  0.5052
 3209W        W19103  11.991  17.767  13.565  0.0207  0.2153 -0.1646
 3210W        W19104  10.582  13.435  15.603 -0.3250 -0.0616 -0.3724
 3211W        W19105  10.567   5.104   4.483 -0.1216  0.0401  0.1646
 3212W        W19106   6.494  17.575  14.590  0.3329  0.2617  0.4806
 3213W        W19107   5.076  15.559  11.404  0.2513 -0.1429 -0.1306
 3214W        W19108   1.544   7.429   5.736  0.1428  0.1012  0.2288
 3215W        W19109   2.964   2.895   5.519  0.0222 -0.3000  0.1619
 3216W        W19110  13.181  12.390  13.163  0.1034  0.3494  0.0559
 3217W        W19111  17.076   9.332   1.635  0.0518 -0.0405 -0.0670
 3218W        W19112  16.406  18.142  14.088 -0.0273 -0.2109 -0.0993
 3219W        W19113   8.243  14.821   1.948 -0.0939  0.1264 -0.0798
 3220W        W19114  12.768   2.181  10.970 -0.0267 -0.1145 -0.1568
 3221W        W19115   6.320   9.260   5.473 -0.0210  0.4061  0.1398
 3222W        W19116   1.180  16.547   2.595  0.0887  0.2030 -0.0584
 3223W        W19117   9.826  15.413   1.558 -0.2236  0.2183 -0.4392
 3224W        W19118   2.636   1.657   3.622  0.1789  0.0237 -0.1957
 3225W        W19119  13.472  10.681   1.152  0.2224 -0.0497 -0.0856
 3226W        W19120   2.034   7.254  13.487 -0.0709  0.2648 -0.0911
 3227W        W19121   2.304  15.252  12.172 -0.0027 -0.1052  0.1191
 3228W        W19122  18.123  11.322  14.867  0.1587  0.2347 -0.2832
 3229W        W19123  16.295   4.250  15.668  0.2727 -0.1167  0.0200
 3230W        W19124   0.606   0.099   3.673  0.3053 -0.0104 -0.2364
 3231W        W19125   2.677  14.780   5.670 -0.2217 -0.2965 -0.1756
 3232W        W19126  18.081  11.883   4.796 -0.1486  0.0517 -0.2408
 3233W        W19127  15.614   3.767   0.887 -0.3175  0.0359 -0.0244
 3234W        W19128   9.868   7.674  14.804  0.3376  0.2049  0.1396
 3235W        W19129   3.333  11.130   4.783  0.0682  0.0794 -0.4004
 3236W        W19130   3.702  15.724   0.950 -0.4239  0.1609 -0.2313
 3237W        W19131  16.144   3.030  14.826  0.1873  0.3167  0.0482
 3238W        W19132   1.281  11.435   2.003 -0.0026 -0.3109  0.1670
 3239W        W19133  13.158  10.699  16.165  0.0554 -0.2936  0.0135
 3240W        W19134  18.127  13.123  15.409 -0.0751  0.2744 -0.0562
 3241W        W19135   3.663   8.867   4.448  0.0544  0.3620  0.0038
 3242W        W19136  10.254  15.366   2.681 -0.1180 -0.1911  0.1331
 3243W        W19137   5.702   5.781  16.449 -0.0001  0.2073  0.0511
 3244W        W19138  14.551  11.211   3.859 -0.3736 -0.1197 -0.0486
 3245W        W19139  10.301   0.055   6.083  0.1019  0.0459 -0.0132
 3246W        W19140  12.711   6.961   2.685  0.0235  0.1707  0.2106
 3247W        W19141   2.752  15.839   3.040  0.1605 -0.1744  0.2623
 3248W        W19142   2.408   0.258  12.223  0.2364 -0.3187  0.0360
 3249W        W19143  13.829   1.547   5.733 -0.4322 -0.2910 -0.0236
 3250W        W19144   3.085   2.765  15.100  0.3265  0.1138  0.2922
 3251W        W19145  11.264  15.173   6.603  0.2675  0.2254  0.0395
 3252W        W19146   0.582   8.258  16.058  0.1985 -0.1827  0.1741
 3253W        W19147   0.478  17.094  12.011 -0.0651 -0.2648 -0.0901
 3254W        W19148   1.397  15.557  13.929  0.0150  0.2010  0.1138
 3255W        W19149  12.204   1.277  11.473  0.0730  0.1584  0.1964
 3256W        W19150   7.959  14.691   5.796 -0.0082 -0.0635  0.1463
 3257W        W19151   0.051   6.184   3.409  0.0621 -0.2260 -0.0186
 3258W        W19152  16.493   5.934  13.222  0.0992  0.0023  0.1076
 3259W        W19153   2.651  17.955   1.170 -0.1639 -0.0167 -0.1616
 3260W        W19154  10.465   6.356   1.520  0.0307  0.2403  0.0642
 3261W        W19155   8.020   8.519  15.033 -0.1579  0.3698  0.4461
 3262W        W19156   4.007   0.167   4.616 -0.0870 -0.0355  0.0941
 3263W        W19157   1.226   2.054   1.018 -0.2435 -0.0958  0.3138
 3264W        W19158   5.392  10.732   5.035  0.3048  0.1007 -0.0982
 3265W        W19159   1.997  16.901  15.457  0.1645  0.2559 -0.1665
 3266W        W19160  12.098   7.721  14.994 -0.1019 -0.0278  0.1734
 3267W        W19161   7.962  11.002   4.247  0.1985 -0.2461 -0.0328
 3268W        W19162  16.543  16.825   1.039  0.1070  0.0180  0.1062
 3269W        W19163   2.840   4.709  15.914 -0.3389 -0.1474  0.1142
 3270W        W19164   6.007   5.473  13.424  0.1611 -0.0361  0.2602
 3271W        W19165   7.674  14.231  16.044  0.1426  0.0406 -0.1031
 3272W        W19166  12.866  12.133   1.786  0.1373 -0.0794  0.0100
 3273W        W19167   0.547   2.424  16.002  0.4693 -0.0682  0.2880
 3274W        W19168   4.420   0.300  12.522 -0.2100 -0.0385  0.2506
 3275W        W19169   9.137  15.283   2.135  0.0012  0.2573 -0.0809
 3276W        W19170  13.847  16.798   1.459  0.0840 -0.2860  0.2114
 3277W        W19171   3.009   8.484   1.222 -0.1466 -0.1851  0.0286
 3278W        W19172   2.666   2.620  16.388 -0.1804  0.0517  0.1049
 3279W        W19173   1.302  10.467   0.936  0.1047 -0.0874 -0.1113
 3280W        W19174  11.861  16.732  14.851 -0.1204  0.2070  0.2659
 3281W        W19175  16.776   3.412  11.353  0.0565 -0.0727 -0.0891
 3282W        W19176  12.436  13.571  13.246 -0.4076  0.2900 -0.0416
 3283W        W19177   6.848  12.917  13.536 -0.0129 -0.1814  0.0448
 3284W        W19178   5.465  11.611  13.088  0.0029  0.3352 -0.2662
 3285W        W19179   9.308  11.507   3.651  0.0762 -0.3529  0.0726
 3286W        W19180  16.670   0.582   4.235  0.1488  0.0659 -0.0594
 3287W        W19181  15.412   9.044   1.021 -0.1198  0.2538 -0.4490
 3288W        W19182   1.051  15.055   1.892  0.0698 -0.1006 -0.1829
 3289W        W19183   2.788   8.188   3.009  0.4012 -0.0918  0.1671
 3290W        W19184   7.741  14.037  13.737  0.0251  0.0237  0.0019
 3291W        W19185  12.639  12.991   3.823  0.0708 -0.0855  0.0543
 3292W        W19186  13.673   5.104  15.310 -0.2799 -0.0202 -0.0210
 3293W        W19187   0.648   5.360   5.272 -0.0042 -0.1076 -0.2470
 3294W        W19188   7.114  11.924   2.075 -0.1232 -0.0631  0.0408
 3295W        W19189   6.479  10.069  10.793 -0.3676 -0.1313 -0.2794
 3296W        W19190   5.109   6.128   3.857 -0.2880  0.1610 -0.2276
 3297W        W19191   7.351  14.718  11.512 -0.1480 -0.2152 -0.2071
 3298W        W19192  10.899   5.577   5.062  0.0946  0.0095  0.1698
 3299W        W19193  11.097  14.637  14.165 -0.1125 -0.1438  0.0744
 3300W        W19194  10.944   4.168  11.163 -0.1200  0.0155  0.0781
 3301W        W19195   2.231  11.484   0.575 -0.2073  0.0646 -0.3091
 3302W        W19196   3.950   2.260   4.721 -0.1346 -0.3763 -0.0505
 3303W        W19197   9.344   2.150   0.310  0.0912 -0.0318  0.0798
 3304W        W19198   3.789  11.447   2.313  0.3542 -0.0862 -0.1373
 3305W        W19199   0.441   1.183  13.994  0.1033 -0.0361 -0.3360
 3306W        W19200   9.812   9.580   4.332 -0.1657  0.0769  0.1346
 3307W        W19201   2.962  13.452  13.480  0.2559 -0.3218  0.1308
 3308W        W19202   8.958   1.442  11.594 -0.0325 -0.1468 -0.2412
 3309W        W19203  15.381   4.102  15.668  0.1712 -0.0192  0.1544
 3310W        W19204   6.958   8.208   4.634  0.1874 -0.2152 -0.1643
 3311W        W19205   3.646   5.995  10.918 -0.2213 -0.3004 -0.1605
 3312W        W19206   5.549  11.485   0.386  0.2708  0.1606 -0.2897
 3313W        W19207   9.962   1.843   1.991  0.0380  0.2472 -0.0120
 3314W        W19208   4.459  15.832  12.042 -0.0314 -0.2764 -0.1045
 3315W        W19209  18.237  17.894   0.691 -0.1225 -0.0192  0.1753
 3316W        W19210   3.295   6.372  12.330 -0.2377 -0.2305 -0.0744
 3317W        W19211  15.325   9.430   0.739 -0.2725 -0.0946  0.0912
 3318W        W19212  12.087  10.127   4.999  0.0576  0.1744  0.1916
 3319W        W19213  14.689   5.007  12.490  0.0351 -0.0592 -0.2406
 3320W        W19214   1.171   9.469  15.648  0.1547  0.4239  0.2365
 3321W        W19215  16.176   3.493  10.976 -0.0484  0.2172 -0.0695
 3322W        W19216   8.910   5.404   0.109 -0.0215  0.0407  0.1836
 3323W        W19217  14.130   5.745  12.755  0.0998 -0.0471  0.0595
 3324W        W19218   3.613  15.050   0.183 -0.1558  0.1188  0.3060
 3325W        W19219   9.650   1.931   1.187  0.2160 -0.1245 -0.0514
 3326W        W19220   0.814   3.299  16.238  0.0525 -0.1101  0.3423
 3327W        W19221  15.935  11.183  15.562 -0.1838  0.2378  0.3118
 3328W        W19222   7.884   9.098   4.205  0.5326 -0.2764 -0.0879
 3329W        W19223   7.000   9.573   2.835  0.0407 -0.0644 -0.3408
 3330W        W19224   6.511   7.268   3.066 -0.0514  0.0378  0.1975
 3331W        W19225  14.907  14.291   5.395  0.0862 -0.3295  0.2533
 3332W        W19226  13.745   4.097  14.230 -0.3618  0.2463 -0.3418
 3333W        W19227  17.468   6.607   2.647  0.1868  0.1217  0.0836
 3334W        W19228  18.073   7.666   1.461  0.1157  0.0379  0.0685
 3335W        W19229   3.121   8.713   4.872 -0.0299 -0.1044 -0.0532
 3336W        W19230  10.302  16.724  11.293  0.0602  0.1885 -0.0721
 3337W        W19231   3.271   9.232  15.001 -0.3842 -0.1362  0.1042
 3338W        W19232   0.669  11.720   5.985 -0.0285  0.0985  0.2675
 3339W        W19233   4.341  14.310  15.920 -0.3512  0.2663 -0.1184
 3340W        W19234  10.320   5.479  10.291  0.2510 -0.1785 -0.4467
 3341W        W19235  17.631  12.352  14.229  0.0128 -0.0206 -0.3943
 3342W        W19236  17.059  15.961   3.921 -0.1169  0.0221 -0.1247
 3343W        W19237  10.657   2.517   4.086  0.3865 -0.0314  0.2398
 3344W        W19238  11.436  14.143   3.019  0.4136 -0.0443  0.1566
 3345W        W19239   1.980  15.512  14.274  0.3857 -0.0377  0.0541
 3346W        W19240   0.928   8.390   4.398  0.0822  0.2109  0.0240
 3347W        W19241   4.252  15.987  15.796  0.4515  0.4717 -0.1885
 3348W        W19242  12.606  17.643  15.909 -0.0542  0.0294 -0.1925
 3349W        W19243   3.067   6.437   6.251 -0.0194  0.3191 -0.3397
 3350W        W19244  11.771  12.785  15.756 -0.0101  0.2143 -0.0596
 3351W        W19245   1.997   5.828   4.806 -0.0765 -0.0066  0.1867
 3352W        W19246  16.611   4.497   2.644  0.0366 -0.0426  0.2061
 3353W        W19247   1.915  12.640  11.195 -0.1482  0.0201 -0.1187
 3354W        W19248  17.532  10.379  16.086  0.2274 -0.3308 -0.0639
 3355W        W19249   3.509  16.335  11.248 -0.0711 -0.0817 -0.0542
 3356W        W19250  15.238   1.424  14.939 -0.3715  0.0867  0.0316
 3357W        W19251   9.221   4.122   2.002 -0.2063  0.0589  0.1062
 3358W        W19252  16.808  17.586  12.437  0.2400  0.2193 -0.1029
 3359W        W19253  10.688   2.203  16.296 -0.0135 -0.2333  0.0875
 3360W        W19254  11.546  11.703   2.985  0.1843  0.1322  0.1091
 3361W        W19255  10.936   9.300   4.878 -0.1029 -0.3590 -0.1083
 3362W        W19256   9.878   0.909  10.720  0.1820  0.0095 -0.2372
 3363W        W19257   3.120   0.240  10.726 -0.0972 -0.0669 -0.0040
 3364W        W19258  13.494   3.618  13.314  0.2042  0.1458 -0.1439
 3365W        W19259  11.469  15.679   2.506  0.1020 -0.0800 -0.2240
 3366W        W19260  10.191   6.298   2.965  0.1257  0.3378  0.0356
 3367W        W19261   3.633  13.519  14.340  0.0791 -0.0234 -0.3031
 3368W        W19262  10.636  15.148   2.352  0.1382 -0.1526  0.4400
 3369W        W19263  12.983   8.660   5.405  0.0393  0.3992  0.4191
 3370W        W19264   9.640   7.237  14.754 -0.1223  0.2411 -0.0346
 3371W        W19265   5.491  10.156   1.535  0.3067  0.1241 -0.0838
 3372W        W19266   4.803   0.156  12.153  0.3562 -0.0485  0.3447
 3373W        W19267  14.216  10.633   4.412  0.0213  0.1328 -0.0861
 3374W        W19268   3.279  13.829  13.347 -0.1387  0.2067  0.2108
 3375W        W19269   8.707   5.236   3.312  0.0875  0.0046  0.1117
 3376W        W19270   0.196   8.132   3.521  0.2224 -0.0610  0.2112
 3377W        W19271   4.968  11.960  11.769  0.2320 -0.0729 -0.1874
 3378W        W19272   6.378   2.933   3.560 -0.1045  0.0280  0.2313
 3379W        W19273   1.767  12.696  15.655 -0.0776  0.0073 -0.2189
 3380W        W19274  12.478   0.215  16.386 -0.1975 -0.4033  0.1970
 3381W        W19275   4.994  14.126   2.446 -0.2751  0.2507 -0.2784
 3382W        W19276   7.877  15.505   3.807 -0.1696  0.0318 -0.1051
 3383W        W19277   5.161   2.622   5.404  0.2584  0.0211 -0.0629
 3384W        W19278   3.217  12.220   1.177  0.3677  0.4240 -0.0634
 3385W        W19279   0.698   4.590   4.864 -0.0073 -0.0665  0.2058
 3386W        W19280  13.520   6.931   1.915 -0.2448 -0.1982  0.0276
 3387W        W19281   7.004   9.392  13.289 -0.0177 -0.1531 -0.2749
 3388W        W19282   6.960   9.880  12.996  0.1886  0.2429  0.0319
 3389W        W19283  17.716  13.053  15.845 -0.0061 -0.3330  0.2550
 3390W        W19284   9.769   4.508   1.628 -0.0620 -0.0344 -0.1679
 3391W        W19285  15.022  14.591  14.453  0.2140 -0.2696  0.1381
 3392W        W19286  17.861   6.233  15.606 -0.2021  0.0320 -0.3578
 3393W        W19287  10.559  12.272  14.125  0.1079 -0.3023  0.0163
 3394W        W19288  16.554   9.950  15.122  0.0680 -0.0632  0.0703
 3395W        W19289  11.854   7.927  10.805 -0.1999  0.0411  0.1128
 3396W        W19290   9.817   7.953   4.685 -0.0916  0.3597  0.2016
 3397W        W19291  10.839   5.827   1.467 -0.0427 -0.1912  0.1641
 3398W        W19292   8.747   0.195  12.859  0.0116  0.3393  0.2265
 3399W        W19293   0.274   5.767   1.818  0.0279  0.3859 -0.3375
 3400W        W19294  16.294   5.199   4.854  0.2222  0.3083 -0.1231
 3401W        W19295   3.170  14.755   1.914 -0.0919  0.1599 -0.2317
 3402W        W19296   7.954  13.538  13.270 -0.0189  0.3242 -0.0273
 3403W        W19297  10.139  13.339   1.060  0.0743  0.0059 -0.4627
 3404W        W19298  10.333   0.236   3.761  0.1790 -0.0729  0.3279
 3405W        W19299  17.859  10.204  12.955 -0.3375 -0.0029  0.1314
 3406W        W19300   8.330   5.086  12.975 -0.1564 -0.4628 -0.1884
 3407W        W19301   4.297  17.970  11.468 -0.0086 -0.2077 -0.0958
 3408W        W19302  11.363  10.032   5.105  0.1207  0.1430  0.2646
 3409W        W19303   8.078   8.828  12.663  0.2355  0.1312  0.0426
 3410W        W19304  17.750   1.103   0.305 -0.0678  0.1074  0.1918
 3411W        W19305  17.731   4.872   4.119  0.1224 -0.3372  0.1503
 3412W        W19306   2.733  11.677  14.943 -0.1796  0.0281  0.1402
 3413W        W19307  13.998  15.023   3.168 -0.3073  0.2324  0.0579
 3414W        W19308   4.216   5.348  12.057  0.0839 -0.0576  0.1762
 3415W        W19309   3.577  14.712   2.176 -0.0215 -0.1237 -0.0279
 3416W        W19310  14.838  16.515   5.284  0.0611 -0.0565  0.2483
 3417W        W19311  11.556  17.043   3.917 -0.1774  0.2285 -0.0540
 3418W        W19312  10.941  14.581  15.077  0.0596  0.1714  0.3523
 3419W        W19313  10.365   9.688  12.836 -0.2061 -0.0716  0.0535
 3420W        W19314   4.394  14.357  13.460 -0.0857  0.1610  0.1644
 3421W        W19315   1.768   9.632   5.123  0.0481 -0.1083  0.2171
 3422W        W19316  12.109   0.920   4.269 -0.3593 -0.2227  0.1125
 3423W        W19317   5.713   4.780   2.337  0.0549 -0.3078 -0.3110
 3424W        W19318   0.473   8.548   4.677  0.2212  0.1539  0.1566
 3425W        W19319  17.648   6.899   3.616 -0.2282 -0.4428 -0.2799
 3426W        W19320   0.035  12.925  13.131  0.0718  0.2722  0.2406
 3427W        W19321   4.768   2.375  12.055  0.2705 -0.3010 -0.2088
 3428W        W19322  14.140   4.711   4.493 -0.2607  0.1216  0.0029
 3429W        W19323   8.838   3.575   0.750 -0.2695 -0.0293 -0.1665
 3430W        W19324   0.686  11.287  15.333  0.0267  0.1951 -0.1197
 3431W        W19325  10.201   5.236  13.292  0.1667  0.0608  0.2242
 3432W        W19326   9.840   7.155  10.774 -0.0877 -0.0621  0.0420
 3433W        W19327  10.832  13.475   5.867 -0.1704  0.2084 -0.2325
 3434W        W19328   3.064  15.318  14.192 -0.0261 -0.0584  0.1381
 3435W        W19329  17.754  11.420  14.498  0.0421  0.2408  0.1830
 3436W        W19330   4.906   3.963   3.352 -0.1139 -0.1098 -0.0054
 3437W        W19331   6.468  10.511  13.546 -0.2498  0.0491  0.1532
 3438W        W19332   9.244  12.821  13.009 -0.0822 -0.1088 -0.0313
 3439W        W19333   6.313  11.170   1.027 -0.3411  0.2712  0.2912
 3440W        W19334   0.499  10.346  16.301 -0.0069  0.0897 -0.0381
 3441W        W19335   0.796   9.680   2.036  0.1652 -0.2196  0.0015
 3442W        W19336   2.966   4.897  11.465 -0.0862 -0.0248 -0.1609
 3443W        W19337   0.648   8.327   3.248 -0.0346 -0.1083 -0.1025
 3444W        W19338   7.744   3.980   4.469  0.2336  0.2870 -0.0267
 3445W        W19339  13.104  14.364   2.392  0.1557  0.0890  0.2409
 3446W        W19340   2.635   2.632  11.151 -0.1796  0.0050  0.0538
 3447W        W19341  17.504  12.299   5.388  0.2255  0.1383 -0.0183
 3448W        W19342   2.514  10.165   1.977  0.2451  0.1065  0.2234
 3449W        W19343   6.360  15.447  14.306 -0.2623 -0.0997 -0.0200
 3450W        W19344   9.203   7.403  13.714  0.2393 -0.3230 -0.1521
 3451W        W19345   6.997   1.258  13.938 -0.1714  0.1649  0.1963
 3452W        W19346   4.140  16.205  14.189 -0.2087  0.2673 -0.1837
 3453W        W19347  16.458   1.932  12.076 -0.2556  0.2061  0.1588
 3454W        W19348   6.408  10.516  16.108  0.0292 -0.0861  0.1362
 3455W        W19349   8.637   2.855   0.644  0.0276  0.1007 -0.2371
 3456W        W19350  14.018  11.384  13.621  0.3191  0.0352 -0.0170
 3457W        W19351   8.962   7.528  15.239 -0.1526 -0.2644 -0.1152
 3458W        W19352  10.269   4.764  12.011 -0.2690 -0.0047  0.4310
 3459W        W19353   8.851  17.375  13.644  0.0599  0.0471 -0.1346
 3460W        W19354  17.088  11.569   5.200  0.3112 -0.2064 -0.0641
 3461W        W19355   2.116   5.309  15.227  0.1307  0.4783  0.0330
 3462W        W19356   1.189  15.368   0.503  0.4414 -0.2246 -0.3607
 3463W        W19357   6.554   6.704   3.580  0.1904 -0.1919  0.0593
 3464W        W19358   6.279  13.208  14.280  0.0718  0.0556  0.0442
 3465W        W19359  14.935  14.894   0.791 -0.1356  0.0908 -0.0411
 3466W        W19360  10.558   1.751   0.849 -0.0552  0.2365  0.0400
 3467W        W19361  13.080   9.478   4.038 -0.0126  0.2919  0.0549
 3468W        W19362  13.710   3.631   4.654 -0.0138 -0.1865  0.0412
 3469W        W19363  15.596  12.710   0.787  0.1533 -0.4537  0.0030
 3470W        W19364  17.854   8.115  13.048  0.0906 -0.0893  0.1656
 3471W        W19365  12.007   5.265  15.170 -0.0421  0.0177  0.0937
 3472W        W19366   8.085  12.846   2.594  0.3880  0.0642  0.1859
 3473W        W19367  14.460   1.573   3.946  0.1862 -0.0103  0.0635
 3474W        W19368   9.468   9.695  11.836 -0.1015 -0.1026  0.1085
 3475W        W19369   0.680  11.699   4.336  0.1328  0.1948  0.1929
 3476W        W19370  16.758   8.959  12.233 -0.4879  0.2337 -0.0303
 3477W        W19371  13.479   7.839  11.130  0.2193  0.1973 -0.3286
 3478W        W19372  17.895   1.327  13.032 -0.0569  0.1582 -0.1216
 3479W        W19373   8.359  14.937  12.363  0.0481  0.1583 -0.2153
 3480W        W19374  15.205   9.576  15.602 -0.0500 -0.2003 -0.1658
 3481W        W19375   6.997   4.654  12.172 -0.1736 -0.3911  0.1557
 3482W        W19376   2.619   5.084  13.728  0.1396  0.0619 -0.1400
 3483W        W19377  15.195  17.874  10.424  0.1789  0.2398 -0.0172
 3484W        W19378  18.230   9.396  13.969 -0.2414 -0.0890  0.1693
 3485W        W19379   7.533   0.552   5.930 -0.2037 -0.0262 -0.0702
 3486W        W19380   1.033  17.455   4.052  0.1145  0.0014 -0.1317
 3487W        W19381   6.516   3.668   4.621  0.0554 -0.0304  0.1024
 3488W        W19382  17.378  11.712  15.264  0.1790 -0.0871  0.1830
 3489W        W19383   5.888  15.570   2.502 -0.2892 -0.1864 -0.1397
 3490W        W19384   4.974  13.408  11.695  0.2102 -0.2271 -0.0044
 3491W        W19385  11.552  12.307   3.618  0.1598  0.2872 -0.0425
 3492W        W19386   4.559   6.213  14.751 -0.2224 -0.2062  0.2895
 3493W        W19387   5.246   7.547  14.735 -0.1381  0.0848  0.0252
 3494W        W19388  16.679   1.737  11.653  0.2742  0.0687 -0.1143
 3495W        W19389   7.432  15.549   1.537  0.1285 -0.0652  0.0330
 3496W        W19390  14.671  17.924  14.706  0.1414 -0.0240  0.1640
 3497W        W19391   6.907  14.175   2.529 -0.0303  0.3630 -0.2480
 3498W        W19392  10.877  13.473   3.262 -0.0398  0.2565  0.2097
 3499W        W19393   4.863   9.530  14.300 -0.0415  0.0029 -0.0976
 3500W        W19394  14.345   5.476  14.306  0.0912  0.1541  0.1454
 3501W        W19395  16.077   0.787  14.931 -0.4255 -0.0233 -0.2740
 3502W        W19396  15.371   1.839   3.997  0.0679 -0.4499  0.0875
 3503W        W19397  15.115  12.750   0.804 -0.2078 -0.2495 -0.2229
 3504W        W19398  14.157  14.112   2.204  0.0886 -0.0118 -0.4265
 3505W        W19399  11.689  15.833  14.419 -0.0806  0.0739 -0.1391
 3506W        W19400   9.687   2.508  13.873 -0.2203 -0.0358 -0.1445
 3507W        W19401   7.659  16.790   1.182  0.4144 -0.0235  0.3538
 3508W        W19402   1.944  15.084  15.685  0.1966  0.0877  0.0131
 3509W        W19403   1.742   9.054   4.482  0.1501  0.1277 -0.0567
 3510W        W19404   8.445  16.853   4.346  0.1871 -0.1584 -0.0748
 3511W        W19405   3.220  18.070  13.636  0.4981 -0.0363 -0.2280
 3512W        W19406   6.531  12.084   5.923  0.2461  0.1520  0.1388
 3513W        W19407   9.864   2.196   4.089 -0.0211  0.0163 -0.1191
 3514W        W19408   4.493  12.114  11.523  0.1394  0.1279  0.0913
 3515W        W19409   4.596   2.106   1.885 -0.1236  0.0364 -0.0858
 3516W        W19410  16.012  10.011   6.138  0.1052  0.3013  0.0493
 3517W        W19411  14.034  14.696  14.275 -0.0865  0.1984 -0.2093
 3518W        W19412  11.758  13.502  15.034  0.0222 -0.3078  0.0865
 3519W        W19413   1.553   5.404   0.998 -0.0033 -0.2397 -0.0455
 3520W        W19414  18.084   5.053  12.104 -0.2168 -0.1752  0.3410
 3521W        W19415   2.037  11.511  13.023  0.1623 -0.0442 -0.0727
 3522W        W19416  16.835   4.007  14.054 -0.0933 -0.0685  0.1269
 3523W        W19417   4.431  17.241   3.463  0.0310  0.2318 -0.1451
 3524W        W19418   0.592  10.349   1.611 -0.0085  0.0326 -0.0470
 3525W        W19419   5.639   9.268  11.613  0.0755  0.2599  0.1957
 3526W        W19420  16.185   1.313  12.506  0.0127 -0.2645  0.0685
 3527W        W19421   0.199  10.632   2.826  0.0939  0.0293 -0.1695
 3528W        W19422  12.907  15.262  14.372 -0.1637  0.1096  0.1489
 3529W        W19423   3.656   5.899   4.276 -0.0939  0.1566 -0.2129
 3530W        W19424   3.121  12.715   2.598  0.1775  0.0587  0.1644
 3531W        W19425   4.133  16.598   2.945  0.0422  0.3370 -0.2221
 3532W        W19426  11.374   5.895  12.353 -0.0175 -0.3311 -0.1689
 3533W        W19427   3.887  11.714  12.440 -0.0904 -0.3646  0.0711
 3534W        W19428   3.167  11.530  16.135  0.0189  0.0380 -0.1369
 3535W        W19429  13.394  14.175  16.045 -0.1024  0.0027 -0.0301
 3536W        W19430   0.259  17.202   1.543 -0.2860  0.2255 -0.1863
 3537W        W19431  17.541   6.586  15.882 -0.3163  0.3245 -0.5357
 3538W        W19432   6.323   7.167   3.455 -0.0354  0.2545  0.1572
 3539W        W19433   3.858  12.267  14.830 -0.0748 -0.1624 -0.2800
 3540W        W19434  13.145   8.113  13.626 -0.0495 -0.0104  0.2898
 3541W        W19435   5.363   8.558   1.451  0.6163 -0.2422  0.1613
 3542W        W19436   0.529   0.003   5.623  0.1221 -0.0523 -0.1697
 3543W        W19437  10.646  12.743   2.000  0.2070  0.2291 -0.0056
 3544W        W19438  13.876   6.411   3.034 -0.0546  0.0262  0.3501
 3545W        W19439   3.169   0.757  10.633 -0.5463  0.4142 -0.0841
 3546W        W19440   8.125   2.788   2.648  0.1820  0.1038  0.0655
 3547W        W19441  16.069  18.033  13.672  0.3142 -0.0541  0.1909
 3548W        W19442  14.870   5.939  12.110 -0.0841  0.2527 -0.0210
 3549W        W19443   3.232  15.689   4.422 -0.5336  0.1434 -0.0232
 3550W        W19444  12.406  13.614  16.117  0.3171  0.1648 -0.0821
 3551W        W19445  16.273   2.074  13.949 -0.0679 -0.2844 -0.0511
 3552W        W19446  11.050  14.069  14.347 -0.1905 -0.2973 -0.3013
 3553W        W19447   7.448   3.363   5.693 -0.0900  0.1140  0.0357
 3554W        W19448   6.813  13.783  11.774  0.0395 -0.3302 -0.1501
 3555W        W19449   3.538  14.812  11.999  0.2439 -0.0684 -0.0486
 3556W        W19450  13.322  13.301   3.153  0.0809  0.1086  0.0753
 3557W        W19451  16.774   7.519   0.858  0.2483 -0.0125  0.0304
 3558W        W19452  10.547   1.948  12.451  0.1624 -0.0587  0.3743
 3559W        W19453   0.628   0.587  15.023 -0.3435 -0.1354  0.1265
 3560W        W19454  16.188   9.923   3.816 -0.0407  0.3847 -0.2420
 3561W        W19455  11.762   0.763   3.100 -0.0598 -0.0037 -0.2687
 3562W        W19456   9.134  11.900   1.592  0.0178  0.2210 -0.0825
 3563W        W19457   9.006  17.257  11.904  0.2970  0.0890  0.0656
 3564W        W19458  17.913   2.236  11.799 -0.1157 -0.0180  0.1970
 3565W        W19459  13.301  11.857   1.909 -0.3389 -0.2594  0.1671
 3566W        W19460   1.218  16.560   0.007 -0.1663  0.0920 -0.0735
 3567W        W19461  14.835   9.965   4.461  0.0101  0.2280  0.0576
 3568W        W19462   5.431   2.881  11.921  0.1384 -0.2145 -0.1526
 3569W        W19463   7.152  14.066  16.224  0.0318 -0.1439 -0.3893
 3570W        W19464   4.413  13.214   1.615  0.1071 -0.0391 -0.1174
 3571W        W19465  16.208  14.288   5.852  0.1117  0.1391 -0.0426
 3572W        W19466  12.773   5.471   1.527 -0.0171 -0.0961  0.3841
 3573W        W19467  12.746   0.905   1.640  0.1641  0.2256  0.0715
 3574W        W19468   3.115  11.812  14.616 -0.0673 -0.0203 -0.3025
 3575W        W19469  13.180   8.258  11.973  0.2146 -0.2414 -0.0262
 3576W        W19470  17.551  13.291   0.478 -0.2691  0.0259  0.1342
 3577W        W19471   5.407  12.684  14.340 -0.0817 -0.0627  0.0396
 3578W        W19472   6.340  11.491   0.503 -0.1669 -0.0640  0.0930
 3579W        W19473   5.883  16.996   2.294  0.3581 -0.1115 -0.0904
 3580W        W19474   8.151   1.307  10.740  0.1109 -0.4193 -0.0574
 3581W        W19475   5.319  13.493  13.268  0.0793  0.2960  0.0834
 3582W        W19476  12.659   4.951   4.848 -0.1538  0.0545  0.2648
 3583W        W19477  10.142   2.746  14.111 -0.0608 -0.2317  0.3078
 3584W        W19478  14.617   1.023   2.002 -0.1520  0.0750 -0.1310
 3585W        W19479   3.433   1.152  11.954 -0.1895 -0.0099  0.1652
 3586W        W19480   2.923   2.792   4.677 -0.0565 -0.1818  0.1716
 3587W        W19481  17.438   9.728   5.213 -0.3013  0.0398 -0.0509
 3588W        W19482   1.653  17.605   1.580 -0.2088  0.0095 -0.5159
 3589W        W19483  11.594   0.826  12.227  0.0326  0.1912  0.0293
 3590W        W19484   0.143  12.263   5.262  0.1995 -0.1136  0.0476
 3591W        W19485   1.136   2.469   1.978 -0.0002  0.2209  0.3974
 3592W        W19486  12.083   7.310   4.495 -0.1964  0.2448  0.2335
 3593W        W19487  10.503   4.782  15.251 -0.3941  0.0596  0.4349
 3594W        W19488   3.006   4.274   2.450 -0.0270 -0.1331 -0.3428
 3595W        W19489   4.488   1.769   1.287 -0.2664  0.1308 -0.1034
 3596W        W19490  14.583  15.358   4.664  0.1292  0.0833 -0.1124
 3597W        W19491   1.457   0.808   3.395  0.1831 -0.0470 -0.0588
 3598W        W19492  11.856   4.963  12.274 -0.1454  0.0143 -0.0301
 3599W        W19493  12.388   4.866   0.613  0.1921 -0.1112  0.2851
 3600W        W19494  14.295   6.206   0.975  0.0770 -0.0929  0.3225
 3601W        W19495  16.552  15.046   2.864 -0.1546 -0.2415  0.1541
 3602W        W19496   7.706   3.092  15.126 -0.0610 -0.0684 -0.1012
 3603W        W19497   2.678   0.969  13.240  0.3061 -0.0437  0.2444
 3604W        W19498   9.983   9.442   1.844  0.0735 -0.2557 -0.2281
 3605W        W19499   3.352  10.030   2.115 -0.0265 -0.0598 -0.0078
 3606W        W19500   6.844  14.996  11.358  0.0263 -0.1445 -0.0550
 3607W        W19501   2.353   5.782  16.417 -0.0296 -0.0131  0.2085
 3608W        W19502   1.130   8.908  14.424  0.0368  0.1518  0.1170
 3609W        W19503   9.726  14.559  13.824  0.2955  0.1886 -0.0937
 3610W        W19504   0.669  11.987  15.985 -0.2276  0.2503  0.2378
 3611W        W19505   3.936   3.802   0.637 -0.1559  0.2037 -0.1085
 3612W        W19506   6.583   0.774   0.761  0.4792  0.0486 -0.1042
 3613W        W19507  12.535   8.593  15.548 -0.1138  0.0565 -0.0092
 3614W        W19508   8.825  10.387   3.727  0.0169 -0.2432 -0.0753
 3615W        W19509  12.817   8.332   2.511  0.3222  0.2064  0.3364
 3616W        W19510  17.149  10.773   0.397  0.0637 -0.1761  0.2950
 3617W        W19511   7.947  11.089   1.253  0.2055  0.0964 -0.1578
 3618W        W19512   0.250  11.320   4.950  0.1164 -0.1897 -0.1259
 3619W        W19513  15.418  15.246  14.780  0.2399 -0.4116  0.2040
 3620W        W19514  15.523  12.843  13.032  0.2655  0.2283  0.4275
 3621W        W19515  13.368   7.962   5.954 -0.1010 -0.0032  0.1562
 3622W        W19516   0.035   9.079   0.855  0.0738 -0.0343  0.2414
 3623W        W19517   7.874  16.273   0.907 -0.3333 -0.3400 -0.0608
 3624W        W19518   2.794   3.417  13.964  0.4399  0.1893 -0.1159
 3625W        W19519   2.609  12.388  14.091 -0.0072  0.1112 -0.1613
 3626W        W19520   9.867  16.360  15.880  0.0265  0.4080 -0.3356
 3627W        W19521   8.453   5.848  15.323  0.1436  0.0504 -0.3156
 3628W        W19522   6.893  12.354   2.338 -0.2415  0.2262  0.1495
 3629W        W19523  13.824   7.012   2.543 -0.1180  0.1087  0.3501
 3630W        W19524  13.345  17.838  11.433  0.0635  0.1724  0.1042
 3631W        W19525   5.456  11.134  11.640  0.2358 -0.1752  0.6325
 3632W        W19526  13.412   5.126  13.906  0.0208 -0.0532 -0.0209
 3633W        W19527  11.160   8.925   4.599  0.0263 -0.0534 -0.1081
 3634W        W19528   0.543   9.795   5.121  0.1633 -0.1124 -0.2084
 3635W        W19529   6.821   1.810   5.286 -0.2126 -0.2236 -0.4426
 3636W        W19530  13.996   0.488  13.055 -0.1767 -0.3963 -0.1064
 3637W        W19531   0.668  15.234  13.243  0.2951  0.2936  0.0005
 3638W        W19532   7.246  11.546   2.802 -0.0886 -0.0693 -0.0897
 3639W        W19533  15.303  16.739   4.458 -0.1118 -0.2868 -0.0612
 3640W        W19534   9.680   9.088   3.842 -0.3777  0.2923  0.1062
 3641W        W19535  18.151   9.086   5.355 -0.3317  0.1387 -0.3226
 3642W        W19536  11.215  12.194  12.172 -0.2387 -0.2535 -0.2829
 3643W        W19537   3.485  15.376   1.496 -0.2366 -0.0500  0.1147
 3644W        W19538   9.029  10.712  12.399  0.2771  0.1232 -0.0879
 3645W        W19539  10.620   0.883  13.971 -0.1514 -0.2580  0.0918
 3646W        W19540   1.595  12.148   3.922  0.2653  0.0547  0.2372
 3647W        W19541  11.973  11.094   4.424  0.2747  0.1182 -0.2520
 3648W        W19542   5.433   4.251  14.475  0.0065 -0.0641  0.1792
 3649W        W19543   5.999   7.967   2.850 -0.0308  0.0658  0.0021
 3650W        W19544  17.706   7.636  13.689  0.1307  0.1062  0.1308
 3651W        W19545   5.115   8.871   5.943 -0.1012 -0.1408  0.0645
 3652W        W19546   6.153   4.127   2.449  0.0210 -0.3076 -0.1535
 3653W        W19547   2.102   0.780   1.300 -0.1760  0.1958  0.0182
 3654W        W19548   2.233  12.684   4.456  0.2395 -0.2193 -0.0258
 3655W        W19549   3.085   0.417   5.322 -0.0550 -0.0779  0.1169
 3656W        W19550  12.854   3.116   0.428 -0.2635  0.2550  0.0530
 3657W        W19551  10.808  11.032   2.003  0.2570 -0.0713 -0.2616
 3658W        W19552   3.464  18.216   4.992 -0.0593 -0.2809  0.0414
 3659W        W19553   1.107  14.340  13.230  0.0230 -0.0569 -0.0015
 3660W        W19554  16.964   3.300   3.869 -0.0983 -0.1445  0.0297
 3661W        W19555   9.622  15.339   0.418  0.1973  0.0965 -0.1419
 3662W        W19556  12.993   3.712  13.857 -0.0492 -0.0659  0.2123
 3663W        W19557  13.032   7.678   3.876 -0.1273  0.0555  0.0847
 3664W        W19558   0.913   8.730   4.786  0.1793  0.0383 -0.0786
 3665W        W19559  11.671   5.938   4.486 -0.1330  0.1358 -0.1833
 3666W        W19560   3.227  17.866   4.120 -0.0432  0.1931  0.0427
 3667W        W19561  10.748   0.029   5.173 -0.3499  0.2588 -0.1040
 3668W        W19562  15.434   6.591   4.150 -0.2231  0.4112  0.0931
 3669W        W19563   3.704   7.076   5.134  0.0077 -0.3732  0.0088
 3670W        W19564  13.182  16.316   2.983 -0.2656 -0.1542  0.2124
 3671W        W19565   7.806  15.835  16.124 -0.1586  0.2875  0.1069
 3672W        W19566  12.653   2.387   1.137  0.0918 -0.0113  0.3221
 3673W        W19567   4.217   5.000  15.225  0.1469 -0.2051  0.2930
 3674W        W19568   1.386  16.458  11.377 -0.0380  0.1645 -0.0941
 3675W        W19569  14.589   5.948   4.039 -0.3691 -0.2384 -0.2290
 3676W        W19570  10.922   6.221  12.285 -0.5071 -0.3282  0.1322
 3677W        W19571   3.666   7.965   0.417  0.1437  0.3646 -0.0250
 3678W        W19572  14.335  16.275   3.039 -0.0524  0.0325  0.0770
 3679W        W19573   2.649  16.638  14.999  0.1006  0.1786  0.0987
 3680W        W19574   0.275  16.921   4.740 -0.0497 -0.3067  0.0652
 3681W        W19575   0.399   8.654   0.975  0.1675 -0.1497  0.0236
 3682W        W19576  15.801   3.830  13.523  0.0131 -0.0148 -0.2108
 3683W        W19577  17.285   5.061   0.733 -0.0786 -0.1126 -0.0951
 3684W        W19578  16.540  16.792  10.350 -0.1611 -0.2856 -0.1886
 3685W        W19579  17.627  10.798   1.075 -0.3592  0.0867 -0.2184
 3686W        W19580  14.857   3.330   0.341  0.3037 -0.1499  0.1791
 3687W        W19581   9.058  17.086   0.674  0.0138  0.0101 -0.1111
 3688W        W19582  15.877  14.477  14.705  0.1438  0.2435 -0.0577
 3689W        W19583  13.860   1.656   0.051 -0.2090  0.0907  0.2861
 3690W        W19584   0.153   5.244   4.569  0.2200 -0.1679 -0.0785
 3691W        W19585   2.985   7.908  15.954 -0.1042 -0.0812  0.1859
 3692W        W19586  12.970   4.557   2.059 -0.1927  0.4679 -0.0199
 3693W        W19587   8.271   6.398   2.727  0.1749  0.0511 -0.0384
 3694W        W19588  12.130   8.847  11.728  0.0998 -0.0134 -0.1013
 3695W        W19589   0.113   8.119  14.303  0.0701  0.0451 -0.0941
 3696W        W19590  11.930  14.218   6.170 -0.2517 -0.1153  0.0334
 3697W        W19591  10.169   9.477  16.280 -0.1549  0.2533 -0.1332
 3698W        W19592   9.321   1.672  15.617  0.1948  0.2101  0.0197
 3699W        W19593  10.186   3.414  12.079  0.1512 -0.1158  0.0638
 3700W        W19594   2.156  10.214  16.377 -0.2297  0.3307  0.5221
 3701W        W19595  13.441   2.541   1.441  0.1712  0.2680 -0.0719
 3702W        W19596  13.813   9.430   3.110  0.2248 -0.1177 -0.2471
 3703W        W19597   6.658   6.984   0.487 -0.2181  0.4561  0.2229
 3704W        W19598   8.694   0.025  14.798 -0.3473 -0.2458 -0.0384
 3705W        W19599   3.348   2.569   0.647 -0.0416  0.3213  0.0431
 3706W        W19600  18.091   3.249   0.066  0.2253 -0.2001  0.1481
 3707W        W19601  16.628  16.405  14.907  0.1518  0.3538 -0.0398
 3708W        W19602   9.818   1.782  11.976  0.0472  0.0814 -0.2730
 3709W        W19603  16.648  12.346  12.101  0.3145 -0.0459 -0.0246
 3710W        W19604  11.845  13.617   3.414 -0.3176 -0.4165 -0.0533
 3711W        W19605  14.679  17.432   0.591 -0.0279  0.3977 -0.1494
 3712W        W19606   5.534   7.944   2.690 -0.0915  0.1287 -0.2574
 3713W        W19607  17.571  10.388  13.295 -0.0898  0.3006  0.0741
 3714W        W19608   4.144   2.780   4.004  0.1776  0.0401 -0.0073
 3715W        W19609   3.109  17.424   2.350 -0.0299 -0.0371  0.2694
 3716W        W19610  15.073  12.934  15.153  0.1224  0.1655  0.2050
 3717W        W19611   6.381   6.806   2.257 -0.0103  0.1644 -0.1164
 3718W        W19612  16.974   4.197   3.452  0.1520 -0.0311  0.1725
 3719W        W19613   2.216  13.358   3.169 -0.1236  0.3534  0.0911
 3720W        W19614   4.277   6.684  11.626  0.0002 -0.0379 -0.2757
 3721W        W19615   6.869  16.774   3.421  0.1005  0.0798  0.2691
 3722W        W19616   3.526  14.930   1.264  0.0374 -0.2801 -0.1844
 3723W        W19617  17.578  10.917   2.633 -0.0268  0.1949 -0.1251
 3724W        W19618   4.279  16.670  12.598  0.0137  0.2477  0.1256
 3725W        W19619   5.988   8.137   5.281 -0.2491  0.1790 -0.0668
 3726W        W19620   9.989   6.612   1.780 -0.1520 -0.2232  0.2738
 3727W        W19621  15.677  10.322   5.467 -0.1432  0.1264  0.0738
 3728W        W19622   6.104  11.895   0.617  0.0036  0.2643 -0.0013
 3729W        W19623   7.050  15.507   1.826  0.1011  0.0859  0.0227
 3730W        W19624  10.210  15.339   2.195  0.2477  0.0767  0.2752
 3731W        W19625  13.389  18.143   0.364 -0.0175 -0.0566  0.2158
 3732W        W19626   2.267  11.196   4.607  0.1371 -0.1451 -0.0780
 3733W        W19627   0.088   7.365  16.244  0.1808  0.0556 -0.2737
 3734W        W19628   9.335   7.285   1.248  0.0915  0.0380 -0.0158
 3735W        W19629   6.779   9.622  16.094 -0.0232 -0.1573  0.1315
 3736W        W19630   3.637   4.869   2.120 -0.0258 -0.1950 -0.1079
 3737W        W19631   0.294  12.155  12.251 -0.1116 -0.4316 -0.0614
 3738W        W19632  13.165  11.212  13.241 -0.1154 -0.0869 -0.1555
 3739W        W19633   9.225   7.383  14.236  0.2310 -0.1294 -0.2007
 3740W        W19634  16.752   4.889  11.047 -0.3768  0.2012 -0.2507
 3741W        W19635   6.326   5.300  16.047 -0.0444  0.0372 -0.3634
 3742W        W19636  15.435  11.362  13.410 -0.0975  0.0924 -0.3536
 3743W        W19637   2.308   5.156   0.595  0.0571  0.3246  0.2191
 3744W        W19638   4.324  13.607  10.717  0.0934 -0.3201 -0.0925
 3745W        W19639   5.486  15.138  16.417 -0.0461 -0.3872 -0.2345
 3746W        W19640   9.820   8.290   9.752 -0.1050 -0.1956  0.0961
 3747W        W19641  17.749   8.938  11.172  0.3484  0.2411  0.3562
 3748W        W19642   3.592   7.067   3.098 -0.0608 -0.2926  0.2755
 3749W        W19643  10.818   9.817   5.057  0.0215 -0.1565 -0.2919
 3750W        W19644   5.058  15.519   4.664 -0.0941 -0.0744 -0.3109
 3751W        W19645   4.734   4.396   5.009  0.2168  0.1122 -0.0726
 3752W        W19646  15.669  10.392  15.830 -0.2028 -0.2941 -0.2648
 3753W        W19647  13.305   9.288   3.566 -0.0466 -0.2278 -0.1337
 3754W        W19648   5.521  14.215  15.436  0.3294 -0.1862 -0.0255
 3755W        W19649  11.999  16.063   3.720 -0.0867  0.2909 -0.2723
 3756W        W19650  16.083   3.936   3.154  0.0706 -0.1793  0.0345
 3757W        W19651   2.317   2.946  16.236  0.0698 -0.1304  0.3350
 3758W        W19652  15.642  13.677  12.929  0.1742 -0.0353 -0.0379
 3759W        W19653   1.738   3.045  11.104 -0.0193 -0.0332  0.2578
 3760W        W19654  16.743  17.316  14.341 -0.2503  0.1752 -0.1689
 3761W        W19655   4.269  12.020  14.673  0.4978  0.0859  0.2740
 3762W        W19656  16.027  12.014   3.555  0.1117 -0.0758 -0.2573
 3763W        W19657  17.697   5.362   0.610 -0.3189 -0.1487  0.1374
 3764W        W19658   1.556   5.307  13.537  0.0790 -0.0490 -0.1162
 3765W        W19659   9.852  10.632   5.254 -0.4663  0.1015 -0.4189
 3766W        W19660  13.996   4.813   2.808 -0.0163 -0.0817  0.0807
 3767W        W19661  10.200   6.360  12.645  0.0149 -0.2869 -0.0373
 3768W        W19662  11.838  15.591  13.140  0.1074 -0.1884 -0.0699
 3769W        W19663   5.109  12.072  15.727 -0.2324 -0.3999  0.1290
 3770W        W19664   8.214  13.715  11.642  0.3735  0.2091  0.2169
 3771W        W19665  10.543  10.672  16.209  0.0425  0.0298  0.4506
 3772W        W19666  12.993   3.284  14.218  0.2122 -0.0208  0.1324
 3773W        W19667  14.217   1.450   0.466  0.0582  0.0606  0.0426
 3774W        W19668  17.975  13.115   2.271 -0.0903  0.0277  0.0065
 3775W        W19669  15.645  12.210  14.545  0.1359  0.1031  0.0836
 3776W        W19670   6.661  10.387   5.703  0.2305  0.2286 -0.1737
 3777W        W19671   7.635   2.257   1.437  0.1659  0.0856 -0.0573
 3778W        W19672  12.845  17.717  13.102  0.3346 -0.2255  0.0612
 3779W        W19673  12.116   5.100  14.607  0.0503  0.0118 -0.1511
 3780W        W19674  15.446   6.043   0.142  0.1514  0.0305  0.2044
 3781W        W19675  10.744   4.374  13.418  0.1030 -0.2516  0.1618
 3782W        W19676   9.604  12.557  13.904 -0.1914 -0.2340  0.0888
 3783W        W19677   9.437   4.482   0.336 -0.0017  0.0299  0.3085
 3784W        W19678   4.831   5.867  11.684  0.1647  0.3284  0.1694
 3785W        W19679   4.142   7.961  14.123 -0.3456 -0.1050 -0.0483
 3786W        W19680  16.469   3.019   5.148  0.1395 -0.0668  0.3932
 3787W        W19681  14.840  13.738  12.855 -0.1498  0.1495 -0.1176
 3788W        W19682   7.408  15.163  15.337  0.0027 -0.0267  0.2356
 3789W        W19683  14.917  14.104   2.734  0.2107 -0.1167  0.1286
 3790W        W19684  15.502   7.471   0.937  0.2932  0.2562  0.1016
 3791W        W19685   7.048   2.638   1.094 -0.3926 -0.0075 -0.2049
 3792W        W19686   6.197   9.402  12.500 -0.0656 -0.1105  0.0044
 3793W        W19687   4.245   0.073  12.029 -0.1069  0.3190  0.1332
 3794W        W19688   4.436  11.533  10.659  0.0244  0.1897 -0.1964
 3795W        W19689   5.505  12.742  11.817  0.1370  0.0827  0.1563
 3796W        W19690   8.772   8.811   0.678  0.1307  0.0441 -0.2171
 3797W        W19691  16.221  16.033   3.604  0.1267 -0.2172  0.1061
 3798W        W19692   4.666   8.039   3.970  0.1527  0.0502  0.6333
 3799W        W19693   5.965  17.594   3.948 -0.1128 -0.1259  0.3726
 3800W        W19694  10.281   4.028   1.866 -0.2503  0.1004 -0.0824
 3801W        W19695  17.125  15.137   5.835 -0.0331  0.1739  0.2187
 3802W        W19696  10.658  15.847  15.698  0.1270  0.3344  0.0909
 3803W        W19697   0.428   2.152  11.339 -0.2419  0.1293  0.2156
 3804W        W19698  16.858  17.133  11.768 -0.1066  0.0078 -0.0847
 3805W        W19699   5.956  11.024  11.700  0.0109  0.0097  0.3640
 3806W        W19700   2.947  10.855  14.363 -0.1803 -0.0493 -0.4736
 3807W        W19701  10.223   1.535   5.399 -0.0446 -0.0702  0.2144
 3808W        W19702  13.204  10.861  14.634 -0.0406 -0.0511 -0.1789
 3809W        W19703  18.053  14.695  13.356  0.0166  0.1888  0.1359
 3810W        W19704  16.732   5.487   0.085 -0.1378 -0.1304 -0.2564
 3811W        W19705  13.398  16.952   3.919  0.2268  0.2557  0.0258
 3812W        W19706  14.228   0.774  15.449  0.2002 -0.2201  0.1504
 3813W        W19707  15.034   4.281  12.166  0.1879  0.0170 -0.3031
 3814W        W19708   4.966  15.059  16.345 -0.0961  0.1630  0.1288
 3815W        W19709   6.386  16.776   3.348 -0.2672  0.1810 -0.2376
 3816W        W19710   5.581   9.469  12.986  0.0282  0.1040  0.2270
 3817W        W19711   3.449   8.436   5.225 -0.0607  0.0024  0.0875
 3818W        W19712   0.614   0.810   2.607  0.1609  0.1991 -0.0162
 3819W        W19713  17.216   4.214  12.540 -0.1950  0.0260 -0.2395
 3820W        W19714   2.528   4.679  11.131  0.0994 -0.0168 -0.1288
 3821W        W19715   7.045   8.562  11.228 -0.1250  0.0650 -0.1764
 3822W        W19716   2.652  17.127   4.084 -0.0670 -0.4633  0.1800
 3823W        W19717   2.463   1.169  15.306 -0.0290 -0.2605 -0.0983
 3824W        W19718   0.385   3.140   1.805  0.2439 -0.0593  0.1142
 3825W        W19719   9.283  17.034   4.945 -0.1572  0.1336  0.1584
 3826W        W19720   2.368   5.186   4.354 -0.2658 -0.2685 -0.0661
 3827W        W19721   1.408  18.207   2.254 -0.3722 -0.0886 -0.0580
 3828W        W19722   8.969  17.825  14.721  0.1404 -0.2182 -0.0976
 3829W        W19723   2.407   0.391  15.996  0.1657 -0.0106 -0.1358
 3830W        W19724  16.685   6.644   6.075  0.4686  0.0951 -0.2988
 3831W        W19725   0.765   6.725  14.072  0.1032  0.0922 -0.3018
 3832W        W19726  12.887  17.223  14.988 -0.0683 -0.1105  0.1888
 3833W        W19727  12.310   2.365  12.877 -0.3267  0.3639 -0.1656
 3834W        W19728  15.287   4.130   1.044  0.2278 -0.3257 -0.0943
 3835W        W19729   4.466  15.794   3.457  0.3676  0.0936  0.1244
 3836W        W19730   0.470   7.172   1.272  0.4078  0.1284 -0.1313
 3837W        W19731   7.902  12.698   0.063  0.0982  0.1726  0.1247
 3838W        W19732   7.827  10.017   2.687  0.1382  0.1717 -0.1374
 3839W        W19733  11.124   7.861  16.091 -0.0573 -0.3007 -0.1182
 3840W        W19734  10.239   9.016  15.695  0.0085 -0.2163  0.1106
 3841W        W19735  12.963   4.861  11.367 -0.1272  0.2245 -0.4033
 3842W        W19736  15.178  13.295  11.953  0.0404 -0.0865 -0.1953
 3843W        W19737   8.794   5.508  12.146  0.0824  0.0129 -0.0292
 3844W        W19738  12.362  13.837   4.359 -0.0060  0.0364 -0.0518
 3845W        W19739  16.324  17.411  12.717 -0.3146 -0.0438  0.0588
 3846W        W19740   5.087  13.818   5.312  0.3543 -0.1465  0.0538
 3847W        W19741   8.639   7.782  12.064  0.0088 -0.1930  0.0871
 3848W        W19742   6.280   6.586   3.982  0.4108  0.1219 -0.0099
 3849W        W19743   4.558   1.020  13.196 -0.0850 -0.0719 -0.0261
 3850W        W19744  12.143   8.118  15.245 -0.2855 -0.2681  0.0289
 3851W        W19745  14.282  10.958   0.604 -0.0308 -0.1158 -0.2041
 3852W        W19746   1.302  14.093  16.299 -0.0340 -0.2149  0.0680
 3853W        W19747  16.163   7.939  12.852 -0.1479  0.0823 -0.2855
 3854W        W19748   4.767   6.643   4.103 -0.1156  0.0298 -0.0880
 3855W        W19749   7.009  10.783   4.265 -0.0700 -0.1656  0.2421
 3856W        W19750   4.980   1.124   3.856  0.1548  0.1501 -0.1957
 3857W        W19751   9.184  16.053  15.747  0.0149  0.1564  0.3566
 3858W        W19752   2.544  10.863  12.366  0.0329 -0.3500 -0.0154
 3859W        W19753   9.492  16.384  12.274  0.1889  0.3994 -0.1742
 3860W        W19754   3.646  11.195   0.326  0.0047 -0.2422  0.1971
 3861W        W19755  17.983  13.659   4.752  0.0861  0.2027 -0.2057
 3862W        W19756  13.922  11.670  15.430  0.2718 -0.0008 -0.0486
 3863W        W19757   6.878  17.624   3.972  0.1316  0.2595 -0.0340
 3864W        W19758  11.206  10.596  11.709  0.0186  0.0061  0.0313
 3865W        W19759   3.989  14.885  14.824  0.5108  0.1990 -0.0450
 3866W        W19760  15.422   8.492  14.706  0.1925 -0.2219 -0.1302
 3867W        W19761   9.409   3.725  11.487  0.2313 -0.0412 -0.3196
 3868W        W19762  12.263  10.692  13.053  0.0076 -0.1715  0.1458
 3869W        W19763   4.201  16.727  11.897  0.0155 -0.0593  0.2025
 3870W        W19764  16.913  17.556   2.800 -0.2438 -0.1049  0.0212
 3871W        W19765   0.524  17.230   4.341 -0.1247 -0.2081  0.0739
 3872W        W19766   9.095   8.875  16.003 -0.1543 -0.2549  0.2274
 3873W        W19767   9.060   3.506  15.179  0.1134  0.0157 -0.3425
 3874W        W19768   1.151  17.174  15.610  0.0977 -0.0866 -0.0621
 3875W        W19769   7.501   2.875   5.606 -0.0584  0.0781 -0.0177
 3876W        W19770  10.708   3.665   3.332  0.6374 -0.1343  0.0913
 3877W        W19771  17.926  12.774   5.276  0.1951 -0.5197 -0.1454
 3878W        W19772  15.209  15.695   5.274 -0.0664 -0.0815 -0.2112
 3879W        W19773  14.717  11.308  13.053  0.0788  0.2127 -0.0322
 3880W        W19774  15.262   2.827  15.294  0.0073  0.3480 -0.0203
 3881W        W19775   2.532   6.256   1.149  0.0663 -0.0956 -0.2385
 3882W        W19776   1.886  10.312  15.480 -0.4752 -0.1146 -0.3411
 3883W        W19777   6.238  15.056   5.396 -0.0124 -0.1927 -0.0738
 3884W        W19778  11.549   8.518   5.905 -0.0800 -0.4537  0.1644
 3885W        W19779  12.716  15.662   4.139  0.0147  0.1135  0.0658
 3886W        W19780   1.091  10.941   1.988  0.0957 -0.2663 -0.1181
 3887W        W19781   5.885  15.196   0.964 -0.0470  0.0804  0.1376
 3888W        W19782   8.286  13.133   1.397  0.1159 -0.0591 -0.1753
 3889W        W19783  15.462   1.394  15.951 -0.0443  0.1357  0.4733
 3890W        W19784   0.774  11.698  12.577  0.5910 -0.0656 -0.2407
 3891W        W19785   4.241   6.182   5.155 -0.1967 -0.0263 -0.2808
 3892W        W19786   8.335   6.146   5.280 -0.1043 -0.1298 -0.2057
 3893W        W19787   7.460  12.316  13.215  0.0773  0.0649  0.3162
 3894W        W19788  14.756   0.877   2.473  0.1312  0.0307 -0.0854
 3895W        W19789   3.120  11.638   4.855 -0.3185 -0.0379  0.1076
 3896W        W19790  12.035  15.508   3.412 -0.1572 -0.3085  0.0827
 3897W        W19791  14.091  16.632  12.055  0.1272 -0.0393 -0.0746
 3898W        W19792   1.857   6.453  11.123 -0.3163  0.0239  0.2777
 3899W        W19793   6.484  13.705  14.581  0.0769  0.4334  0.1451
 3900W        W19794  15.330   8.472   4.122 -0.1127 -0.1201  0.3735
 3901W        W19795   4.522   0.087  14.152  0.1039  0.3065 -0.0729
 3902W        W19796   6.848   2.869  10.646  0.0442  0.1625  0.1875
 3903W        W19797   4.001  17.957   0.220  0.1516 -0.0135 -0.0392
 3904W        W19798  13.586   6.093  16.131  0.1042 -0.2642  0.0749
 3905W        W19799   9.135   0.498  12.632  0.1016  0.1746  0.0599
 3906W        W19800  11.680   0.634   4.069 -0.0856  0.1940 -0.0416
 3907W        W19801  10.040   7.392  15.608  0.0979 -0.0718  0.1436
 3908W        W19802   7.963  12.993  15.258 -0.0720  0.0690 -0.2522
 3909W        W19803  12.820   1.783   2.464 -0.1128 -0.3003 -0.0559
 3910W        W19804  13.822   8.750   1.914  0.2477 -0.1046 -0.2588
 3911W        W19805  11.809  14.000   0.659 -0.5761  0.1422  0.0840
 3912W        W19806  10.417   6.928  14.422 -0.2115 -0.2189  0.1861
 3913W        W19807  16.034   1.723  12.303 -0.0364  0.1239 -0.2904
 3914W        W19808  13.986   8.529  14.371 -0.0255 -0.0780  0.2395
 3915W        W19809   7.318   7.963   3.811  0.0683  0.1420 -0.0551
 3916W        W19810   4.851   5.860   2.006  0.1454  0.0872 -0.0129
 3917W        W19811  12.687  10.320  14.427 -0.2732  0.0325  0.0319
 3918W        W19812   3.066   9.743   3.285 -0.2107 -0.0396  0.3017
 3919W        W19813   6.641  14.962   3.128  0.1818  0.3636  0.2970
 3920W        W19814   3.208  17.274   4.255  0.0478 -0.0474 -0.4277
 3921W        W19815  10.146  17.399  14.301  0.1410  0.1275  0.1031
 3922W        W19816   3.382  14.833   3.449 -0.1915  0.2722  0.0454
 3923W        W19817  16.118   5.560  12.251 -0.3022  0.0814 -0.0840
 3924W        W19818   6.778  12.433   3.251  0.1617 -0.1240  0.1547
 3925W        W19819   7.472   8.860   5.470 -0.2494 -0.1813  0.0082
 3926W        W19820  17.608   7.285  13.362  0.0069 -0.1099 -0.0658
 3927W        W19821  10.439  14.752   1.465 -0.2137  0.1886 -0.1308
 3928W        W19822   1.733  17.081  12.066 -0.0451 -0.3272 -0.0474
 3929W        W19823   3.709  15.019   5.990 -0.1311  0.1508  0.1066
 3930W        W19824   9.796   9.643  12.346  0.3158  0.1053  0.1522
 3931W        W19825   9.098   2.338   1.763 -0.3700 -0.3976  0.3945
 3932W        W19826  17.321   0.193   2.768  0.0109 -0.3279 -0.1451
 3933W        W19827  15.483   6.456  16.362  0.1366  0.2143 -0.0231
 3934W        W19828   2.743   6.524  13.395  0.1325  0.0455 -0.2112
 3935W        W19829   4.915   1.672  14.983 -0.2121 -0.1006  0.0351
 3936W        W19830  16.878   9.851   0.347  0.0223 -0.2098  0.2453
 3937W        W19831   9.135   9.977  12.173 -0.0895 -0.0337 -0.1610
 3938W        W19832  12.010  12.160   0.367  0.0704 -0.0014 -0.3983
 3939W        W19833   2.170  16.054  15.982  0.2669  0.3818 -0.1985
 3940W        W19834   8.618   9.992   1.717  0.0938  0.0769  0.1344
 3941W        W19835  11.271   3.994   4.588 -0.0808 -0.1915 -0.2599
 3942W        W19836   9.082   4.130  10.597  0.0424 -0.1086 -0.3128
 3943W        W19837   2.264  17.288  12.163  0.2122 -0.2584 -0.3864
 3944W        W19838  14.912   9.695  14.991 -0.0846 -0.2971  0.1022
 3945W        W19839  15.540   5.219   5.262 -0.1989 -0.1104 -0.0255
 3946W        W19840   1.147   8.827   1.118 -0.0054  0.0782  0.1671
 3947W        W19841  14.726   2.882  15.507 -0.3035  0.0533 -0.0554
 3948W        W19842  12.485   9.922  12.808 -0.1171 -0.4242  0.0419
 3949W        W19843  16.822   4.520  13.718 -0.2749  0.0041 -0.1337
 3950W        W19844  10.594   9.208  12.804 -0.1298  0.0322 -0.0219
 3951W        W19845  16.686   7.584   4.590  0.0376 -0.2266  0.2029
 3952W        W19846  10.735  17.471   1.814  0.1845 -0.0437 -0.0704
 3953W        W19847  15.511  18.162  11.896 -0.3683 -0.2009 -0.4705
 3954W        W19848   2.228   1.979  13.034 -0.1451 -0.0659  0.1326
 3955W        W19849  14.403  13.048   6.111  0.1284 -0.0778  0.1095
 3956W        W19850   0.221  12.193   4.689  0.0646 -0.2731  0.0622
 3957W        W19851  12.786  12.105  13.359 -0.1226  0.0343 -0.0384
 3958W        W19852  13.739   1.012   1.923 -0.0303  0.2488  0.0757
 3959W        W19853   1.218  11.462   0.022 -0.1919 -0.0044 -0.1875
 3960W        W19854   7.187   3.282   0.572  0.2576 -0.1598 -0.0302
 3961W        W19855  18.212   4.238   2.865 -0.0888 -0.5242 -0.0416
 3962W        W19856  12.582   8.370  12.843 -0.1636 -0.2449 -0.1475
 3963W        W19857   6.883   7.150   2.687  0.2095  0.0820  0.0645
 3964W        W19858   3.696   8.011   4.981 -0.0662  0.0059 -0.0096
 3965W        W19859   5.198  10.032  14.202  0.0715  0.1922  0.2072
 3966W        W19860  16.155  13.620  11.708  0.2900  0.0183 -0.0604
 3967W        W19861  11.803  12.360  11.395  0.0643  0.1029 -0.1284
 3968W        W19862  18.002  10.127   0.416  0.4496  0.3743  0.0525
 3969W        W19863   5.762  11.061  16.296 -0.1118  0.4095  0.0336
 3970W        W19864   4.493   8.826  14.090 -0.1488  0.2307  0.0479
 3971W        W19865   0.518  14.684   0.007  0.0136 -0.0978 -0.0790
 3972W        W19866  16.767   3.869   4.816  0.1636 -0.0188  0.1015
 3973W        W19867  14.622  11.820   0.091 -0.0580 -0.0493 -0.1566
 3974W        W19868   4.798  15.116  12.456  0.0534 -0.3500  0.1162
 3975W        W19869  13.788   9.838  11.371  0.5283 -0.1362 -0.1066
 3976W        W19870   5.933   0.030   4.824 -0.0414 -0.1563 -0.4344
 3977W        W19871   5.095  14.720  10.966 -0.0871  0.2024 -0.1328
 3978W        W19872   2.560  16.808  11.454 -0.2035  0.0711 -0.1981
 3979W        W19873   5.748  17.513  15.112  0.0481 -0.1401  0.1753
 3980W        W19874   0.970  11.191   5.313  0.0811  0.4544  0.0846
 3981W        W19875  17.106  16.970  11.367 -0.0394  0.0073 -0.0221
 3982W        W19876   3.239  11.056  13.924 -0.3050  0.3880 -0.3422
 3983W        W19877   6.228  15.933  16.089  0.0075  0.1829 -0.3251
 3984W        W19878  10.758  15.885   1.544  0.1619 -0.1179  0.2166
 3985W        W19879   3.507  12.678  14.753 -0.1668 -0.0253  0.0690
 3986W        W19880  10.176  12.862   4.388 -0.1754  0.3135  0.4301
 3987W        W19881   1.751  17.726  14.942  0.2950  0.0351  0.2642
 3988W        W19882   3.449   4.203  14.640  0.0355  0.1200  0.0891
 3989W        W19883   3.409   6.065  13.956  0.0734 -0.0276 -0.1149
 3990W        W19884   2.281  13.885  14.824 -0.2323 -0.1474  0.3586
 3991W        W19885   6.676   2.454   2.243  0.1788 -0.1384  0.0697
 3992W        W19886  17.126   4.353  16.302 -0.0957  0.2339  0.0083
 3993W        W19887   3.941   3.764   5.472  0.2690  0.0045  0.0480
 3994W        W19888   4.837  12.902  11.835  0.5189  0.1114  0.2425
 3995W        W19889   7.181   2.472  15.287 -0.1439  0.2596 -0.1350
 3996W        W19890  17.221  13.744   3.277 -0.1982 -0.0826 -0.0539
 3997W        W19891  13.227   1.111   2.797 -0.0909 -0.2867  0.1023
 3998W        W19892   7.693   8.357   2.478  0.0768 -0.4498  0.2148
 3999W        W19893  11.446   1.359  13.425  0.2016 -0.0877  0.3536
 4000W        W19894  11.774   7.448   0.058  0.0451  0.2719 -0.1450
 4001W        W19895   2.088   2.172   2.406 -0.1784  0.0675 -0.2102
 4002W        W19896   9.190  14.445  14.139 -0.1653  0.1589 -0.0761
 4003W        W19897   6.476   9.918   0.422 -0.0735 -0.0627 -0.0591
 4004W        W19898   8.776  12.396   2.790  0.3379 -0.0260  0.1745
 4005W        W19899   7.939  13.227   2.263 -0.3364  0.5752  0.3145
 4006W        W19900   1.534   2.244   3.501  0.2903  0.1763 -0.1013
 4007W        W19901  14.616  10.980   4.388 -0.0070 -0.0411 -0.0711
 4008W        W19902   3.390   7.172   2.005 -0.0019 -0.0166  0.1417
 4009W        W19903   1.156   5.606  14.091 -0.4455  0.1940 -0.0416
 4010W        W19904  14.480   4.633  11.022  0.0523 -0.0441  0.2054
 4011W        W19905   0.194  18.234   1.004 -0.0117  0.0924 -0.1003
 4012W        W19906   2.017   8.971   4.949  0.2842  0.1630  0.0695
 4013W        W19907  11.251   8.574  13.312 -0.1284  0.1318 -0.1513
 4014W        W19908   9.628  12.787  11.727 -0.2444 -0.1196 -0.1876
 4015W        W19909   3.295   0.748   4.208  0.0032  0.3007 -0.1525
 4016W        W19910   6.507  14.629   5.345 -0.1507 -0.1117 -0.2306
 4017W        W19911  16.494   0.369  12.800  0.1638 -0.3357 -0.0858
 4018W        W19912   3.119  10.511   2.953 -0.2132  0.0368 -0.1590
 4019W        W19913   9.065   3.373  11.572  0.6925  0.1294 -0.1548
 4020W        W19914   9.269   7.938  11.024  0.1072 -0.0394  0.0495
 4021W        W19915  17.037   4.897  15.826  0.3224 -0.0964 -0.0326
 4022W        W19916   8.043   2.842   6.221  0.0495  0.1184 -0.0019
 4023W        W19917  10.390  11.202  11.968  0.0257  0.2327  0.0432
 4024W        W19918   0.561  12.603  12.304  0.1246  0.1279 -0.1331
 4025W        W19919  11.925   1.722   4.604  0.2277  0.1929  0.1082
 4026W        W19920   3.890  11.699   3.632 -0.0762 -0.1719 -0.1131
 4027W        W19921   4.852  18.076   0.063 -0.4089  0.0837 -0.0655
 4028W        W19922   2.105   7.961   0.823  0.0707  0.2991  0.0940
 4029W        W19923  12.506   8.413   1.593  0.1130 -0.0775 -0.3296
 4030W        W19924   1.450  15.750  15.007  0.1192 -0.3294  0.1977
 4031W        W19925   5.834   2.956  11.650 -0.0414 -0.1538  0.1506
 4032W        W19926  10.686  17.970   3.450  0.0612  0.1692 -0.0877
 4033W        W19927  10.901  10.729   6.423 -0.4241 -0.0514 -0.0380
 4034W        W19928   3.437   1.303   1.697  0.2021 -0.1110 -0.0306
 4035W        W19929   3.083  17.426   4.978 -0.1285  0.0190 -0.0015
 4036W        W19930   0.860  14.434   1.927 -0.0728 -0.2818  0.1206
 4037W        W19931   3.454   6.166  11.923  0.0485 -0.2042  0.0736
 4038W        W19932  10.421   7.273  10.559 -0.0694  0.1497  0.0750
 4039W        W19933   5.676   0.427   3.778 -0.1150  0.2633 -0.3019
 4040W        W19934   4.609   6.915   4.968 -0.1883  0.3017 -0.3272
 4041W        W19935  15.514   9.541  12.477 -0.0719 -0.2353  0.2622
 4042W        W19936  10.158   0.103   0.514 -0.2054  0.1934 -0.0227
 4043W        W19937   9.516   9.341   3.317 -0.0051 -0.1835 -0.0807
 4044W        W19938   1.773  15.770   5.198 -0.2422  0.0050  0.1549
 4045W        W19939  13.847  13.229   2.145 -0.3787  0.3436 -0.4405
 4046W        W19940  13.052  14.029  15.576 -0.0617  0.0287 -0.0845
 4047W        W19941  15.287   0.566   3.048  0.3472 -0.0689 -0.2411
 4048W        W19942   2.055   5.341  16.110  0.2085 -0.0586  0.1710
 4049W        W19943  15.519  13.824  14.722  0.0279  0.0799 -0.0369
 4050W        W19944   1.500   6.923   1.923 -0.0989 -0.0643 -0.2188
 4051W        W19945  11.440  10.860   3.423  0.1423 -0.0305  0.0607
 4052W        W19946  14.632  16.453   1.753 -0.1665 -0.2774 -0.3124
 4053W        W19947   7.081   0.416   4.375 -0.1182  0.1558 -0.2556
 4054W        W19948   3.042   4.446  14.504 -0.0078 -0.1924 -0.1724
 4055W        W19949  11.852  15.601   2.919 -0.0294  0.0162 -0.2685
 4056W        W19950  10.136  10.210   4.367  0.2891  0.1918  0.1752
 4057W        W19951   2.096   8.919   4.117 -0.0188 -0.0166 -0.1218
 4058W        W19952   8.604   6.293  14.470 -0.1189 -0.4268  0.0630
 4059W        W19953  12.041   6.820  16.440 -0.0931  0.2148  0.0528
 4060W        W19954  14.238   2.365  12.982  0.1410 -0.2837 -0.0085
 4061W        W19955  12.641  10.064  15.825  0.1246 -0.2082  0.1559
 4062W        W19956   0.546  12.373   2.270 -0.0986 -0.0228  0.0848
 4063W        W19957  13.089  15.922   2.419 -0.1253  0.1554 -0.1510
 4064W        W19958  17.053   1.818  11.331  0.2020  0.1258 -0.0397
 4065W        W19959  14.064  16.114  13.268  0.3116  0.2969  0.0787
 4066W        W19960   2.935  15.357  11.826  0.2304  0.1193 -0.0095
 4067W        W19961   7.955   3.313  13.758  0.0123  0.3463 -0.2594
 4068W        W19962  10.189   0.317  14.459  0.1025  0.0221 -0.1597
 4069W        W19963   1.413  15.093  12.534  0.1291 -0.1574  0.1049
 4070W        W19964   7.104   4.770  15.965  0.0349  0.3301 -0.1195
 4071W        W19965   6.495  14.265  14.588 -0.2403 -0.2249  0.0090
 4072W        W19966   9.135   0.621   3.850 -0.0573 -0.1179  0.1062
 4073W        W19967  12.592   1.378  13.485 -0.3541 -0.0912  0.0331
 4074W        W19968   6.822   2.182  13.114 -0.0254 -0.0388  0.0772
 4075W        W19969   5.959   9.987   1.266 -0.1689  0.0659 -0.0713
 4076W        W19970   8.847  17.521  14.336 -0.2025 -0.1428 -0.0903
 4077W        W19971   6.656   3.704  11.402  0.0309  0.1384 -0.1364
 4078W        W19972   3.768   2.571  11.036  0.2195  0.0062 -0.3496
 4079W        W19973   7.787  11.699   1.098  0.0093  0.1527  0.2998
 4080W        W19974   5.434   2.697   3.620  0.1399 -0.3203 -0.3277
 4081W        W19975  15.081   7.372  14.311  0.0427 -0.1141 -0.0876
 4082W        W19976   6.319  10.129   3.321  0.1052  0.1686 -0.0410
 4083W        W19977  16.090   7.213   0.007  0.0011  0.2285  0.0082
 4084W        W19978  14.791   6.406   1.969  0.1920 -0.0721 -0.1169
 4085W        W19979   8.258  18.208   5.902 -0.2688 -0.3778  0.0153
 4086W        W19980   5.368   4.879   2.741 -0.1109  0.1841 -0.0182
 4087W        W19981  17.630  16.507   3.320 -0.2564 -0.0451  0.0852
 4088W        W19982   1.663   0.822   2.820 -0.0975 -0.1762  0.0998
 4089W        W19983   8.572  14.003   1.158 -0.0497  0.1800  0.1442
 4090W        W19984  14.201  14.474   4.017 -0.1321 -0.0971 -0.0753
 4091W        W19985  13.351   0.052  13.801 -0.0165  0.2013  0.2615
 4092W        W19986   0.348   5.066   6.090 -0.3207  0.0050  0.2398
 4093W        W19987   1.683   3.420  16.081 -0.0295 -0.0927  0.2629
 4094W        W19988   2.255  11.093  12.804 -0.1660 -0.2026  0.1290
 4095W        W19989  16.922   9.121   4.703  0.1832 -0.6216 -0.0038
 4096W        W19990  14.915   3.627  13.314 -0.0209 -0.0741  0.3876
 4097W        W19991  17.564  13.356   5.484  0.1171 -0.1098 -0.1118
 4098W        W19992   5.079   6.451   5.481  0.1648 -0.0480 -0.0752
 4099W        W19993   9.149  17.318   0.080 -0.3300  0.1083  0.0112
 4100W        W19994  16.508   3.910   4.367  0.1243 -0.2963 -0.2527
 4101W        W19995  17.536  15.921  11.788 -0.4209  0.1542 -0.3156
 4102W        W19996  13.413   3.266  15.672  0.0087 -0.1062 -0.0149
 4103W        W19997   6.293   2.170   4.627  0.0037  0.3055 -0.2808
 4104W        W19998  12.038   0.107   0.541  0.0430  0.1845  0.1904
 4105W        W19999   7.600   7.451   3.228  0.0804  0.0939  0.0198
 4106W        W20000   3.733   0.668  15.742  0.0020  0.1926 -0.0558
 4107W        W20001   6.084  14.972   1.377 -0.1486 -0.0678  0.1108
 4108W        W20002   5.741  10.164  11.889  0.0597 -0.2240  0.0172
 4109W        W20003   5.502  17.406   4.234  0.0119  0.0829 -0.1239
 4110W        W20004  16.104   0.372  11.429  0.1928  0.2138  0.1851
 4111W        W20005   1.197   7.749   2.276 -0.1799 -0.1737 -0.2335
 4112W        W20006  10.628  14.952  12.387  0.0055  0.3137 -0.0424
 4113W        W20007   2.293   4.909  12.941 -0.2115 -0.4010  0.0362
 4114W        W20008  13.533   6.878  10.792  0.2541 -0.1612 -0.1510
 4115W        W20009  16.326   1.504   4.242  0.1053 -0.1693  0.0360
 4116W        W20010   8.931  16.702  14.285 -0.0231 -0.2045 -0.1674
 4117W        W20011   2.733   1.044   3.687 -0.0038  0.0047 -0.1489
 4118W        W20012  14.695  17.422  16.084 -0.0473 -0.2260 -0.1043
 4119W        W20013  17.758  10.584   0.137  0.0143 -0.1613 -0.2210
 4120W        W20014   8.826   3.230  13.319 -0.1855  0.0544  0.1455
 4121W        W20015  13.496  15.802  13.996 -0.0006  0.1339 -0.0902
 4122W        W20016  17.101  10.517   5.703 -0.3119 -0.2977  0.1863
 4123W        W20017   9.274   8.358  16.312 -0.1180  0.0533 -0.2135
 4124W        W20018  11.976  11.907   3.459  0.1017  0.1898 -0.1005
 4125W        W20019  15.042  17.836  11.585 -0.0937  0.4286 -0.1039
 4126W        W20020   0.801   3.204   0.562 -0.1519  0.0447  0.1917
 4127W        W20021  15.303  15.677  16.267 -0.0373 -0.0308 -0.2948
 4128W        W20022  16.432   6.723   5.648  0.0687 -0.2046  0.1803
 4129W        W20023  10.690   8.678  14.466 -0.0352 -0.3469  0.0496
 4130W        W20024   2.656  17.850  14.852  0.1988 -0.0953  0.3934
 4131W        W20025   3.059   7.286  12.839 -0.0820  0.1160 -0.0633
 4132W        W20026   9.981   3.894  12.940  0.2754  0.1863 -0.2546
 4133W        W20027   3.532   6.869  16.333  0.2536  0.0244 -0.1528
 4134W        W20028   1.552   6.471   4.104 -0.1620  0.1224  0.2636
 4135W        W20029   2.526   5.537   4.003 -0.1192 -0.1441  0.2417
 4136W        W20030  12.302   6.088   2.926 -0.3849  0.0788 -0.2204
 4137W        W20031   4.073   4.052   9.933 -0.2494 -0.1134 -0.2174
 4138W        W20032   0.389   5.815   3.718 -0.2898 -0.2010  0.1427
 4139W        W20033   1.824  10.289  13.356  0.1084 -0.0542 -0.2967
 4140W        W20034   3.152  12.585  14.382  0.3131  0.0087 -0.0888
 4141W        W20035   4.814  11.913   2.529  0.0692  0.0398 -0.0325
 4142W        W20036  16.404  13.392   4.957  0.1028 -0.3500  0.1035
 4143W        W20037  15.496   7.692   0.372 -0.3373  0.1588  0.0384
 4144W        W20038  14.065   1.271  14.616 -0.0319 -0.0773 -0.3278
 4145W        W20039  14.575   9.029   3.779 -0.1702  0.1990 -0.0052
 4146W        W20040  10.958  15.466  12.909 -0.0271  0.1557 -0.2701
 4147W        W20041   0.766  14.157   0.605 -0.2953 -0.0858  0.0640
 4148W        W20042   4.930  11.759  15.331 -0.1306  0.2587  0.1793
 4149W        W20043   6.807  14.007   0.093 -0.1137  0.0989  0.2363
 4150W        W20044  12.842  15.268   6.338 -0.2713  0.1279  0.0550
 4151W        W20045   1.557   2.282   0.749 -0.3037 -0.0550  0.1372
 4152W        W20046  10.589  15.841  16.272  0.0487  0.0578  0.3302
 4153W        W20047   2.448   6.153  14.224 -0.1440  0.1398 -0.0011
 4154W        W20048   5.272   5.509  12.082 -0.0375 -0.2222 -0.4025
 4155W        W20049  10.607   8.943   4.345 -0.1118  0.2800 -0.0291
 4156W        W20050  12.481  11.494  15.335  0.1138  0.0145  0.0968
 4157W        W20051  16.825   5.117   4.369 -0.2821  0.1876 -0.0354
 4158W        W20052  11.059  17.933   4.845  0.1152  0.0236 -0.1670
 4159W        W20053   3.201  15.060  14.758  0.0699 -0.1252  0.1366
 4160W        W20054  17.342   1.921  13.795 -0.0052  0.0260  0.0472
 4161W        W20055  11.135   9.517  16.000  0.0282  0.3119 -0.2111
 4162W        W20056  10.575  15.678  15.148  0.1885  0.3046  0.2588
 4163W        W20057  12.546  10.746   1.928 -0.1042 -0.0822  0.0544
 4164W        W20058   1.805   8.738   1.238 -0.2001  0.5044 -0.0853
 4165W        W20059  14.305   9.948   6.447  0.1526 -0.1087  0.1448
 4166W        W20060   3.855   3.563  13.240  0.1589 -0.1746 -0.2158
 4167W        W20061  17.212   3.795   3.879  0.1842  0.0034  0.1644
 4168W        W20062  18.013   0.334   6.028 -0.1454 -0.0951  0.1740
 4169W        W20063  15.929   9.686  16.298  0.0276 -0.0556  0.0534
 4170W        W20064  12.753   3.603   2.523 -0.1170  0.0173  0.1811
 4171W        W20065  13.376  18.097   4.795  0.1171  0.0487  0.0787
 4172W        W20066   7.348  14.643   1.947 -0.1199 -0.2321  0.3000
 4173W        W20067   5.747   3.099   0.396 -0.2489 -0.0268  0.1624
 4174W        W20068   6.410   6.849   5.920  0.0245  0.3464  0.0494
 4175W        W20069   0.591   5.753   4.357  0.3448  0.4103  0.1187
 4176W        W20070  15.802   8.156   0.560 -0.1972  0.0326 -0.1452
 4177W        W20071  17.021  12.963   1.166 -0.2401  0.0531  0.1716
 4178W        W20072   2.329  15.199   2.714 -0.3423  0.0560 -0.1480
 4179W        W20073   3.131   1.520   5.819  0.1464 -0.2676  0.3313
 4180W        W20074   3.822   2.061   5.526  0.1654  0.0087 -0.0463
 4181W        W20075  12.837   6.724   4.132  0.1303 -0.1222 -0.0960
 4182W        W20076   7.847  16.227   5.735 -0.1656 -0.0456 -0.1561
 4183W        W20077  14.689   8.046   5.483  0.0085  0.0273  0.0940
 4184W        W20078  11.072  14.997   4.427  0.2642 -0.0858 -0.1497
 4185W        W20079  15.772   2.725  14.183  0.3123 -0.2112 -0.0480
 4186W        W20080  11.224   0.107  14.124 -0.0960 -0.0817  0.3823
 4187W        W20081  17.295  12.517   1.943 -0.0284 -0.0435  0.3229
 4188W        W20082  10.844   0.100   3.723  0.1519 -0.2793 -0.1845
 4189W        W20083   6.437   7.905   5.151 -0.0067 -0.0087 -0.0570
 4190W        W20084   2.889  16.713   4.849 -0.2910  0.5208  0.1349
 4191W        W20085  11.845  11.597   4.760 -0.2962  0.3399  0.3494
 4192W        W20086   5.445   3.534   5.264 -0.2888  0.1045 -0.4370
 4193W        W20087   5.790   8.055   4.471 -0.3561  0.1503  0.2850
 4194W        W20088  14.966   6.518  14.609  0.1878 -0.0970 -0.2355
 4195W        W20089   7.820   2.582  14.943 -0.0428 -0.1458 -0.3278
 4196W        W20090  11.956   7.303   5.255  0.1717 -0.4930 -0.1717
 4197W        W20091   9.725  13.523   2.504 -0.1697 -0.1017  0.0368
 4198W        W20092   3.631  13.107  11.717  0.4825  0.1129  0.0034
 4199W        W20093  14.288   5.733   1.263 -0.0608 -0.1427 -0.0827
 4200W        W20094  15.058   8.563  13.544 -0.2290  0.1943 -0.1119
 4201W        W20095   9.771   2.409  11.175  0.1339 -0.0444 -0.2978
 4202W        W20096   4.691   2.522   0.672 -0.2779 -0.1079 -0.1036
 4203W        W20097   1.514  10.747  15.002 -0.1717  0.2510  0.2212
 4204W        W20098   2.107  14.967   1.645 -0.3481  0.1662 -0.4772
 4205W        W20099   4.351   4.005   5.239  0.0559  0.0419  0.0514
 4206W        W20100  17.554   2.457  11.566  0.1087 -0.1666  0.3157
 4207W        W20101   2.783   2.590  11.687  0.1889 -0.0607 -0.1699
 4208W        W20102  18.120   2.137  13.584  0.0054 -0.2003 -0.0015
 4209W        W20103  16.720   3.814  12.954 -0.1357 -0.0727 -0.1200
 4210W        W20104   0.426   9.152   3.834  0.0520  0.0733 -0.3428
 4211W        W20105   5.697   0.302   2.559  0.1687  0.1820  0.1869
 4212W        W20106   4.732   3.733   1.532 -0.0298 -0.0431 -0.1995
 4213W        W20107   2.400  17.707   0.319 -0.1308  0.2503  0.0939
 4214W        W20108  11.828  11.481   3.656 -0.0116 -0.1424  0.1523
 4215W        W20109  11.127   9.898  11.927 -0.2171  0.1777 -0.0448
 4216W        W20110   0.681   9.643   0.596  0.0830  0.0109  0.2854
 4217W        W20111   5.193  17.013  11.484 -0.4063 -0.0527  0.1006
 4218W        W20112   1.249   0.703  14.330  0.0430 -0.2263  0.2042
 4219W        W20113   8.453  12.013  12.793 -0.0557 -0.0427  0.2437
 4220W        W20114   2.658  11.458   3.245  0.4963 -0.1925 -0.2302
 4221W        W20115   8.051   3.319  15.710 -0.1647 -0.0136  0.0358
 4222W        W20116   9.154   0.821   1.413  0.1861 -0.2621 -0.0488
 4223W        W20117   2.303  16.817   0.072  0.1113 -0.5450 -0.3765
 4224W        W20118   2.042  14.312  13.695 -0.1187  0.2521  0.1468
 4225W        W20119  13.302   7.772  15.815 -0.0063  0.0064  0.3600
 4226W        W20120  15.703  14.250  13.860 -0.1583  0.3104  0.0821
 4227W        W20121  13.541  11.176  13.672 -0.1938 -0.1134  0.1162
 4228W        W20122   0.200   8.890  14.059 -0.1851  0.1201 -0.0070
 4229W        W20123  10.083  16.270   0.729 -0.2231  0.0705 -0.2378
 4230W        W20124  16.832   7.187  15.340 -0.1419 -0.0301 -0.1857
 4231W        W20125  12.064  17.990   3.006 -0.1083 -0.0975  0.1034
 4232W        W20126  10.160   9.630  13.317  0.0174  0.0297  0.0090
 4233W        W20127  16.276   5.331   3.137  0.1932 -0.0078 -0.2011
 4234W        W20128   1.613   9.307  12.046 -0.1887 -0.0411 -0.0535
 4235W        W20129  18.022  17.093  15.913 -0.2582  0.1822  0.1209
 4236W        W20130   3.961  11.813   5.119 -0.2806 -0.1892 -0.1087
 4237W        W20131   1.150   2.978  15.324  0.0273  0.1249 -0.4025
 4238W        W20132  13.518  12.731  13.251 -0.3217  0.0445  0.0274
 4239W        W20133  13.940   8.451   2.883  0.1981  0.2993 -0.0253
 4240W        W20134  14.332   4.092   3.533  0.0020 -0.0554 -0.0339
 4241W        W20135  13.594   3.903  11.753 -0.1307  0.1256 -0.0814
 4242W        W20136   3.948   6.024  13.959 -0.1391  0.0972 -0.0843
 4243W        W20137   2.588  10.969  15.309 -0.1073 -0.1519 -0.1419
 4244W        W20138   5.021  18.227   1.487  0.3555 -0.2022  0.0429
 4245W        W20139  15.739  13.795   4.038  0.1067 -0.3640  0.0122
 4246W        W20140   3.067   1.295  11.601  0.0104 -0.1039  0.0041
 4247W        W20141   1.149  10.587   3.049  0.1050 -0.0883  0.2159
 4248W        W20142   6.886   7.023  11.341 -0.1909  0.1152 -0.1367
 4249W        W20143  17.919   1.251   0.799 -0.2353 -0.1725  0.2369
 4250W        W20144   8.177  10.596  13.986 -0.1785  0.0994 -0.2816
 4251W        W20145  13.597   8.074  11.621 -0.1720 -0.0937 -0.2090
 4252W        W20146  16.419  12.697  11.798  0.1465  0.2418 -0.1084
 4253W        W20147   3.241   0.951   3.213  0.1260 -0.0826  0.0110
 4254W        W20148   3.048   9.377  14.516 -0.1206 -0.2213 -0.2672
 4255W        W20149   5.490   0.707   2.964  0.1910 -0.0620 -0.0605
 4256W        W20150   9.965   8.441  11.460 -0.3702 -0.2164 -0.1401
 4257W        W20151   4.006  16.662  14.271 -0.1259  0.2764  0.2404
 4258W        W20152  17.974   6.941   4.541 -0.0222 -0.0791 -0.0721
 4259W        W20153   3.871  14.372   0.794 -0.2020  0.1140  0.2500
 4260W        W20154   6.197  13.313  15.650 -0.3529 -0.0466 -0.0984
 4261W        W20155  11.329  10.684   3.891  0.2547  0.0950  0.0941
 4262W        W20156   2.217  10.769   2.282 -0.0662  0.1495  0.0978
 4263W        W20157   0.098   1.440  11.815 -0.3335  0.2325  0.1532
 4264W        W20158   3.453   9.202   4.801 -0.4103  0.3472 -0.2501
 4265W        W20159  11.112   3.982  14.338  0.2307 -0.3932  0.0212
 4266W        W20160  14.171  15.305   1.181  0.1887  0.2459 -0.1179
 4267W        W20161   6.351   0.139  14.670 -0.0065  0.0214 -0.1444
 4268W        W20162  11.110  11.025  11.442 -0.1722  0.0143 -0.2823
 4269W        W20163   8.312   0.869  16.223  0.2190 -0.0708 -0.1613
 4270W        W20164  16.316  15.331  12.525  0.1968  0.0192  0.1189
 4271W        W20165  18.123   2.757   0.190  0.2512 -0.2749 -0.3305
 4272W        W20166   5.350  13.904   3.059  0.2213  0.0583  0.1401
 4273W        W20167  17.437  17.671   5.490  0.0093  0.2438  0.2673
 4274W        W20168   5.223  10.901   0.091 -0.0198  0.1182 -0.1394
 4275W        W20169   8.073   9.197   3.247 -0.0730 -0.1189 -0.1044
 4276W        W20170   3.901   9.744   3.742 -0.5292 -0.0063  0.2483
 4277W        W20171   1.792   4.787  11.193  0.1873 -0.1917 -0.1312
 4278W        W20172   3.008  18.111   0.303  0.1528 -0.1666  0.0748
 4279W        W20173   0.364   1.660  15.715  0.3901 -0.2368  0.0473
 4280W        W20174  16.681  11.206  13.026 -0.1798  0.0417  0.0077
 4281W        W20175   1.299  15.574  16.333  0.1028  0.2157 -0.1171
 4282W        W20176  16.839  15.625  13.754  0.1557  0.0883 -0.1620
 4283W        W20177  12.297   9.521   1.356 -0.0065  0.0556  0.1092
 4284W        W20178   4.576   3.106   5.254  0.0809  0.1092 -0.1106
 4285W        W20179  16.225   8.936   0.554 -0.0464 -0.2175  0.0117
 4286W        W20180   2.369   3.082  15.723 -0.0621  0.0207  0.2485
 4287W        W20181   8.059   6.837  16.439 -0.1121  0.0807  0.0645
 4288W        W20182   7.307  17.600  15.103  0.0503  0.2829  0.3634
 4289W        W20183   7.039   3.536   4.376 -0.3385  0.2415 -0.2469
 4290W        W20184   0.815   2.251  10.413  0.2677 -0.1526  0.1186
 4291W        W20185  12.274  10.499  13.520 -0.0007 -0.1290 -0.1843
 4292W        W20186   5.194  10.463   0.768  0.1048 -0.2162  0.1895
 4293W        W20187  14.914   8.306   3.228  0.2617 -0.1880 -0.1722
 4294W        W20188   1.515   3.133   4.070  0.0225  0.3877 -0.1354
 4295W        W20189   8.048  12.540  15.514  0.2886  0.0142 -0.2233
 4296W        W20190  14.981   0.482  16.395 -0.1211 -0.0719 -0.0940
 4297W        W20191  12.904  10.888   6.039 -0.0138  0.1675 -0.3389
 4298W        W20192   7.053   7.529   1.279  0.1622  0.0001  0.0944
 4299W        W20193   2.458   6.920   2.043 -0.1912  0.0538 -0.0562
 4300W        W20194   5.172  12.597   4.039  0.0979  0.1350 -0.2553
 4301W        W20195   9.078   2.178   1.206 -0.2759  0.3433  0.0821
 4302W        W20196   3.380  16.696   6.425  0.3870  0.0916 -0.0674
 4303W        W20197  13.750  14.350   3.717 -0.2393  0.2109  0.0133
 4304W        W20198  11.534   3.679  11.573 -0.0677 -0.2536 -0.5113
 4305W        W20199   1.619  17.962   0.884 -0.2189  0.1470  0.0426
 4306W        W20200   9.555   5.660   4.606  0.3472 -0.0334  0.1042
 4307W        W20201  18.011   4.771  12.479 -0.0506  0.0938 -0.2072
 4308W        W20202   0.204  11.222  15.318 -0.2586  0.0777 -0.3368
 4309W        W20203  14.299  14.275  14.171 -0.0908 -0.2770 -0.2164
 4310W        W20204   7.945  18.047   3.551 -0.2936  0.2377 -0.0387
 4311W        W20205  13.095   6.684   3.643 -0.1802 -0.1908  0.2042
 4312W        W20206   9.809   8.543  13.866 -0.2070 -0.1189 -0.0317
 4313W        W20207   4.428  15.463   4.817 -0.0731 -0.0651  0.2515
 4314W        W20208  15.212  18.008   5.193  0.0801  0.0523  0.1044
 4315W        W20209  17.197   4.625   2.460  0.0617 -0.1301  0.4189
 4316W        W20210  16.846   2.480  16.154 -0.2899  0.0032 -0.3472
 4317W        W20211   7.486  10.722  14.674 -0.0157 -0.2097 -0.1370
 4318W        W20212  12.039  15.876   5.213 -0.0628 -0.1432  0.0027
 4319W        W20213  13.731   7.498   0.984  0.2197  0.2046  0.2421
 4320W        W20214   7.548  15.952  12.145  0.1761  0.0030 -0.0616
 4321W        W20215  15.078  17.427  11.957  0.1375 -0.0524 -0.0605
 4322W        W20216   0.976  15.201   4.343  0.1318 -0.4025  0.0964
 4323W        W20217   1.425  10.447   2.154  0.5514 -0.1217  0.2232
 4324W        W20218  15.228   6.461   3.277  0.0563  0.1335 -0.1595
 4325W        W20219  13.106   3.866  13.143 -0.2456  0.3376  0.0740
 4326W        W20220  16.941  15.859   3.086 -0.3778 -0.0943  0.0893
 4327W        W20221   5.554   7.517   4.838  0.0508 -0.0684  0.1272
 4328W        W20222   0.989  12.109   2.369 -0.1132 -0.0613 -0.2341
 4329W        W20223  11.797   4.182  15.195 -0.0268  0.0144 -0.0674
 4330W        W20224   0.485   6.592   0.447 -0.0433 -0.2229 -0.1194
 4331W        W20225   7.980  11.222   3.118 -0.0936  0.1008  0.0958
 4332W        W20226  15.644  11.085  15.012 -0.3331 -0.0567  0.2395
 4333W        W20227  16.770  15.437  12.757  0.1739 -0.0591  0.1342
 4334W        W20228   8.979   7.010   2.305  0.1590  0.0072  0.0936
 4335W        W20229   3.304   2.270   5.445 -0.2354  0.2646  0.2104
 4336W        W20230  13.213   7.952  14.235  0.4924  0.2617 -0.1009
 4337W        W20231  15.623   1.763   3.522 -0.3235 -0.0575  0.1147
 4338W        W20232   9.279   9.969  10.163  0.1806 -0.0524 -0.0579
 4339W        W20233  10.274   8.739   0.616  0.2322  0.4903  0.0939
 4340W        W20234   1.160   7.780   4.955 -0.0201 -0.2472  0.1892
 4341W        W20235   3.032   3.474  12.855  0.2717  0.0807  0.1235
 4342W        W20236  11.826   8.619   3.036 -0.3410 -0.0142 -0.2114
 4343W        W20237  15.733  10.036   0.153  0.1825 -0.2483  0.2294
 4344W        W20238  12.056   2.621   3.277  0.1141  0.0213  0.1615
 4345W        W20239   3.183  12.562  15.884  0.0286 -0.3386 -0.0588
 4346W        W20240   7.928  13.315  11.108 -0.2504  0.2740  0.2018
 4347W        W20241  15.266  16.829  15.584 -0.1512 -0.3298  0.3065
 4348W        W20242  10.401  16.252   0.080 -0.0507 -0.1637  0.0248
 4349W        W20243   9.567  17.771   1.219  0.0712  0.1973 -0.1979
 4350W        W20244   9.893  14.302   0.733 -0.1590 -0.0600  0.1452
 4351W        W20245   4.941   6.422  10.195  0.0181  0.1876  0.2773
 4352W        W20246  13.360  11.954  16.051  0.3198  0.3418  0.0623
 4353W        W20247  12.001   0.289   4.357 -0.0710 -0.3040 -0.1914
 4354W        W20248   7.553   8.441  15.005  0.4133  0.1512  0.3012
 4355W        W20249   3.537   0.222  16.133 -0.0577  0.0727  0.0496
 4356W        W20250  17.056  16.510  13.731  0.0709 -0.1134  0.0101
 4357W        W20251   0.447  10.853   3.195 -0.1675  0.0943  0.1646
 4358W        W20252   0.844  17.630  15.765  0.2194  0.0838 -0.4030
 4359W        W20253   0.988  12.778  16.263  0.0518 -0.2881 -0.4234
 4360W        W20254   8.505   2.431  10.886 -0.0882  0.1849 -0.0361
 4361W        W20255  12.762  11.238  13.573  0.2838  0.0582  0.0166
 4362W        W20256   1.109  10.078  13.536 -0.5241 -0.1873  0.2436
 4363W        W20257   7.464  12.931  12.642  0.1963  0.1368 -0.0739
 4364W        W20258  13.344   2.561   2.769  0.0052  0.1789 -0.1545
 4365W        W20259  15.080   1.509  13.101  0.3747 -0.0662 -0.1430
 4366W        W20260  17.336   1.266   3.268 -0.0293  0.0751 -0.0478
 4367W        W20261   5.475   7.064  12.431 -0.2781  0.0675  0.2343
 4368W        W20262  15.985  11.340   0.754 -0.0560 -0.0145  0.2583
 4369W        W20263  13.786   0.145  16.402 -0.0160  0.0116  0.0039
 4370W        W20264  15.723  12.073   4.838  0.0584  0.0924 -0.0184
 4371W        W20265  16.666   5.980   2.382  0.2913 -0.1380 -0.3220
 4372W        W20266  13.390   7.951   1.034  0.2012  0.2378 -0.1914
 4373W        W20267   9.624   8.395  15.280 -0.0324 -0.0219  0.3020
 4374W        W20268   4.506   4.947  13.973  0.1027  0.0364 -0.2629
 4375W        W20269   9.701   7.370   2.902  0.2001  0.0066 -0.1982
 4376W        W20270   7.425   9.814  14.603 -0.1966  0.4551  0.1370
 4377W        W20271  16.794  17.103   2.895  0.0505 -0.1446 -0.5932
 4378W        W20272   1.676   3.202  12.797 -0.1016  0.1428  0.0321
 4379W        W20273   9.817   8.768   0.528 -0.1213  0.0936  0.5149
 4380W        W20274  13.544   5.774   1.704 -0.3328  0.3447 -0.0166
 4381W        W20275   1.417  16.085   2.994  0.1497 -0.0065  0.0037
 4382W        W20276   2.278  12.081  13.865 -0.0523  0.0463 -0.0376
 4383W        W20277   2.368   7.811  16.292  0.0836 -0.1667  0.1429
 4384W        W20278  12.580  12.723  14.439 -0.1343  0.0910 -0.3238
 4385W        W20279   4.650  10.321   2.640 -0.1768  0.2196 -0.1503
 4386W        W20280  14.574  10.580   0.817  0.0431 -0.3811  0.1382
 4387W        W20281   1.033  17.842   2.343 -0.0362  0.0025  0.1037
 4388W        W20282   7.369   3.786  11.863  0.0457  0.3969 -0.0094
 4389W        W20283  10.969   5.100   2.508 -0.0958 -0.2201  0.1399
 4390W        W20284   8.839   4.431   1.888 -0.3100  0.0621  0.0423
 4391W        W20285   4.254   1.934  13.371 -0.0193 -0.0375 -0.0899
 4392W        W20286   4.456   2.012   0.060  0.0529  0.0911  0.1135
 4393W        W20287   5.144  12.903  15.170  0.3380 -0.1915 -0.1585
 4394W        W20288  11.100   4.636   5.218 -0.0767  0.2327  0.1684
 4395W        W20289  11.249  12.200   0.048  0.1063  0.3069 -0.0102
 4396W        W20290  10.871  11.547  11.344  0.1394 -0.2249 -0.2952
 4397W        W20291   2.835   0.106   4.091 -0.0614  0.0615  0.2668
 4398W        W20292   1.438  10.954   1.182  0.2093 -0.3171 -0.1907
 4399W        W20293  12.729   8.508   3.018 -0.0443  0.4526 -0.1475
 4400W        W20294   5.574   9.610   3.561  0.0602  0.1163 -0.2665
 4401W        W20295   1.758  17.825  14.342 -0.1307 -0.1582 -0.2683
 4402W        W20296  15.388  10.372  12.395 -0.1507 -0.2068  0.0702
 4403W        W20297   7.761  16.708   5.902  0.1915 -0.0026 -0.2328
 4404W        W20298  11.656   3.844   0.877  0.0395 -0.0352 -0.0408
 4405W        W20299  13.614   1.094  13.838 -0.1351  0.1428 -0.0077
 4406W        W20300   3.597  11.389   3.341  0.1434 -0.0361 -0.1514
 4407W        W20301  12.171  15.482  14.453  0.1298  0.1018  0.2223
 4408W        W20302   3.436   5.234   0.570 -0.0961  0.2402  0.0238
 4409W        W20303  12.793  17.708  11.963 -0.1203 -0.0842  0.0211
 4410W        W20304   2.805  12.644  12.493  0.1652 -0.4691 -0.1327
 4411W        W20305  16.417   9.824  13.918 -0.0618 -0.1006 -0.0477
 4412W        W20306   8.277   9.660  11.903  0.0233 -0.2136  0.1358
 4413W        W20307  11.904   9.619   3.234  0.0948 -0.0252 -0.0659
 4414W        W20308   9.522  12.760  16.447 -0.3195  0.1759  0.0954
 4415W        W20309   5.192  11.720   4.865 -0.3198 -0.3628  0.2184
 4416W        W20310   9.254  15.448  14.066  0.0086  0.0864 -0.0556
 4417W        W20311   8.689  12.776   1.597  0.5553  0.2895  0.2086
 4418W        W20312   0.635   4.798   2.664  0.1001  0.0372  0.3224
 4419W        W20313   2.537  11.857  14.222  0.0162 -0.1184  0.0634
 4420W        W20314  11.534  11.650  14.890 -0.0636 -0.3328  0.1281
 4421W        W20315   2.231  10.140   1.541 -0.2011 -0.4002  0.1227
 4422W        W20316  12.989   7.266  14.434  0.2793 -0.0481 -0.0422
 4423W        W20317   6.646   4.356  11.470 -0.1418 -0.1451  0.2347
 4424W        W20318  14.550  14.042  14.916  0.1274  0.2155  0.3041
 4425W        W20319   4.121   7.104  11.210 -0.1009  0.0412  0.2086
 4426W        W20320   9.613  12.938  16.007 -0.0804  0.1673 -0.2121
 4427W        W20321  10.125   6.573  10.017 -0.0072  0.2605  0.3677
 4428W        W20322  12.710   4.834   3.963 -0.2828 -0.0693 -0.1743
 4429W        W20323   7.755  14.322   0.473 -0.1531  0.0197 -0.0968
 4430W        W20324   9.531   2.202  13.416  0.1203  0.1058 -0.0268
 4431W        W20325   9.520  10.902  12.446  0.2721  0.1024 -0.0361
 4432W        W20326  10.600  14.334   2.699 -0.0616  0.1213  0.1175
 4433W        W20327  11.416   0.258  16.233  0.2923  0.1021 -0.0368
 4434W        W20328   7.314  13.295   0.572 -0.0208  0.0426 -0.0600
 4435W        W20329  14.485   4.780   4.058  0.0355  0.0984 -0.2061
 4436W        W20330   0.223  13.190   3.616 -0.1457 -0.2245  0.1956
 4437W        W20331  15.514  14.703  14.176 -0.1084  0.1796 -0.2819
 4438W        W20332  16.847   7.445   5.447  0.0663  0.2687  0.1504
 4439W        W20333  13.033  14.459  12.356 -0.0812  0.0522 -0.0713
 4440W        W20334  13.092  16.818   3.028  0.1173  0.3278 -0.2811
 4441W        W20335   0.655   4.662  12.663  0.2635  0.1653  0.0755
 4442W        W20336  14.099   2.202   5.136  0.0981  0.1332 -0.0384
 4443W        W20337  16.669  10.282   5.197  0.0695  0.0114  0.1128
 4444W        W20338   1.946   3.470   3.453  0.4427  0.2437  0.1174
 4445W        W20339  13.059   0.592   1.384  0.0468  0.0086  0.0012
 4446W        W20340  13.507  15.197   0.285  0.1779  0.0148 -0.1770
 4447W        W20341   5.446   5.481   4.564  0.0094  0.0923  0.3777
 4448W        W20342   5.867  11.053  14.838 -0.1668  0.2130  0.1095
 4449W        W20343  12.879  12.868   2.300  0.1956 -0.1160 -0.0748
 4450W        W20344  17.680   9.078  13.731  0.0254 -0.0929  0.1707
 4451W        W20345   3.265   1.268   5.381  0.0552 -0.0983 -0.0726
 4452W        W20346  16.517  12.500  12.647  0.1807  0.0581  0.2610
 4453W        W20347  12.064  16.233  11.749 -0.1621 -0.3867 -0.0827
 4454W        W20348  12.449  16.305  11.435 -0.2668  0.2366  0.0401
 4455W        W20349   6.842   4.004   4.424 -0.0917 -0.0928 -0.0851
 4456W        W20350  18.138   3.520   2.712 -0.1335  0.1527  0.0555
 4457W        W20351   1.220   1.858   2.804  0.0822 -0.0161  0.2084
 4458W        W20352   0.384   4.409   2.592  0.2416  0.2551  0.1644
 4459W        W20353   6.156  11.407   1.874  0.1334  0.0374  0.1236
 4460W        W20354  13.459   4.399   3.034 -0.1122  0.0723  0.1280
 4461W        W20355   5.633   0.341  11.741  0.2810 -0.0932 -0.0765
 4462W        W20356   2.662   8.979   5.039 -0.1952  0.2075 -0.0856
 4463W        W20357   8.996  13.016   2.634  0.0248 -0.2430 -0.1617
 4464W        W20358  16.638   6.927   5.269  0.0678  0.0188  0.0867
 4465W        W20359   9.675  15.792   0.809 -0.0279 -0.1917  0.0675
 4466W        W20360   6.983   2.123   3.508 -0.2147 -0.0349  0.1375
 4467W        W20361   0.733  14.033  13.941  0.1257  0.1834  0.2417
 4468W        W20362   1.648   0.833   1.506  0.0205 -0.2202  0.1931
 4469W        W20363   1.888   4.452  13.691 -0.0950 -0.1287  0.3535
 4470W        W20364   1.823   0.077   3.020 -0.0893 -0.0659 -0.0032
 4471W        W20365   8.837  15.472  16.454 -0.0715 -0.2462  0.0710
 4472W        W20366  13.044   5.992   0.241 -0.2331  0.1187  0.0047
 4473W        W20367   8.950   1.774  14.416  0.0275 -0.0999 -0.1719
 4474W        W20368  12.874  13.904  12.496  0.1229 -0.0619 -0.0607
 4475W        W20369  16.033   9.129   0.133 -0.0674  0.1293 -0.0586
 4476W        W20370  16.150  10.930   0.955  0.2999  0.5863 -0.1607
 4477W        W20371   4.004   0.980  11.859  0.2423 -0.0997 -0.0229
 4478W        W20372  13.658  11.808  14.957  0.1771 -0.0254  0.1907
 4479W        W20373   6.337   3.753  12.798  0.0669  0.1319  0.2375
 4480W        W20374   2.166   5.098   0.053  0.0421 -0.0033 -0.3066
 4481W        W20375   7.667  11.551  14.687 -0.0827  0.1190  0.1000
 4482W        W20376   6.575   3.122  16.178  0.2490 -0.0254  0.1197
 4483W        W20377  14.280  11.823   0.419  0.0043 -0.1200 -0.4303
 4484W        W20378   0.046   9.465  15.808  0.1250 -0.1563 -0.0468
 4485W        W20379   0.613   8.897  15.773 -0.0465 -0.0577 -0.1502
 4486W        W20380  14.868  10.671   1.399 -0.3149 -0.1729 -0.0558
 4487W        W20381   3.684   0.189   1.014  0.1957  0.3723  0.1708
 4488W        W20382   2.267  16.554  16.037  0.0408 -0.1368  0.0634
 4489W        W20383  12.808   8.293  13.315  0.3186 -0.1529  0.1157
 4490W        W20384  17.175  10.664  13.514 -0.1237 -0.0842 -0.2937
 4491W        W20385   0.742   7.360  16.335 -0.3240 -0.1264 -0.2038
 4492W        W20386  11.485   5.805  15.832 -0.1127 -0.1713  0.2840
 4493W        W20387   7.586  10.664  16.373  0.2840  0.0434  0.1969
 4494W        W20388  14.074   9.994   3.779  0.3080  0.3727 -0.2398
 4495W        W20389   4.365  16.952  15.422  0.2349 -0.1720  0.0861
 4496W        W20390   3.660   0.141  12.044 -0.1366 -0.0680  0.0848
 4497W        W20391   9.654   7.957   2.748  0.4571  0.0666 -0.1944
 4498W        W20392  11.022  11.697   3.142  0.0210 -0.0084  0.0745
 4499W        W20393  16.766  11.063   1.090  0.0889 -0.0884  0.1338
 4500W        W20394  14.442   0.082   5.458 -0.1725  0.4788 -0.0700
 4501W        W20395   0.113  17.559   5.218 -0.3972 -0.1988  0.0345
 4502W        W20396   4.234  16.658  14.822 -0.0613  0.3084  0.0765
 4503W        W20397   5.785  14.152   1.113 -0.2768 -0.0491  0.2739
 4504W        W20398  10.118  10.759  14.433 -0.1594  0.3127 -0.0126
 4505W        W20399  10.674  15.531   0.652  0.4141 -0.1328  0.2835
 4506W        W20400   1.147   4.777  14.301 -0.1032  0.1854 -0.1821
 4507W        W20401   6.941   5.652   2.142 -0.4782  0.0101  0.1636
 4508W        W20402   1.534  12.430   3.514 -0.0026  0.1854  0.1629
 4509W        W20403  11.843   0.542  13.610  0.2008  0.0921 -0.0784
 4510W        W20404   1.297  11.501  14.976  0.0786  0.0580 -0.2941
 4511W        W20405  10.266  11.888  14.028  0.0931  0.0275  0.1855
 4512W        W20406   1.093   4.191  12.092  0.1657  0.1833  0.2759
 4513W        W20407  14.289  18.210   0.053 -0.2992  0.0541  0.1011
 4514W        W20408   1.531  14.842   4.559  0.0383  0.0909  0.1662
 4515W        W20409   2.673   1.504  14.498  0.3450 -0.0399  0.2618
 4516W        W20410  15.007  13.618  13.888 -0.1201 -0.1994 -0.0505
 4517W        W20411   5.623  13.048  14.949  0.2029  0.0402  0.1678
 4518W        W20412  17.964   1.261  13.542 -0.2119  0.2357 -0.3512
 4519W        W20413  14.983  15.385   3.503 -0.2678 -0.1077  0.0775
 4520W        W20414  12.164  14.326  13.580  0.1977  0.4139 -0.1567
 4521W        W20415   3.736   3.463   5.127  0.0023  0.1402 -0.0503
 4522W        W20416  15.764  15.622  13.929  0.1573 -0.0247  0.2290
 4523W        W20417   6.545   9.825  14.719  0.0372  0.2887  0.0318
 4524W        W20418   2.237   0.535  11.793 -0.0519  0.0718 -0.1824
 4525W        W20419   6.871   0.854   0.015  0.0219 -0.1926  0.1534
 4526W        W20420  11.802  13.637  14.135 -0.1802  0.0232 -0.1397
 4527W        W20421   7.445  12.850  15.275 -0.1590 -0.1340 -0.1829
 4528W        W20422  11.051  11.891   0.525 -0.1150 -0.2774  0.1499
 4529W        W20423   7.364   0.247  14.801 -0.0527 -0.1796 -0.0053
 4530W        W20424  14.897  18.225  11.951 -0.1129 -0.2752  0.1061
 4531W        W20425   7.746   1.734  16.171 -0.1706 -0.2431 -0.2010
 4532W        W20426   3.325   5.150   4.524  0.2130 -0.2656 -0.3250
 4533W        W20427   3.121  14.950  16.055  0.2798  0.2460  0.2920
 4534W        W20428  10.449  18.220  15.285  0.1248 -0.1557  0.0017
 4535W        W20429   6.820  14.215   5.104 -0.3970  0.0059  0.0316
 4536W        W20430  15.054   7.363   1.319 -0.0490 -0.0665  0.0322
 4537W        W20431   7.234   9.312   1.866  0.1630  0.0259 -0.1974
 4538W        W20432  12.880   3.999   2.830 -0.3240  0.1314  0.0130
 4539W        W20433   8.510   0.985  12.311 -0.0917 -0.2936  0.1909
 4540W        W20434   5.986  10.115   5.501 -0.2096 -0.1330 -0.1628
 4541W        W20435   8.142  15.893  14.013 -0.2197 -0.3060  0.0958
 4542W        W20436   2.604  12.781  15.653  0.1518 -0.1815 -0.0340
 4543W        W20437   5.285  16.797   0.475  0.2139  0.2795  0.3721
 4544W        W20438  11.291   4.058  15.162 -0.1072 -0.1288 -0.2150
 4545W        W20439   2.665   6.538  14.934 -0.1219  0.0407 -0.1747
 4546W        W20440   3.796   3.320   4.660  0.0747  0.2340 -0.0466
 4547W        W20441   9.553  14.964  12.592 -0.1866 -0.0081 -0.1930
 4548W        W20442   7.850  15.776   1.758 -0.1103 -0.1165 -0.1425
 4549W        W20443  17.399   0.859  15.655  0.0362  0.0937 -0.0061
 4550W        W20444  16.063   1.793   6.257 -0.2102  0.1263  0.1514
 4551W        W20445   9.377   2.289   2.465  0.0930 -0.2260 -0.1035
 4552W        W20446   4.704   4.852   5.195 -0.3835  0.2352 -0.0037
 4553W        W20447   1.733   6.526  14.558 -0.1367 -0.3095  0.0012
 4554W        W20448   0.256   6.118   5.527 -0.1490 -0.1188 -0.0563
 4555W        W20449   7.987  14.497   3.492  0.1685 -0.1798 -0.0246
 4556W        W20450   9.283   1.015   6.038 -0.0896  0.1422 -0.2177
 4557W        W20451  17.834   9.217   2.979  0.1909  0.0000  0.5511
 4558W        W20452   7.292  10.001   2.582 -0.3757  0.0934 -0.1500
 4559W        W20453  10.533  11.008   1.520 -0.4006 -0.0693 -0.1264
 4560W        W20454  10.765   1.451   2.985  0.0963 -0.0255 -0.0050
 4561W        W20455  11.593   1.109  13.836  0.0367  0.0360 -0.1191
 4562W        W20456   4.716  12.388   4.974 -0.1043 -0.2181 -0.1869
 4563W        W20457  16.318   1.050   3.950 -0.0767 -0.0416  0.2756
 4564W        W20458  18.175  12.139   6.063 -0.0443 -0.0161 -0.0290
 4565W        W20459   3.662   6.965  12.430 -0.0844  0.0983 -0.3902
 4566W        W20460  15.372   1.868   2.114 -0.0791  0.1386  0.0966
 4567W        W20461  14.086   3.375   0.402  0.0494  0.2630  0.0336
 4568W        W20462   4.064  15.201  13.689  0.0714  0.0013 -0.1295
 4569W        W20463   2.273  10.107  13.528  0.1180 -0.0680  0.0715
 4570W        W20464   5.230   1.926   4.040 -0.1669 -0.0204  0.0146
 4571W        W20465   3.395  10.877  14.553  0.0953 -0.1155 -0.0167
 4572W        W20466   1.105  15.962  16.069 -0.0115 -0.2639 -0.0872
 4573W        W20467   6.031  14.260  14.373 -0.0847  0.1361  0.1281
 4574W        W20468   0.908   5.755   5.591 -0.2034 -0.0966 -0.3649
 4575W        W20469  17.197  10.457  12.221 -0.2145 -0.0941  0.4665
 4576W        W20470   0.650   1.571  14.529 -0.0160  0.3293  0.1232
 4577W        W20471  14.734  16.644  14.500 -0.0380 -0.0206  0.1892
 4578W        W20472  16.349  17.726   2.284  0.2751 -0.0776  0.3576
 4579W        W20473   3.805   8.714   5.478 -0.0584  0.0632 -0.2483
 4580W        W20474  17.334   3.738   2.708 -0.2518  0.0598  0.3362
 4581W        W20475   3.159   1.167  16.128  0.2032 -0.0430  0.4704
 4582W        W20476  11.612   1.731  11.854  0.0937 -0.2736  0.1511
 4583W        W20477   8.920   9.515   3.466 -0.1128  0.1237  0.2763
 4584W        W20478  14.237   6.795  14.758  0.0345  0.0772 -0.0313
 4585W        W20479  15.249  15.469   1.517 -0.1006  0.2490 -0.0930
 4586W        W20480  10.852  14.384   0.586 -0.2782  0.0332 -0.0734
 4587W        W20481  13.569  12.405   0.724  0.3428 -0.0429  0.4525
 4588W        W20482   8.237  17.890  11.791 -0.0849 -0.0033  0.0136
 4589W        W20483   9.984   3.130   4.084 -0.0079  0.0354  0.1279
 4590W        W20484   6.914  17.648  13.523  0.0165  0.2270  0.1931
 4591W        W20485   7.156  12.209  12.739 -0.0159 -0.2571  0.1487
 4592W        W20486  17.350  12.189  13.787  0.1181 -0.0578 -0.1535
 4593W        W20487   7.868   1.397  11.482  0.0461  0.1607  0.0736
 4594W        W20488   3.404  17.490  12.410 -0.0418 -0.0912 -0.0720
 4595W        W20489   6.301  11.702   2.774  0.0441  0.1075 -0.0440
 4596W        W20490  13.263   7.012   2.353  0.0172  0.1385  0.2117
 4597W        W20491  12.679   6.192  12.777  0.0229  0.1029  0.2281
 4598W        W20492  12.911   5.009  13.524  0.2510  0.3958 -0.1157
 4599W        W20493   7.545   9.951   3.520 -0.3582 -0.2117 -0.1694
 4600W        W20494  12.270  18.179   3.612  0.1051 -0.1609  0.2576
 4601W        W20495  10.082   5.110   4.534  0.0416 -0.0151  0.0652
 4602W        W20496  11.043   5.156  14.525  0.0378 -0.1393 -0.2243
 4603W        W20497  16.318   8.026   2.097 -0.1196 -0.0440  0.0157
 4604W        W20498  17.308   1.205  15.994  0.4820  0.3652  0.0935
 4605W        W20499   3.883   7.990   4.519 -0.1162 -0.0351  0.1268
 4606W        W20500   0.067   7.307  14.487 -0.0916  0.1674 -0.2887
 4607W        W20501  16.452   6.908   1.934  0.0935 -0.2406  0.1185
 4608W        W20502   9.147  11.958   4.674 -0.1777 -0.4165 -0.1303
 4609W        W20503   3.258  15.752   1.740 -0.2198 -0.2272  0.5889
 4610W        W20504  11.811  15.408   0.203  0.0002 -0.1919 -0.1623
 4611W        W20505  17.536   4.384   0.545 -0.2510  0.0199 -0.1096
 4612W        W20506   6.349   5.906  14.700 -0.0023  0.0392  0.2149
 4613W        W20507   6.817   6.105  11.658 -0.2910 -0.0456  0.2000
 4614W        W20508   9.977  17.446   2.367  0.0265 -0.0513 -0.0187
 4615W        W20509   6.290  10.485   1.654 -0.0575  0.0209 -0.1871
 4616W        W20510   0.090  14.467  12.225 -0.1027  0.4541 -0.5231
 4617W        W20511   0.602   6.286  13.692 -0.2187  0.1268  0.0208
 4618W        W20512   1.342  14.318   4.555 -0.3171 -0.2823 -0.0081
 4619W        W20513   6.543  18.141  11.587 -0.1478 -0.1411 -0.2617
 4620W        W20514  10.444  15.416   5.578  0.0313 -0.1949  0.2290
 4621W        W20515  10.451   3.869  12.644 -0.0888 -0.0233  0.1830
 4622W        W20516  13.778   8.893   1.424  0.0475 -0.1720 -0.1150
 4623W        W20517  14.557   8.819  14.440  0.0330 -0.0977 -0.1420
 4624W        W20518  15.279   2.455  13.835 -0.0850 -0.1682  0.0715
 4625W        W20519   1.173   4.927  12.543 -0.3827 -0.2418  0.0681
 4626W        W20520  15.106   3.362  15.656  0.4187  0.2453  0.0343
 4627W        W20521   8.595  15.483  11.759 -0.0734 -0.0272 -0.1049
 4628W        W20522   8.610  16.481   4.704  0.0253 -0.1762 -0.1303
 4629W        W20523   8.021   9.552   0.399  0.0721  0.0792 -0.0253
 4630W        W20524  10.789  14.397   1.431  0.0120  0.1440 -0.0582
 4631W        W20525  16.587   5.267   3.495  0.2458 -0.0861 -0.0302
 4632W        W20526   0.776  18.116   5.149 -0.1202  0.1800  0.3459
 4633W        W20527   0.933   0.954   4.763  0.0503  0.4066 -0.1479
 4634W        W20528  10.441   6.130  15.698  0.0529  0.0193  0.0753
 4635W        W20529   3.466   2.410  15.911 -0.2992  0.2074  0.0917
 4636W        W20530  17.749   5.319   6.157 -0.0637 -0.1966 -0.1170
 4637W        W20531  10.449   0.338  11.490 -0.0186 -0.0067 -0.1173
 4638W        W20532   2.663  15.976  16.260  0.1812  0.2630 -0.3120
 4639W        W20533   2.639  11.998   3.995  0.3896 -0.0736 -0.1740
 4640W        W20534  10.400  16.630   2.832  0.4961 -0.1068 -0.3564
 4641W        W20535   5.852   7.497   1.225  0.2094  0.0633 -0.0136
 4642W        W20536  11.814  13.796  12.633  0.3323  0.0881 -0.2054
 4643W        W20537   6.409   3.385  14.098  0.0162 -0.1299  0.0628
 4644W        W20538  15.486   3.219  14.245 -0.2875 -0.2291  0.0554
 4645W        W20539   3.887   1.386   5.224  0.1815  0.2842  0.1956
 4646W        W20540  15.096   5.589   3.731  0.0212 -0.0237 -0.0954
 4647W        W20541   8.249   3.872  11.977  0.2869  0.1876  0.1229
 4648W        W20542   7.284  14.338   3.813 -0.0539 -0.1501  0.0917
 4649W        W20543   7.832  11.690  11.582  0.2840 -0.1569 -0.1372
 4650W        W20544   0.620  17.321   0.114 -0.3274  0.0049 -0.0165
 4651W        W20545   5.096   5.580   1.482 -0.1502 -0.0917  0.1899
 4652W        W20546  11.989   9.930  12.800 -0.0698 -0.0481  0.2520
 4653W        W20547   5.689  17.420   0.880 -0.0466 -0.0642 -0.2367
 4654W        W20548  17.793  14.028  14.783  0.0937 -0.3331  0.2012
 4655W        W20549   1.956   0.686   0.461  0.1237  0.0167  0.2543
 4656W        W20550   2.083  14.675   4.596  0.2498  0.0318 -0.1465
 4657W        W20551   8.674  15.744  12.136  0.3238  0.0678  0.2120
 4658W        W20552  16.964  12.481   0.645 -0.3087 -0.0837 -0.0424
 4659W        W20553   7.193   0.555  12.298  0.0762  0.0463 -0.0889
 4660W        W20554  10.895  10.824   4.136  0.0677  0.1375  0.2680
 4661W        W20555  17.994  18.152   4.931 -0.1708  0.1416  0.3964
 4662W        W20556   6.897  12.064   1.638 -0.0230 -0.0953  0.1971
 4663W        W20557  11.657   0.427   0.253 -0.3786 -0.2199 -0.2386
 4664W        W20558   3.879  16.626   2.504 -0.1232  0.0805  0.3397
 4665W        W20559   6.456  16.059  13.503  0.0058 -0.0018 -0.0709
 4666W        W20560  10.628   4.964  11.518 -0.0436 -0.1388  0.0670
 4667W        W20561  15.576   1.171  14.730 -0.2346 -0.1837  0.3104
 4668W        W20562   7.627   2.355   2.031  0.1763  0.2576  0.2972
 4669W        W20563  14.510  10.282  13.873  0.2616  0.0833 -0.0164
 4670W        W20564   5.408   6.937   4.747 -0.1259 -0.0937 -0.1290
 4671W        W20565   3.930   4.940  12.947 -0.0098 -0.0678  0.2342
 4672W        W20566   5.788   3.099   3.561 -0.0984  0.0108 -0.2230
 4673W        W20567  16.827  14.573   5.780  0.6836  0.1507  0.1936
 4674W        W20568  15.512  16.517   2.374  0.0828 -0.3142  0.0788
 4675W        W20569  12.238  18.211  12.585  0.2100 -0.1082  0.0613
 4676W        W20570   2.416   7.548  13.233 -0.0709  0.1724  0.1988
 4677W        W20571   3.138   2.590  11.162  0.1542  0.1635 -0.1415
 4678W        W20572   1.716  10.222  12.836  0.2656  0.0161 -0.1822
 4679W        W20573   5.643  11.149   1.537  0.3179 -0.0226  0.1065
 4680W        W20574  12.316   8.986  15.264 -0.0697  0.1444  0.0234
 4681W        W20575  12.662   2.713   2.753 -0.0474 -0.0992  0.1529
 4682W        W20576  13.794  16.073  16.124  0.0501 -0.2302 -0.0804
 4683W        W20577   4.824  13.330   1.427 -0.1429 -0.0533 -0.0419
 4684W        W20578   1.367  11.379   3.648 -0.0008 -0.0732 -0.0918
 4685W        W20579   8.286   8.586  11.727  0.2122 -0.1473 -0.2652
 4686W        W20580   2.574  10.137   3.360 -0.0397  0.2190 -0.1846
 4687W        W20581   3.401   3.986   5.266  0.1391 -0.1537 -0.1687
 4688W        W20582   3.588   7.592  11.545  0.3017  0.1564  0.1350
 4689W        W20583  10.154   5.229  15.893 -0.1923  0.3574  0.0071
 4690W        W20584   4.730  17.420  11.721  0.0390 -0.3607 -0.1641
 4691W        W20585  10.162  15.250   0.420 -0.3950  0.1524  0.0303
 4692W        W20586  15.258  13.188   0.607  0.0291 -0.0888 -0.2046
 4693W        W20587   9.574   6.998   0.256 -0.1638  0.2488  0.1173
 4694W        W20588   9.156   9.583   3.003  0.0419  0.2600 -0.2212
 4695W        W20589   1.561  10.306   3.181 -0.3178 -0.3001  0.1928
 4696W        W20590  18.082  15.804  11.574 -0.2595  0.0559 -0.4088
 4697W        W20591  16.149  14.512  15.663 -0.0334 -0.2291 -0.2268
 4698W        W20592  13.618   7.239   1.463 -0.1342  0.0588 -0.2358
 4699W        W20593  13.329   5.277   2.613 -0.3967 -0.0582  0.0454
 4700W        W20594  11.756   7.190   1.753  0.2244 -0.0275  0.0085
 4701W        W20595  15.665   6.696   1.608 -0.3777  0.0679 -0.1522
 4702W        W20596  17.115   8.074  13.640  0.1121 -0.0697 -0.0972
 4703W        W20597  16.285   9.220  12.230  0.4119  0.4719  0.2876
 4704W        W20598  13.912  15.957   2.734 -0.2238  0.3821  0.1386
 4705W        W20599  11.071  13.157   1.978 -0.5156  0.0982 -0.3894
 4706W        W20600   8.997   8.009  12.387 -0.1232 -0.3618  0.0031
 4707W        W20601   0.553   5.205  11.411  0.2837 -0.1266 -0.0785
 4708W        W20602  17.469  16.079  12.282  0.0343  0.1482 -0.2476
 4709W        W20603  12.105  13.139   4.819 -0.3599 -0.2915 -0.1597
 4710W        W20604   6.738  13.331   4.541  0.2301  0.1865 -0.1625
 4711W        W20605  16.202  17.193   4.546 -0.2608  0.1023 -0.0692
 4712W        W20606   9.174  17.424   0.993  0.2642  0.0156 -0.1553
 4713W        W20607  14.200   4.594   5.298 -0.1321 -0.0096  0.0410
 4714W        W20608   1.140  16.111  14.901  0.0455 -0.0299 -0.0669
 4715W        W20609   0.158  14.848   3.285  0.2516 -0.3193 -0.0297
 4716W        W20610   3.735  11.071  13.188  0.0497  0.0346  0.0298
 4717W        W20611  14.271   5.215  12.738 -0.1399 -0.1186 -0.0982
 4718W        W20612  10.420  13.217   4.978 -0.2890 -0.0122  0.0078
 4719W        W20613   1.410   5.724   5.518 -0.1518 -0.3707 -0.1849
 4720W        W20614  10.993   8.435  12.901 -0.4458  0.0113  0.0742
 4721W        W20615   6.998   3.156   4.022 -0.0728 -0.0425 -0.1305
 4722W        W20616  15.864   9.458  12.041 -0.1868  0.2480 -0.3865
 4723W        W20617  13.400  17.276   0.155  0.1404  0.1119  0.2321
 4724W        W20618  15.985  17.719  11.845  0.2858  0.1591 -0.1748
 4725W        W20619  10.080   3.879   5.411  0.0140 -0.2126 -0.0850
 4726W        W20620  10.969  10.203   4.777 -0.1953  0.3189 -0.2325
 4727W        W20621   1.409   3.741   4.824 -0.0767 -0.1420 -0.2228
 4728W        W20622   9.326   6.795  13.392  0.0538 -0.2134 -0.1665
 4729W        W20623   0.511   9.931   3.060  0.1920 -0.0730  0.2172
 4730W        W20624  14.183   1.319   4.699 -0.1625  0.0806 -0.1509
 4731W        W20625   5.623  17.576   0.034 -0.2702 -0.1737  0.3626
 4732W        W20626  16.951   3.615  15.054  0.1718 -0.0769  0.1220
 4733W        W20627   4.456  12.560  15.638  0.1299 -0.2440 -0.1829
 4734W        W20628   3.972   3.192  12.966  0.2296 -0.3434 -0.2142
 4735W        W20629  17.908  14.976   3.066 -0.3567 -0.0660  0.1424
 4736W        W20630   7.689   3.879   5.326 -0.2125  0.4220 -0.0275
 4737W        W20631  10.174   5.186   0.336 -0.0009  0.1241  0.0296
 4738W        W20632   7.418  11.093   2.849  0.0007  0.0083 -0.0794
 4739W        W20633  10.040   8.601   3.152  0.0064 -0.1568  0.1853
 4740W        W20634   0.002   5.634   2.335 -0.1719 -0.0493  0.1153
 4741W        W20635   0.706   2.828  12.788 -0.3684  0.1855 -0.1605
 4742W        W20636   4.670   9.164  13.118 -0.2234 -0.3502  0.1547
 4743W        W20637   5.373   8.391  12.537  0.1516 -0.0547 -0.2574
 4744W        W20638   4.663   7.464   1.259 -0.3951  0.1839 -0.1719
 4745W        W20639  11.846   9.068  13.858  0.1741  0.1141  0.0956
 4746W        W20640   0.419   1.951   4.410 -0.0606  0.2652  0.1763
 4747W        W20641   6.019   2.451   1.535 -0.0107  0.1826  0.1276
 4748W        W20642  13.603  15.406   3.474  0.3050 -0.0387  0.2528
 4749W        W20643  10.360  10.732  12.713 -0.2025 -0.4046 -0.0524
 4750W        W20644  16.580   2.717  13.093  0.0042  0.0648  0.3136
 4751W        W20645  16.969   6.856   0.187  0.1308  0.3364  0.0718
 4752W        W20646  17.816   1.059   3.560 -0.1779 -0.1611  0.0698
 4753W        W20647   4.504   5.817   1.379  0.3042  0.0750  0.0281
 4754W        W20648   1.622   4.950   3.800  0.1218  0.3362  0.1512
 4755W        W20649   3.924   0.654   4.822 -0.0520 -0.3309  0.0621
 4756W        W20650   8.963  16.824   0.266  0.0327  0.1220  0.1708
 4757W        W20651   0.766   8.179   1.883  0.1517  0.0447  0.1644
 4758W        W20652   8.542   2.661  11.345  0.1659 -0.1485  0.2964
 4759W        W20653  12.661   8.972   4.436  0.1240 -0.2760 -0.3644
 4760W        W20654   9.827   3.084  13.030 -0.0190 -0.1379 -0.1369
 4761W        W20655   3.574   2.479  16.397  0.1567  0.1094  0.1742
 4762W        W20656  14.793  16.516  13.515 -0.0892  0.1386 -0.0197
 4763W        W20657   8.748  15.331  11.029  0.0032  0.1097 -0.6082
 4764W        W20658   8.220   1.144   0.284 -0.1311  0.2235 -0.1981
 4765W        W20659  10.174  11.997   2.258  0.0902  0.0304  0.1156
 4766W        W20660  10.482  15.887   5.670  0.2452  0.0699  0.2396
 4767W        W20661   6.456  15.546  15.736 -0.0931  0.1875  0.0104
 4768W        W20662  18.106  16.061   0.165  0.2723 -0.2388  0.1851
 4769W        W20663   2.187  16.135  15.538  0.0846 -0.1644 -0.0219
 4770W        W20664  16.912   1.551  14.165 -0.0144  0.0709  0.0975
 4771W        W20665   0.062   5.927  14.274  0.1432 -0.1215 -0.0079
 4772W        W20666   4.515  13.797  14.122  0.1474  0.3904 -0.0563
 4773W        W20667  11.271  15.703  12.581  0.2863  0.2654 -0.0953
 4774W        W20668  11.231   6.836   3.466  0.2127  0.1272 -0.0992
 4775W        W20669  11.196   7.103  11.033 -0.2469 -0.0650 -0.0798
 4776W        W20670  12.826   0.765  13.532  0.1240  0.0779  0.1192
 4777W        W20671   6.568   2.316   4.200  0.0798 -0.1321 -0.0336
 4778W        W20672  10.928  13.470   3.781  0.4357  0.4764 -0.3047
 4779W        W20673   6.890  14.620   3.916 -0.0618  0.0788 -0.0631
 4780W        W20674   5.190   3.460   3.962 -0.0586  0.1809 -0.2592
 4781W        W20675  10.485  12.469  12.740 -0.3023  0.2142  0.2658
 4782W        W20676   7.471   1.251  11.173 -0.1235  0.1863 -0.4610
 4783W        W20677   7.340   4.280  12.174 -0.2395  0.0129 -0.0220
 4784W        W20678  10.820  14.360  13.849 -0.0812  0.1590 -0.2742
 4785W        W20679   1.120  11.989  14.082  0.1071  0.2852 -0.0075
 4786W        W20680  11.786   7.952   4.249  0.2766 -0.1375 -0.0360
 4787W        W20681   9.732  12.106   2.395  0.0186  0.0903 -0.2662
 4788W        W20682   6.789  16.348  12.137 -0.5379  0.0733 -0.1334
 4789W        W20683   8.382  13.551  11.223  0.1902  0.0143  0.2990
 4790W        W20684  12.095  16.103   4.775 -0.0619 -0.0902 -0.2297
 4791W        W20685  10.911   3.411   2.327 -0.0573  0.0412  0.0261
 4792W        W20686   0.146  13.389   4.140 -0.3926 -0.2597 -0.1820
 4793W        W20687  11.401   7.422  15.776  0.0069  0.1884 -0.0940
 4794W        W20688   8.423  13.672   1.934 -0.1308  0.0975 -0.1390
 4795W        W20689   4.954   4.858   0.725 -0.0434 -0.0305  0.0703
 4796W        W20690   2.652  11.044   4.277  0.0198  0.1009  0.2417
 4797W        W20691   8.109   2.310   5.118 -0.1599  0.0189 -0.0182
 4798W        W20692  18.190  13.514   2.040  0.3969 -0.1647 -0.0678
 4799W        W20693  18.236   8.000  16.097  0.0654 -0.2237 -0.0763
 4800W        W20694  14.835   3.788  11.332 -0.1921 -0.0050 -0.1057
 4801W        W20695   7.810   1.493   5.948  0.1773  0.0739  0.0368
 4802W        W20696  13.987   3.751  13.149 -0.0155 -0.0223 -0.1354
 4803W        W20697   5.469   2.750  14.638  0.1483  0.2348 -0.1272
 4804W        W20698   5.457   1.438  12.610 -0.1661 -0.1816  0.2378
 4805W        W20699  17.278   6.207   3.026 -0.0412 -0.1116 -0.2085
 4806W        W20700   7.869   7.060   3.257  0.0106 -0.2585 -0.0547
 4807W        W20701   3.686   2.553   2.315 -0.3537  0.2801 -0.5099
 4808W        W20702   1.921  10.392   4.430 -0.3039  0.4072  0.0583
 4809W        W20703   5.403   2.206  16.006 -0.2245  0.0622  0.1985
 4810W        W20704  14.742   8.387   1.535  0.1299 -0.2845 -0.1581
 4811W        W20705   2.694   5.736  11.903  0.1572  0.1143  0.1064
 4812W        W20706  12.016   4.451  12.140  0.1577  0.2696 -0.2476
 4813W        W20707   1.949  15.749   2.590  0.0163 -0.0232  0.3035
 4814W        W20708  12.976   8.114  14.832  0.0418 -0.0709 -0.3448
 4815W        W20709   7.754   8.718  13.027  0.2634  0.1382  0.1205
 4816W        W20710   9.055   9.982   1.391  0.0702  0.1481  0.2941
 4817W        W20711   4.720   6.487  14.244 -0.1047 -0.0928 -0.0095
 4818W        W20712  14.557  16.135   0.166  0.1530  0.2128 -0.1748
 4819W        W20713  17.748  14.869  15.443 -0.1128 -0.0100  0.0801
 4820W        W20714  15.107   9.276   2.241 -0.1135 -0.2920 -0.1366
 4821W        W20715  14.594  14.009   1.284 -0.0259  0.1080  0.0035
 4822W        W20716   8.056   2.873  15.387 -0.3346 -0.2713 -0.0989
 4823W        W20717   1.105   7.608   5.418 -0.0419 -0.0548  0.2721
 4824W        W20718  16.145  14.515  15.165  0.0303 -0.0564  0.1163
 4825W        W20719   6.171   3.374   4.918  0.1039 -0.0275  0.0011
 4826W        W20720   0.236   1.512   3.176  0.1344 -0.2465 -0.1316
 4827W        W20721  17.627   4.869  13.161 -0.0430 -0.2179 -0.4137
 4828W        W20722  13.045   3.978  12.188  0.3583  0.2709 -0.2692
 4829W        W20723   5.220  11.551  12.034 -0.0925  0.0061 -0.0252
 4830W        W20724  13.351   6.574   5.114  0.0722  0.2465 -0.1187
 4831W        W20725   6.068  11.418   1.297  0.0231  0.0318 -0.1440
 4832W        W20726   7.570  13.620  12.863 -0.1561 -0.1653  0.3152
 4833W        W20727   9.297  12.907   2.207 -0.3375  0.0997 -0.0002
 4834W        W20728  14.137   2.060  10.490  0.0134  0.0303 -0.0275
 4835W        W20729   4.799  14.348  11.800 -0.1577 -0.0947  0.1983
 4836W        W20730  12.273   2.776   5.536  0.2960  0.2242  0.1605
 4837W        W20731   6.830   5.773  11.106 -0.0421  0.0906  0.0393
 4838W        W20732  12.317   5.581  14.341  0.1871  0.0335 -0.2250
 4839W        W20733   7.066   1.712  11.053 -0.0987  0.0006  0.3414
 4840W        W20734   0.152  17.277   2.076 -0.2449 -0.0459  0.0201
 4841W        W20735   4.821   4.083   2.769  0.2656  0.3145  0.2333
 4842W        W20736  13.835   9.615  15.563 -0.0077  0.0381 -0.1552
 4843W        W20737  17.783   8.905   1.320 -0.1152  0.0338  0.2459
 4844W        W20738   9.688  11.572   4.614  0.3200 -0.1129  0.0547
 4845W        W20739  13.582  11.856   4.651 -0.0387  0.1267 -0.1745
 4846W        W20740  15.686  14.235   4.236 -0.1313 -0.0119  0.1728
 4847W        W20741   9.382   5.315   5.160 -0.0340  0.1006 -0.1285
 4848W        W20742   5.523  17.339  11.302 -0.4270  0.1435  0.0757
 4849W        W20743   4.401  10.338  15.302 -0.0616 -0.0026 -0.1803
 4850W        W20744   9.044   3.165   4.811  0.1421 -0.0057  0.1538
 4851W        W20745   1.083   8.822   2.392  0.2358  0.2580  0.3388
 4852W        W20746  16.344   7.676   2.981  0.1502 -0.1436 -0.0053
 4853W        W20747   0.168   9.618   0.016 -0.0535  0.0704  0.2180
 4854W        W20748   0.042   1.519  13.890 -0.1828 -0.2462 -0.0897
 4855W        W20749  14.203   7.845   5.514 -0.1763  0.0747 -0.3936
 4856W        W20750   0.997   3.136   5.863  0.0429  0.2413  0.0445
 4857W        W20751  17.172  10.396   4.264 -0.1074 -0.0165  0.2341
 4858W        W20752   5.258   4.577   1.627 -0.4609  0.2574  0.0341
 4859W        W20753  10.825   3.057   1.206  0.1080  0.2083 -0.1820
 4860W        W20754  12.717   2.654  13.122  0.4173 -0.1503 -0.3904
 4861W        W20755  13.778  17.346  14.783 -0.0878 -0.1020 -0.2074
 4862W        W20756   3.272   8.272   2.859  0.2349  0.1458 -0.4456
 4863W        W20757  13.734   0.032  14.916  0.0510 -0.3177 -0.3493
 4864W        W20758   0.885   9.459   5.522  0.0221  0.0875  0.3268
 4865W        W20759   6.785  10.298  15.539  0.1769  0.0398  0.2862
 4866W        W20760  13.954   7.379   5.333 -0.1289  0.0504 -0.2414
 4867W        W20761   5.669  11.899   2.273 -0.1240 -0.0208 -0.0790
 4868W        W20762  18.110  14.102  13.477 -0.2226 -0.2022  0.0039
 4869W        W20763   1.956   8.786   2.038  0.1943 -0.0253 -0.3921
 4870W        W20764   3.979  14.183   3.270  0.1751 -0.1445  0.3372
 4871W        W20765  13.202   5.598   3.460  0.0620  0.0771  0.1456
 4872W        W20766  17.022   6.358  15.996 -0.0546  0.0859 -0.2128
 4873W        W20767   9.996   7.286  13.135 -0.1292 -0.0491 -0.1145
 4874W        W20768   7.000  11.114   1.539 -0.1348 -0.1075 -0.0795
 4875W        W20769  11.740  16.712  12.831 -0.2568  0.1566  0.0025
 4876W        W20770  10.317   5.237  12.741 -0.1536 -0.1870  0.0263
 4877W        W20771   2.582   9.156  14.358 -0.2873 -0.3387 -0.0792
 4878W        W20772  18.182  14.089   3.909 -0.0905 -0.0097  0.0356
 4879W        W20773   3.818  11.808  13.773 -0.1818 -0.0059 -0.1585
 4880W        W20774   1.499  15.648   3.637  0.1297  0.0290 -0.1200
 4881W        W20775   1.826   2.489  11.866  0.2177 -0.0938 -0.0171
 4882W        W20776  15.871   3.653   4.876 -0.0840 -0.0475  0.0316
 4883W        W20777  12.457  10.344  12.605  0.1552 -0.2421 -0.0908
 4884W        W20778   2.188   7.557   4.476 -0.1534  0.1232  0.0878
 4885W        W20779   5.508   3.366   2.636  0.0680 -0.2523  0.1891
 4886W        W20780   3.209  17.134   2.824  0.2146 -0.1090  0.0713
 4887W        W20781   6.185   9.680   5.156 -0.1415 -0.1698  0.0682
 4888W        W20782  15.870  10.137  12.606  0.2938 -0.1172 -0.1895
 4889W        W20783  16.545   2.637  14.660 -0.0174  0.2991  0.0399
 4890W        W20784   0.165   0.482  12.043 -0.2136 -0.1141 -0.3883
 4891W        W20785   3.448  10.572  11.737  0.1699 -0.0350 -0.0918
 4892W        W20786   7.561  14.773   5.440 -0.3257  0.2598  0.1045
 4893W        W20787  10.341   0.188   2.767 -0.3439 -0.2062 -0.2020
 4894W        W20788   6.352   7.432   4.195  0.0886 -0.3214 -0.0749
 4895W        W20789  16.017   5.619   1.667  0.0204 -0.0741 -0.0114
 4896W        W20790   2.937   2.636   2.056  0.2446 -0.0829 -0.2163
 4897W        W20791   9.614  18.052   4.804 -0.1868  0.5959  0.0255
 4898W        W20792   7.754   3.230  11.623  0.2774  0.1668  0.0034
 4899W        W20793   0.230   2.482   3.448  0.2315  0.1103 -0.0682
 4900W        W20794  12.098   4.392   3.247 -0.0348  0.0943 -0.2903
 4901W        W20795  14.754  11.797   4.031 -0.5804 -0.3360 -0.4207
 4902W        W20796  16.318   7.552  15.569  0.3333 -0.4221 -0.1357
 4903W        W20797   6.879   4.516   3.417  0.4218  0.0291  0.0982
 4904W        W20798  14.224  12.151   2.007 -0.0155  0.0750 -0.3643
 4905W        W20799  13.584   2.020   2.809  0.0377  0.2808 -0.0518
 4906W        W20800   5.238  16.891  16.424  0.1423  0.1702  0.1961
 4907W        W20801   8.852  15.284  15.711 -0.0763  0.1342 -0.1587
 4908W        W20802   1.478  14.254   1.313  0.0435  0.0869  0.0672
 4909W        W20803  12.235   4.767   5.184  0.1040  0.0968  0.0870
 4910W        W20804  12.058   4.646  11.671  0.1033  0.0315  0.2979
 4911W        W20805  10.272   7.817   4.862  0.3965 -0.0365  0.1276
 4912W        W20806   3.979  14.900  14.129 -0.0919  0.5353 -0.1346
 4913W        W20807  17.886   3.069  12.330 -0.0872 -0.0656  0.2513
 4914W        W20808  17.999  17.809  12.552 -0.0736  0.2475  0.3814
 4915W        W20809  10.234  17.679   0.735 -0.4597  0.6756 -0.1528
 4916W        W20810  13.194   4.312   4.483 -0.0022 -0.2147  0.0926
 4917W        W20811  16.381  10.520   2.654 -0.0037  0.1716  0.0230
 4918W        W20812   9.327  11.573  15.087  0.0407  0.2883  0.1731
 4919W        W20813  14.386   8.633  11.618 -0.4507 -0.2741  0.0248
 4920W        W20814   1.793   3.378   0.525  0.2348 -0.0528  0.2900
 4921W        W20815   5.910   2.924   1.965  0.0810 -0.0302 -0.3287
 4922W        W20816   7.175   0.945   2.992 -0.1856  0.2225  0.3365
 4923W        W20817   7.715   6.390  13.058 -0.0652 -0.1053 -0.1826
 4924W        W20818   3.184  15.730  12.089  0.0378  0.0887 -0.1550
 4925W        W20819   9.990  13.010   1.406 -0.0833 -0.2398  0.1173
 4926W        W20820  15.194  10.684   3.754  0.0683  0.2873  0.0095
 4927W        W20821   8.310   6.857   4.044  0.0173  0.0442 -0.0779
 4928W        W20822  17.581   3.948   4.196 -0.0333 -0.1111 -0.2453
 4929W        W20823   5.649   4.809  15.069 -0.2808 -0.1213  0.2917
 4930W        W20824   2.863   0.654   3.381  0.2715  0.1166 -0.4501
 4931W        W20825  11.816   9.538  12.509 -0.2325  0.1132 -0.0109
 4932W        W20826   2.984  10.473  12.975  0.0445 -0.0196 -0.0109
 4933W        W20827   0.674  12.236  14.984 -0.2931  0.1248  0.2351
 4934W        W20828  15.253   4.546  13.689  0.3169  0.0512  0.0243
 4935W        W20829  14.910   5.020   1.409 -0.2561 -0.2789 -0.1310
 4936W        W20830  11.362   3.164  11.205 -0.0168 -0.2246  0.0767
 4937W        W20831  14.012  10.172  13.872  0.2236  0.2279  0.0895
 4938W        W20832  16.002   7.667  16.010 -0.1206  0.0774  0.1929
 4939W        W20833   5.338  14.212   0.244 -0.1124 -0.2919  0.2384
 4940W        W20834   9.960   3.851   2.196 -0.3162  0.2228 -0.2733
 4941W        W20835  16.630   7.720   6.274 -0.1324 -0.0736 -0.0893
 4942W        W20836   9.901  16.516   0.295 -0.0694  0.3918 -0.0650
 4943W        W20837  17.915   7.524  11.669 -0.1192  0.0829 -0.0598
 4944W        W20838   5.631   2.573  11.053  0.0626  0.3829 -0.0446
 4945W        W20839   1.357   9.136   2.114 -0.1190  0.0306  0.2841
 4946W        W20840   4.266   7.412   0.287  0.1734  0.0459 -0.1599
 4947W        W20841   6.550   8.392  15.568  0.0611 -0.0944  0.1230
 4948W        W20842   1.280  13.901   0.874  0.2251 -0.2288 -0.2734
 4949W        W20843  15.066  16.481   2.177  0.4768 -0.0134  0.0975
 4950W        W20844   0.271  17.740   2.325  0.0737  0.2024 -0.0132
 4951W        W20845  18.223   5.847   4.431 -0.0067  0.0376 -0.2067
 4952W        W20846   6.380  16.657  13.572  0.0642 -0.0771  0.1471
 4953W        W20847  17.807   1.041  12.567  0.3034 -0.1149 -0.2853
 4954W        W20848  16.020   1.258   1.205  0.1511 -0.2502 -0.2870
 4955W        W20849   8.433   7.378   1.986 -0.3359 -0.0836 -0.0564
 4956W        W20850   6.253   3.339   1.075 -0.1779  0.0177  0.0540
 4957W        W20851   0.400   0.917  11.888  0.0435 -0.2089  0.0118
 4958W        W20852   0.757  17.763   4.406  0.2247 -0.0326  0.0863
 4959W        W20853   0.534   7.262  15.046 -0.1543 -0.2046 -0.1672
 4960W        W20854  11.962   3.919  14.760  0.2904 -0.0734  0.1827
 4961W        W20855  16.299   0.104   4.843 -0.0010  0.2945  0.0116
 4962W        W20856   8.877   7.452  12.310  0.2463  0.0228 -0.1200
 4963W        W20857   1.527   4.248  12.867  0.0976  0.0546  0.0118
 4964W        W20858   4.851   6.390  12.802 -0.0034  0.4623 -0.0354
 4965W        W20859  18.216   2.998   2.139  0.1315 -0.0549  0.0833
 4966W        W20860  17.096  11.636  12.271  0.2948 -0.0540  0.3373
 4967W        W20861   8.559  16.755  12.424  0.0298  0.1098  0.2949
 4968W        W20862   3.771   1.950  13.391 -0.2981  0.0981  0.2248
 4969W        W20863   0.601   0.009   0.145 -0.0401 -0.2580 -0.1331
 4970W        W20864   5.571   8.953   2.316 -0.0870 -0.0205  0.1177
 4971W        W20865  13.210  12.654   4.183 -0.0477  0.0757 -0.1161
 4972W        W20866  17.342   9.831   6.269  0.1657  0.1813  0.0567
 4973W        W20867   2.603   6.390  11.632  0.0197 -0.2207  0.1421
 4974W        W20868   4.123   1.856   5.049  0.0711  0.0681 -0.2101
 4975W        W20869  10.820   7.636   1.588  0.0489  0.0382  0.1234
 4976W        W20870   9.925  10.367  11.116 -0.1381 -0.1144 -0.1488
 4977W        W20871  16.168   9.647   4.958 -0.2200 -0.1224 -0.4081
 4978W        W20872  13.399   0.117   2.586 -0.0682 -0.2563  0.6402
 4979W        W20873   7.322  13.939  15.040  0.0173  0.2247 -0.0759
 4980W        W20874   1.411   5.426   4.495  0.1065 -0.0495  0.0808
 4981W        W20875   5.700   9.033   4.211  0.2153  0.3175  0.1646
 4982W        W20876  13.471   4.305  15.849  0.0395  0.0028  0.1269
 4983W        W20877  15.573  15.968  13.533  0.2461 -0.4107  0.2722
 4984W        W20878  11.588   1.299  12.393  0.3059  0.0605 -0.1030
 4985W        W20879   5.673   6.552   2.574 -0.1213 -0.2947 -0.1956
 4986W        W20880  13.883  11.980   0.762  0.2382  0.0301 -0.0571
 4987W        W20881   8.373  11.856  12.323 -0.1219  0.1102 -0.0776
 4988W        W20882   8.498   2.107  14.587  0.2032  0.2507  0.2033
 4989W        W20883   7.560  14.708   3.519  0.2529 -0.2665 -0.1709
 4990W        W20884  13.045  13.613  15.281  0.2100  0.1397 -0.0537
 4991W        W20885  12.594   7.055   1.307  0.2030  0.2530  0.0976
 4992W        W20886  13.163  15.189   2.754  0.1365  0.1642  0.1357
 4993W        W20887  12.349  16.249  14.128 -0.0065  0.1239 -0.1016
 4994W        W20888   4.440   3.291  14.370 -0.2083 -0.3500  0.1750
 4995W        W20889  12.307   4.387  16.160 -0.0772  0.2175  0.2165
 4996W        W20890   2.554   3.432  10.873  0.1097  0.1089 -0.1110
 4997W        W20891   5.672   9.198   3.285 -0.1278  0.2952 -0.1016
 4998W        W20892   4.304  18.121   2.711 -0.1668  0.2274  0.4028
 4999W        W20893   2.722   4.859  13.280  0.0782  0.1658 -0.2330
 5000W        W20894  14.155  10.992  16.288  0.1694 -0.1146 -0.0090
 5001W        W20895   1.053   1.383   3.081 -0.1966 -0.2193  0.0238
 5002W        W20896   0.296   5.179   0.079  0.0623 -0.2156  0.3898
 5003W        W20897   8.442   5.861   1.070  0.0466 -0.0938  0.1681
 5004W        W20898  17.460   2.303   2.253 -0.0210 -0.1977  0.0652
 5005W        W20899   5.791   8.912  11.247 -0.0007 -0.1025 -0.2861
 5006W        W20900  11.189   5.636   3.843 -0.3436  0.0471 -0.0489
 5007W        W20901   3.904  13.981   1.256  0.0692  0.1864  0.1116
 5008W        W20902   4.115   8.463  14.178  0.5536  0.3576 -0.0841
 5009W        W20903   1.847  13.308   1.879  0.0962 -0.2711  0.0050
 5010W        W20904  16.627   3.698   3.042  0.2187 -0.1962 -0.1398
 5011W        W20905   3.147   5.823   3.576  0.3613  0.0677  0.1531
 5012W        W20906  10.302  14.740  15.654  0.2397  0.0356 -0.0673
 5013W        W20907  12.640  14.714   5.206 -0.0962  0.1785 -0.2141
 5014W        W20908   2.447   8.834   2.102 -0.0502  0.1426 -0.0250
 5015W        W20909  16.029  10.697  14.437  0.0328  0.3645 -0.1455
 5016W        W20910   1.075   0.631  15.267 -0.0179  0.2011 -0.2567
 5017W        W20911   0.952  12.674   2.280 -0.2641 -0.0068 -0.1353
 5018W        W20912  17.412  15.637   5.216  0.4505 -0.1521  0.2116
 5019W        W20913   4.774  15.629   5.755  0.3208  0.1126  0.0021
 5020W        W20914   2.465   5.837   3.052 -0.0463 -0.1712  0.2944
 5021W        W20915  13.240   1.867  15.668  0.2311  0.1737 -0.0222
 5022W        W20916   2.163  13.342   0.219  0.3342  0.1801  0.0285
 5023W        W20917  14.153   6.702  12.565  0.1050 -0.0172  0.1185
 5024W        W20918  17.683   1.540   0.522 -0.2312 -0.1874  0.1985
 5025W        W20919   5.861   3.802   0.466 -0.0990  0.1999 -0.0680
 5026W        W20920   9.255  11.068  12.837 -0.5626  0.0880  0.2207
 5027W        W20921   5.157   3.737   2.656  0.0413  0.1173 -0.3336
 5028W        W20922   5.123   9.772   5.711 -0.1726 -0.3468  0.1199
 5029W        W20923   1.425  10.473  14.586 -0.1458  0.2165  0.1047
 5030W        W20924   1.668   1.699  12.940  0.1667 -0.1430  0.1378
 5031W        W20925  13.722  13.583  12.031  0.0467 -0.1525 -0.3977
 5032W        W20926  18.061  16.700  11.194  0.2907 -0.2179  0.1550
 5033W        W20927  16.602  17.547   4.713  0.0143  0.1464  0.0498
 5034W        W20928   6.376  16.884   2.131  0.3799  0.0907  0.2653
 5035W        W20929   4.054   3.373   0.879 -0.1596 -0.1929 -0.2541
 5036W        W20930   1.136   3.366  11.062 -0.0776 -0.3068  0.2999
 5037W        W20931   1.462  16.527   1.533 -0.3828  0.1104  0.1259
 5038W        W20932  16.104  14.821   4.776  0.1732 -0.3815  0.3282
 5039W        W20933   7.719   4.443  12.432  0.0799 -0.0300 -0.1321
 5040W        W20934  12.966  14.483   4.843 -0.3082 -0.2839  0.0833
 5041W        W20935   2.101   8.938  15.361  0.0959 -0.1432 -0.1543
 5042W        W20936   9.008  11.719  14.707 -0.2827  0.0101 -0.0012
 5043W        W20937   9.579   8.765   1.372  0.0081  0.5461 -0.0774
 5044W        W20938  16.412   6.283   4.083  0.1038 -0.1669  0.1481
 5045W        W20939  11.114   7.678   0.645  0.0736 -0.2081 -0.2215
 5046W        W20940   4.338   1.406  15.557  0.2092  0.1782  0.0086
 5047W        W20941   9.703   4.180  11.608 -0.2125 -0.2768  0.1249
 5048W        W20942   8.150  12.519  13.421 -0.1167 -0.0372 -0.0748
 5049W        W20943  12.796   5.342   3.118  0.2532  0.1361  0.1048
 5050W        W20944   3.896   6.338  11.649  0.0389  0.2789  0.1433
 5051W        W20945   1.578  16.180   2.480 -0.3683 -0.0982 -0.0835
 5052W        W20946  12.610   6.064   1.707  0.0006 -0.0283 -0.0744
 5053W        W20947   4.700  17.572   0.216  0.2672 -0.0656  0.2011
 5054W        W20948  14.607   1.649  11.494  0.0244  0.0072  0.0233
 5055W        W20949  15.884   6.667   1.144 -0.0324 -0.1004  0.0264
 5056W        W20950   1.773  15.497  12.201 -0.1115 -0.3589 -0.0083
 5057W        W20951   8.507   7.901  12.609  0.0074 -0.0534  0.2354
 5058W        W20952   5.851  17.765   4.948 -0.1150 -0.0571  0.0884
 5059W        W20953  13.683   5.139   2.999 -0.0139  0.0054  0.0247
 5060W        W20954   3.015   3.386  15.910 -0.0910 -0.1015 -0.0143
 5061W        W20955   2.747   0.321   3.057 -0.0180  0.0271 -0.0520
 5062W        W20956   4.628   6.527   2.286 -0.3137  0.1303 -0.2220
 5063W        W20957  15.112   0.434   1.784  0.1404 -0.0763  0.0308
 5064W        W20958  11.114   8.550   2.003  0.0182 -0.1317  0.1170
 5065W        W20959   3.100   6.156  13.542 -0.0128  0.0376 -0.0827
 5066W        W20960  11.395   3.018  14.574  0.2514 -0.1273 -0.0492
 5067W        W20961  17.708   8.852   2.134 -0.0313  0.0930  0.0615
 5068W        W20962   7.553   4.833  14.310  0.0235 -0.2962  0.0801
 5069W        W20963  10.100   0.703   0.965 -0.0818  0.2835  0.0330
 5070W        W20964   7.601  10.895  10.187  0.1930  0.3126 -0.1680
 5071W        W20965   9.119  10.140  13.987  0.2675  0.2077  0.3631
 5072W        W20966   8.045   7.658  15.169  0.0433  0.4288  0.0091
 5073W        W20967   6.713   4.003  15.608 -0.0474 -0.1026  0.2525
 5074W        W20968   8.479  14.721  14.198 -0.2671  0.4410  0.1920
 5075W        W20969  10.587   4.496  11.609 -0.0817 -0.0486 -0.2953
 5076W        W20970   2.777   5.991   3.845  0.0191  0.1129  0.5239
 5077W        W20971   0.506  11.016   5.406 -0.0282  0.0312 -0.1079
 5078W        W20972   1.080   6.270  11.789 -0.3375 -0.2361  0.0000
 5079W        W20973  10.274   9.541  14.814  0.0959  0.1472  0.0993
 5080W        W20974  16.086   5.760  12.949  0.2789  0.0371  0.0530
 5081W        W20975  17.570   7.095   2.351  0.1787 -0.1875  0.0490
 5082W        W20976   2.097  10.278   3.835 -0.0247  0.0895  0.0902
 5083W        W20977   7.004  17.271   4.978  0.0196  0.3489  0.1310
 5084W        W20978  14.963   5.257   4.615  0.0518 -0.0998  0.2642
 5085W        W20979   3.077   7.832   0.663  0.1898 -0.2004  0.0514
 5086W        W20980   6.677  16.990   2.857 -0.2564 -0.0494  0.1340
 5087W        W20981   7.521   5.345   6.290 -0.0918 -0.0998  0.0711
 5088W        W20982  15.966  10.491   6.011 -0.1275 -0.1438 -0.1230
 5089W        W20983   8.262   0.020  14.593 -0.1008 -0.1168  0.0846
 5090W        W20984  18.235   1.058   5.516 -0.0273 -0.1248  0.1651
 5091W        W20985   7.754   0.930   1.606  0.2084 -0.0157 -0.0486
 5092W        W20986  17.066   4.678   1.624  0.0524 -0.2006 -0.3051
 5093W        W20987  13.649  16.498  14.429  0.0586 -0.0339  0.4024
 5094W        W20988  15.699   5.007   0.318  0.4588  0.0017 -0.0784
 5095W        W20989  16.255   3.582  13.643 -0.1120 -0.0269 -0.1672
 5096W        W20990   1.220  15.893  15.406  0.0958  0.0457  0.1898
 5097W        W20991   5.252  16.722   3.825  0.0409 -0.3354 -0.0317
 5098W        W20992  16.987  17.980   0.626  0.0959  0.1325  0.1690
 5099W        W20993   4.474   5.064  12.339  0.0908  0.0372  0.2265
 5100W        W20994  15.036  17.034   0.996  0.0090 -0.3703  0.0016
 5101W        W20995   3.457  15.424   2.586 -0.3211  0.0769  0.3451
 5102W        W20996  14.055  17.315   5.718  0.2168  0.0398  0.1047
 5103W        W20997  15.149  10.540  13.268 -0.2631 -0.0537 -0.1347
 5104W        W20998   9.455   2.809   1.151  0.0618 -0.1300  0.1967
 5105W        W20999  10.619   6.037   2.513  0.1350  0.0967 -0.1238
 5106W        W21000  15.688   0.387  12.190 -0.1664  0.3109 -0.2839
 5107W        W21001   6.511   9.397  11.605  0.0355  0.2208  0.2769
 5108W        W21002  16.076   6.240  15.835 -0.0343  0.1206  0.0030
 5109W        W21003  14.725   7.566   2.563 -0.1329  0.3324 -0.0405
 5110W        W21004  14.788   8.147  11.132  0.2342  0.0504  0.1906
 5111W        W21005   4.347   2.903   1.038  0.5141 -0.0420  0.2146
 5112W        W21006   9.856   9.130   2.360  0.0565 -0.4050  0.0244
 5113W        W21007  15.916  15.878   3.244 -0.1999 -0.1576 -0.0750
 5114W        W21008   0.798   3.957  15.941  0.0096  0.1516  0.1538
 5115W        W21009   8.460   5.785  15.851  0.0747 -0.3016 -0.0360
 5116W        W21010  13.756  17.062   0.468 -0.1958  0.0474 -0.1334
 5117W        W21011   9.140  12.958  11.653 -0.2270  0.0342 -0.1560
 5118W        W21012  15.681  13.194  15.233 -0.1575  0.0728  0.1640
 5119W        W21013   7.147   8.072   3.281  0.1951 -0.3987  0.1822
 5120W        W21014   3.670  12.284   2.601 -0.3931  0.0997 -0.2767
 5121W        W21015  12.826   4.400  11.233  0.1591 -0.0166  0.1720
 5122W        W21016  14.710  15.873   5.564 -0.1191  0.1185 -0.2641
 5123W        W21017  14.420   4.701   2.299  0.2764 -0.0845  0.0258
 5124W        W21018   3.928  13.587   0.450 -0.2104 -0.2141  0.0350
 5125W        W21019   4.851   1.194   0.824 -0.1044  0.0460 -0.2581
 5126W        W21020   1.961  11.347  12.329 -0.0010 -0.1892  0.1267
 5127W        W21021   4.633  13.382  14.275 -0.1281  0.0898 -0.1834
 5128W        W21022   2.923   5.840   4.848 -0.1259 -0.3183  0.1139
 5129W        W21023  15.614   6.613  11.741  0.0792  0.0968  0.1674
 5130W        W21024  10.971   8.250   1.464  0.2072  0.1328 -0.0905
 5131W        W21025  13.903   8.370   0.529 -0.1161  0.1385 -0.0305
 5132W        W21026  18.031   1.251   3.171  0.6282 -0.0763 -0.0503
 5133W        W21027  11.500  13.212  13.087 -0.1300  0.0429  0.1075
 5134W        W21028   1.927   0.171  14.225 -0.2409  0.2343  0.2840
 5135W        W21029   9.805  10.939  15.028  0.3044 -0.2369  0.0145
 5136W        W21030   1.875  13.743   2.887 -0.2053  0.0914 -0.0243
 5137W        W21031   4.770  17.349   6.254 -0.1110 -0.1124  0.0905
 5138W        W21032  15.789   3.078   3.276 -0.2920 -0.2228  0.0654
 5139W        W21033   9.961  12.265  15.539 -0.1094  0.0634 -0.0438
 5140W        W21034   9.712   3.947  14.205  0.1620  0.0046 -0.1387
 5141W        W21035   9.187   3.049   0.617 -0.0211  0.0036 -0.0548
 5142W        W21036   2.673   2.919   5.973 -0.0472  0.2643 -0.1945
 5143W        W21037   9.157   5.410   3.832  0.0072  0.0280 -0.0782
 5144W        W21038  15.721   4.157  13.122 -0.0122  0.0104 -0.2048
 5145W        W21039   6.486   4.845   3.408 -0.1469  0.2796 -0.4145
 5146W        W21040  15.867   0.688   0.105  0.3200  0.4457 -0.0184
 5147W        W21041  15.225   8.017   6.227 -0.0151 -0.2055  0.0027
 5148W        W21042   5.275   9.818  13.355  0.1728  0.0786 -0.1814
 5149W        W21043   0.216  10.035  12.183  0.0277  0.0153 -0.4983
 5150W        W21044  16.633  13.193  11.892 -0.0102 -0.1723 -0.2497
 5151W        W21045  14.442   3.161   3.010 -0.1030  0.2614  0.1518
 5152W        W21046  14.379   2.123  15.894  0.0126  0.0978 -0.1459
 5153W        W21047   2.282   6.833   0.755 -0.0537  0.1379 -0.0982
 5154W        W21048   9.288   0.954  15.820 -0.1172 -0.0760 -0.2772
 5155W        W21049  17.478   1.565  10.611  0.2198 -0.0309  0.0569
 5156W        W21050  18.017  16.172  12.509 -0.1431  0.1789  0.1454
 5157W        W21051  17.877   9.491   4.667 -0.1480 -0.0892  0.1925
 5158W        W21052  10.884   3.380   4.095  0.0029 -0.1366  0.1551
 5159W        W21053   7.407   6.362  12.237  0.1607  0.0793  0.2158
 5160W        W21054   2.019   2.291   4.536  0.1688  0.0901  0.1173
 5161W        W21055  13.700   7.251  16.127  0.3400 -0.0019 -0.0874
 5162W        W21056   2.167   5.960  13.416 -0.4098  0.0558  0.0033
 5163W        W21057  11.894   3.278  11.236 -0.1585  0.2214 -0.0703
 5164W        W21058   3.698   4.295  15.042  0.0555 -0.0944 -0.0628
 5165W        W21059   4.374   4.637   0.116  0.2350  0.2488  0.0039
 5166W        W21060   8.919  15.957  11.731 -0.1588 -0.1823 -0.0005
 5167W        W21061  15.066   2.680  13.132  0.2053 -0.1825  0.1155
 5168W        W21062   8.511   6.250  10.943  0.0008  0.2827  0.0843
 5169W        W21063  16.003   5.804   2.944  0.0235 -0.0948  0.0315
 5170W        W21064   3.098  18.130   0.851 -0.1909  0.2480  0.0451
 5171W        W21065   3.706  18.107   1.894  0.0168  0.0184 -0.3305
 5172W        W21066   8.836   4.086  12.815  0.0200  0.3500 -0.1623
 5173W        W21067  11.389  16.163   2.394  0.2262 -0.1609  0.0313
 5174W        W21068   4.166   4.163  15.902  0.1322 -0.2392  0.2562
 5175W        W21069   5.403  13.893  13.051  0.0296 -0.2067 -0.1243
 5176W        W21070  10.855   7.007   4.718 -0.0143  0.2454 -0.2884
 5177W        W21071   9.447  15.016   1.328 -0.2147  0.1470 -0.2466
 5178W        W21072   3.202  14.437  12.185  0.2531  0.2098  0.1386
 5179W        W21073   5.507  10.541   1.165 -0.1157 -0.3288  0.0847
 5180W        W21074  15.851  13.813   1.534 -0.0139 -0.1236 -0.0673
 5181W        W21075   8.716   2.967  15.024 -0.0251 -0.2453  0.0724
 5182W        W21076   4.481   8.723   1.641 -0.2092  0.3057 -0.0482
 5183W        W21077  15.015  11.870   2.486 -0.1491 -0.3195  0.0963
 5184W        W21078   8.471   9.148  15.405 -0.3455  0.0750  0.1316
 5185W        W21079  12.786   8.996  15.023 -0.1588 -0.1632 -0.1740
 5186W        W21080   7.316  11.141  14.873 -0.0686  0.0650  0.1906
 5187W        W21081   5.315   6.056   5.241 -0.0556 -0.1553 -0.1400
 5188W        W21082   2.126   1.073  11.403  0.2641  0.2559 -0.1261
 5189W        W21083  11.947   1.629  12.229 -0.2245  0.1043 -0.1651
 5190W        W21084   0.908   4.281  15.508 -0.1155  0.1802 -0.1211
 5191W        W21085  13.908  14.650  15.042 -0.0393  0.0677 -0.0655
 5192W        W21086  13.413   4.805   3.734 -0.1035 -0.1842  0.2391
 5193W        W21087   0.370  15.981  12.488 -0.2081  0.0621  0.1013
 5194W        W21088   4.715   0.877   4.589 -0.2532  0.2723  0.0091
 5195W        W21089   7.553   4.397   2.304 -0.3201  0.2076  0.1465
 5196W        W21090  14.265  16.332   4.353 -0.3000  0.1874  0.0633
 5197W        W21091  14.274  10.367   5.658  0.0299  0.2626 -0.1055
 5198W        W21092   7.878  10.711   0.335  0.0877  0.1798 -0.1213
 5199W        W21093  10.332  10.118  11.773  0.0294 -0.2498 -0.0766
 5200W        W21094   2.938   9.878  12.171 -0.2515 -0.3041  0.2761
 5201W        W21095  13.604  16.467   4.766 -0.2297  0.2520 -0.1859
 5202W        W21096  12.601   6.877  11.594  0.1624 -0.1424  0.0633
 5203W        W21097  16.162   4.800   0.024 -0.3630 -0.5345  0.2583
 5204W        W21098  17.880   1.574   0.050  0.0672  0.3660  0.2310
 5205W        W21099   3.916   0.431   3.387 -0.0697  0.2320 -0.0439
 5206W        W21100  10.203  10.926  12.333  0.2252  0.0168 -0.3061
 5207W        W21101  16.359  17.413  11.702  0.0229 -0.1961 -0.0686
 5208W        W21102  12.920  16.421   5.507 -0.0060  0.2559  0.0145
 5209W        W21103   0.534  14.860   1.944 -0.0036 -0.0611 -0.0032
 5210W        W21104  17.623  13.542  14.057 -0.2364  0.2073  0.0683
 5211W        W21105   0.829   6.921  12.396 -0.0546  0.0585 -0.2057
 5212W        W21106  13.437   2.862   4.102 -0.0208  0.3741 -0.0936
 5213W        W21107  10.627  10.241  15.945  0.0361 -0.0784  0.1477
 5214W        W21108   1.669   6.798   1.384 -0.1914  0.1290 -0.1892
 5215W        W21109  15.501  17.692   3.394  0.3480  0.2645  0.2841
 5216W        W21110  11.508  16.855   0.319 -0.0247  0.3559  0.0962
 5217W        W21111   3.115   4.578   2.100  0.0245  0.0200 -0.1043
 5218W        W21112  10.617   8.848   0.248 -0.2792  0.1822 -0.1995
 5219W        W21113   6.943   7.316   4.837 -0.2802  0.1005 -0.2063
 5220W        W21114  15.956  14.910  15.977 -0.0456  0.2381 -0.3336
 5221W        W21115  13.984   3.285  12.871 -0.2140 -0.0745 -0.0707
 5222W        W21116   8.642   0.482   3.929 -0.0835  0.0857  0.0645
 5223W        W21117   0.220   8.577  14.396  0.0641  0.1250  0.0548
 5224W        W21118  15.197  13.642   2.693  0.0765 -0.3565  0.1507
 5225W        W21119   5.612   8.470   5.484 -0.3019 -0.5033  0.0404
 5226W        W21120   0.422  17.319   4.900 -0.2290 -0.0871 -0.0779
 5227W        W21121   5.514   4.001   0.063  0.4358  0.1651 -0.1300
 5228W        W21122   1.204  14.015   5.653 -0.0962 -0.1377  0.4899
 5229W        W21123   3.393   5.327  15.670  0.2226 -0.4713  0.0770
 5230W        W21124   0.057  13.830   4.389 -0.1063  0.2216 -0.0870
 5231W        W21125  15.886   7.155   0.956 -0.2008  0.0216  0.1777
 5232W        W21126  16.000  17.128   5.410 -0.2502  0.3371  0.0781
 5233W        W21127   9.040   1.813   4.780  0.2104 -0.4158 -0.0569
 5234W        W21128   0.499   9.254   2.542 -0.0638 -0.2588 -0.1359
 5235W        W21129   8.135   5.972  11.101  0.1027  0.0080 -0.0266
 5236W        W21130   5.887  12.509  14.222  0.2892  0.0734  0.0589
 5237W        W21131   2.279   6.413  14.623 -0.1435 -0.0996 -0.0118
 5238W        W21132  16.117   0.655   4.152  0.0438 -0.0243 -0.2126
 5239W        W21133   8.063  14.362  13.479 -0.2325  0.3501 -0.0367
 5240W        W21134   7.939   8.521   1.167 -0.0746  0.2933 -0.1584
 5241W        W21135   2.178   6.072  11.726  0.1115  0.1148  0.4031
 5242W        W21136  17.161  17.388  13.393 -0.0362  0.2081  0.1436
 5243W        W21137  12.142   8.287   4.750  0.0022 -0.0025 -0.2220
 5244W        W21138  11.376  17.107  13.812 -0.4500 -0.0882  0.1670
 5245W        W21139   1.800  13.555   1.394 -0.3033  0.1310  0.0520
 5246W        W21140   1.956   4.334   2.395 -0.0680 -0.2346  0.0279
 5247W        W21141  10.902  16.496   2.699 -0.2464  0.2135 -0.0151
 5248W        W21142   4.958  17.848  12.528  0.0834 -0.3120  0.1373
 5249W        W21143   6.786   1.863   6.207 -0.0643  0.3731  0.0702
 5250W        W21144   7.157   7.023   3.127 -0.2230 -0.0079  0.1262
 5251W        W21145   1.330   2.636  11.978  0.0654 -0.0191 -0.1873
 5252W        W21146   9.749   9.340   4.857 -0.0845 -0.0841  0.3845
 5253W        W21147   1.731  17.832  16.018  0.1599  0.0729 -0.0731
 5254W        W21148   6.512   8.634  10.926  0.1778 -0.0007 -0.0097
 5255W        W21149  16.764  13.258  15.726  0.1614  0.2966 -0.3670
 5256W        W21150   6.562   8.904  11.527  0.0731  0.1433  0.1243
 5257W        W21151  14.382   3.536  12.099  0.2979  0.0580 -0.1046
 5258W        W21152   6.166   3.435   3.648  0.2603  0.2296 -0.3236
 5259W        W21153  11.204  10.359  15.089 -0.4043 -0.2776  0.0444
 5260W        W21154   0.565  11.158   0.479  0.1452  0.3017 -0.1838
 5261W        W21155  16.044  10.081  12.073  0.0043  0.1118 -0.1108
 5262W        W21156   0.103   7.921  13.047  0.0515 -0.1989 -0.1190
 5263W        W21157  13.771  11.679   0.345 -0.0259  0.0690 -0.2131
 5264W        W21158   7.040  17.227   0.195 -0.1653 -0.0755 -0.1040
 5265W        W21159  17.338  13.952   2.205 -0.0099 -0.1080 -0.1449
 5266W        W21160   5.775   3.835   2.251 -0.0132 -0.3490 -0.1639
 5267W        W21161   6.975   0.423   1.973  0.2782  0.5011  0.0265
 5268W        W21162   3.052   2.174   2.310  0.0378 -0.0273 -0.2346
 5269W        W21163   2.494  16.918  10.411  0.0464  0.0697  0.0952
 5270W        W21164  11.084   6.326  15.430 -0.2782 -0.0772  0.1318
 5271W        W21165  11.896  13.383  15.993 -0.2702  0.0676 -0.1430
 5272W        W21166   6.136  13.704  13.154 -0.2368 -0.0098 -0.1784
 5273W        W21167  16.807  12.199  13.024  0.0573 -0.1416 -0.0087
 5274W        W21168   9.453  16.467   2.361  0.2938  0.1346  0.5238
 5275W        W21169  17.745  13.736  11.962 -0.1173 -0.2250  0.0372
 5276W        W21170   9.876  11.580  14.310  0.3784 -0.0557 -0.0396
 5277W        W21171   5.618  12.101   0.895 -0.3345 -0.2166  0.0508
 5278W        W21172  10.854   0.833  10.945  0.0858  0.0190 -0.1972
 5279W        W21173   2.661   0.494  13.545 -0.0665  0.0935 -0.0763
 5280W        W21174  10.004  10.393   4.811  0.5108 -0.0572  0.1284
 5281W        W21175  15.360   7.235  15.218 -0.1167  0.2753 -0.2151
 5282W        W21176   8.313  12.003   5.107 -0.3304  0.2950 -0.3765
 5283W        W21177   9.032  17.942   5.472  0.1316  0.2473 -0.2199
 5284W        W21178   1.989   4.065  14.498 -0.1160 -0.1254 -0.1683
 5285W        W21179  14.589   7.950  14.101 -0.0299  0.3840  0.0640
 5286W        W21180  10.258   2.352  11.426 -0.1121 -0.0920 -0.0242
 5287W        W21181  12.767  16.246   2.109  0.0354  0.4197 -0.0161
 5288W        W21182   9.920  13.776   6.124 -0.2308  0.1781 -0.0018
 5289W        W21183  11.385  15.751  15.239 -0.1994 -0.1010  0.2101
 5290W        W21184  15.348  17.792  12.369  0.0745  0.0702  0.1316
 5291W        W21185  17.285   3.519   5.702  0.1463  0.1924  0.3460
 5292W        W21186  10.780   9.499   5.480  0.4030 -0.0776  0.0468
 5293W        W21187   9.128  10.686   0.306 -0.0750  0.0067 -0.0796
 5294W        W21188   7.244  13.681  15.803  0.1225  0.4372  0.2379
 5295W        W21189   6.682  10.731   1.376 -0.0052  0.0110  0.0078
 5296W        W21190   3.099  10.535   1.346  0.4477 -0.0372 -0.2685
 5297W        W21191  13.508  15.892   0.399  0.2970  0.0868  0.3305
 5298W        W21192   3.756   0.958  13.074  0.1311  0.1014  0.2648
 5299W        W21193   6.691   6.102   4.113 -0.1469  0.0705 -0.0939
 5300W        W21194  15.730   7.362   2.836 -0.2825  0.0079  0.0282
 5301W        W21195  12.043  14.727   2.849  0.1808 -0.1330  0.0614
 5302W        W21196  14.262   8.540   2.511 -0.1767  0.2189  0.1601
 5303W        W21197  10.565  10.651   6.066  0.1030 -0.2512 -0.0451
 5304W        W21198  16.670   4.645  15.565  0.1166 -0.2692 -0.0503
 5305W        W21199  15.339  16.335  15.584  0.0873 -0.3178 -0.1962
 5306W        W21200   2.841  13.939  13.081 -0.1197 -0.1977 -0.2751
 5307W        W21201   1.121   3.985  16.366  0.0650 -0.1239 -0.0255
 5308W        W21202   0.098  13.915   5.482  0.0345  0.0399 -0.1521
 5309W        W21203  15.102  15.595  14.619 -0.0748  0.0380  0.1524
 5310W        W21204  10.614  10.585  14.479 -0.0793 -0.0434 -0.1635
 5311W        W21205   0.787   9.147  16.241 -0.1049  0.0421 -0.2976
 5312W        W21206   4.176  11.216   4.094  0.1294 -0.0508 -0.0673
 5313W        W21207   6.459  17.511   0.430 -0.0117  0.0393  0.2267
 5314W        W21208  16.953   8.075  13.123 -0.6890 -0.0733  0.2495
 5315W        W21209  12.309   8.200  12.018  0.2104 -0.0689 -0.1009
 5316W        W21210  10.908  16.581  15.069  0.1771 -0.1916  0.1885
 5317W        W21211  17.020  12.870   4.273  0.3984  0.1175  0.1278
 5318W        W21212  12.734  15.294   1.898  0.1295  0.1556 -0.2334
 5319W        W21213   9.008  12.459  15.267 -0.1105 -0.3528  0.0276
 5320W        W21214   4.740  13.878   0.667 -0.0218  0.1787  0.1186
 5321W        W21215   7.738   8.785   5.085 -0.1597 -0.5996 -0.1672
 5322W        W21216  12.866   2.821  12.161 -0.0312  0.0159  0.4526
 5323W        W21217  10.937   4.279   4.924  0.2342 -0.1604  0.1502
 5324W        W21218  16.508  11.307  14.946  0.2510 -0.1113  0.1597
 5325W        W21219  11.444  11.308   2.466 -0.0492 -0.0045 -0.2204
 5326W        W21220   2.659  11.233  12.046  0.3987 -0.1910 -0.1367
 5327W        W21221  13.706   9.533   0.032  0.1754 -0.1433 -0.1411
 5328W        W21222  17.802  11.346  15.926  0.3351 -0.0860  0.0634
 5329W        W21223  13.972   9.562  13.230 -0.1465  0.1380  0.1703
 5330W        W21224   3.565   9.254  14.514  0.0985 -0.0223  0.0113
 5331W        W21225   1.983   2.885  11.550  0.1205  0.0468 -0.1098
 5332W        W21226  13.004  15.903   0.649  0.2924  0.1999  0.0722
 5333W        W21227   8.256  13.831  14.144  0.0514 -0.2040 -0.1356
 5334W        W21228  15.428  15.399  12.725  0.1887 -0.0763  0.0853
 5335W        W21229   7.304   2.215  12.896 -0.0974  0.0206 -0.1840
 5336W        W21230   9.268   0.183   0.047 -0.1111  0.0678  0.0918
 5337W        W21231   3.026  12.943  14.713 -0.3295  0.2556 -0.0704
 5338W        W21232  16.732  17.125  13.600  0.1667 -0.1473 -0.0761
 5339W        W21233   0.949  16.727  15.919 -0.0967 -0.1571 -0.0235
 5340W        W21234   3.381   0.476  12.558 -0.0297  0.1342  0.2766
 5341W        W21235  14.926  16.707   1.399 -0.2520  0.2765  0.1006
 5342W        W21236   0.051   9.084   3.529 -0.1081 -0.1607 -0.2252
 5343W        W21237  12.691  10.408   1.065  0.3195 -0.0366  0.0999
 5344W        W21238   9.637   9.615   2.348 -0.0180  0.3234 -0.1330
 5345W        W21239   6.950   9.032  16.138  0.1761 -0.0931 -0.1304
 5346W        W21240   0.544  18.176  13.410  0.0675  0.1115  0.0002
 5347W        W21241   9.277  11.081  15.240  0.1380  0.2379  0.2249
 5348W        W21242   3.972   8.704   1.479  0.1834  0.0134 -0.0204
 5349W        W21243   2.147  17.927  14.006  0.1967 -0.3440  0.1387
 5350W        W21244   8.548   4.926  11.461  0.1433  0.1333 -0.0781
 5351W        W21245  13.090   0.443   5.847  0.1964  0.0061  0.0451
 5352W        W21246   7.684  13.697  14.256  0.4416  0.2017  0.0169
 5353W        W21247   9.103  11.141   0.665 -0.0450  0.1519  0.1528
 5354W        W21248  16.678   3.301   2.057  0.3368  0.3105 -0.0079
 5355W        W21249   2.017  16.873  14.399  0.3120  0.1464  0.0586
 5356W        W21250  13.612   5.004   4.701 -0.4645  0.0583  0.0479
 5357W        W21251  10.528  13.256   4.203  0.0605 -0.0830  0.3191
 5358W        W21252   0.332   0.236  12.442 -0.3033  0.0996 -0.2947
 5359W        W21253   0.257   0.759   1.729  0.0163  0.3839 -0.3859
 5360W        W21254   1.041   2.964   6.344 -0.0951 -0.1699  0.1135
 5361W        W21255   4.972   6.884  16.158  0.1132  0.1169  0.0627
 5362W        W21256   3.593   3.378   0.686 -0.3704 -0.1333 -0.2208
 5363W        W21257   6.722  18.176   5.109 -0.0169  0.1434 -0.1648
 5364W        W21258   8.465   9.932   1.086  0.0697 -0.0313  0.1562
 5365W        W21259  17.895  12.390  15.475 -0.1596  0.3221 -0.0647
 5366W        W21260   6.505  11.141  12.476 -0.0862  0.0247 -0.0320
 5367W        W21261  14.398  12.687   5.602 -0.1020 -0.1063  0.2739
 5368W        W21262  12.001   8.461   4.296  0.0394  0.0447  0.2445
 5369W        W21263  10.492   4.183   5.664  0.2345 -0.1457  0.4399
 5370W        W21264  15.112   2.207   4.900  0.1719 -0.0645 -0.2118
 5371W        W21265   0.565   2.089   0.490 -0.2575 -0.0010  0.0097
 5372W        W21266  16.280   1.976   1.776 -0.1558  0.2145 -0.1955
 5373W        W21267  14.267  12.422  13.359  0.0305  0.0842 -0.2496
 5374W        W21268   8.804   6.837  13.601  0.0891 -0.0039  0.1740
 5375W        W21269  14.925   7.904   1.563  0.3886 -0.0617 -0.0487
 5376W        W21270  13.115   8.665  11.054  0.2096 -0.2069 -0.0138
 5377W        W21271  15.034   9.359  12.535  0.1043  0.0006 -0.0840
 5378W        W21272   6.450  18.218   0.311 -0.2915  0.3106 -0.2475
 5379W        W21273  10.933  17.840  13.994  0.0361  0.0083  0.1547
 5380W        W21274  15.589   9.287  15.421  0.4336 -0.0121 -0.0346
 5381W        W21275   4.667   2.012  15.391 -0.3083 -0.0511 -0.2528
 5382W        W21276  10.938  14.494  15.697 -0.0038  0.1074  0.5028
 5383W        W21277  11.724  10.973   3.942 -0.0621  0.2283  0.2220
 5384W        W21278  11.489  17.214  14.755 -0.1682 -0.0394 -0.2147
 5385W        W21279  11.604   0.991  14.909  0.0374 -0.1784  0.1288
 5386W        W21280  15.823   5.756   2.089 -0.1545  0.5207  0.0560
 5387W        W21281   5.274  17.116  13.395 -0.0945  0.1539 -0.1144
 5388W        W21282  15.091  12.213   1.432 -0.1360 -0.1991  0.0405
 5389W        W21283  10.761   7.311  11.936  0.0195  0.0623 -0.5157
 5390W        W21284  10.619   8.795   3.802  0.1883 -0.0703 -0.0050
 5391W        W21285   5.459  10.912   0.645  0.1699  0.4577  0.2221
 5392W        W21286   4.846   1.451  15.469  0.1464  0.0143 -0.2640
 5393W        W21287   1.062  14.416  13.740 -0.2106 -0.0938 -0.3718
 5394W        W21288   4.903  15.064  11.521  0.2843 -0.0448  0.1529
 5395W        W21289   3.199   7.258  15.416 -0.0511 -0.0995  0.3417
 5396W        W21290   3.537  12.971   4.664 -0.1612 -0.1102 -0.1577
 5397W        W21291  17.080   4.753   5.208  0.1319  0.0925 -0.1636
 5398W        W21292  15.752   3.160  12.899 -0.1037  0.1845 -0.3930
 5399W        W21293   6.451  17.604  13.575 -0.2913  0.1616 -0.1666
 5400W        W21294   7.959   7.032   1.975  0.0866 -0.3203 -0.0082
 5401W        W21295   7.929   6.106  14.373 -0.1166  0.1064 -0.0076
 5402W        W21296   1.466  12.131   4.429  0.0386  0.1565 -0.3784
 5403W        W21297   6.685   4.733  12.943 -0.2424  0.2409 -0.0027
 5404W        W21298  10.766   1.910  14.059  0.1904  0.1607  0.1007
 5405W        W21299   8.126  12.624  12.839 -0.2162 -0.1332 -0.1261
 5406W        W21300   7.924   3.033   0.495  0.0539 -0.0162 -0.3446
 5407W        W21301   3.350  10.127  13.059 -0.0552  0.0827 -0.1251
 5408W        W21302   7.645  12.289   5.808  0.0513 -0.3129 -0.1397
 5409W        W21303   1.634   0.905  12.816  0.1220 -0.1148  0.1135
 5410W        W21304   8.019   9.457  12.701  0.1288 -0.2031  0.1475
 5411W        W21305  17.487   1.676   5.912 -0.1293 -0.1161  0.3655
 5412W        W21306   5.196  15.994  15.516 -0.1101 -0.2236 -0.1917
 5413W        W21307  13.964   8.160   2.433 -0.2933  0.1641 -0.3047
 5414W        W21308   7.516  14.167   4.318 -0.1060  0.2512 -0.1515
 5415W        W21309   7.175  15.087   1.480  0.1340 -0.1963 -0.2875
 5416W        W21310   0.170   4.531   1.703  0.0145 -0.0363  0.1928
 5417W        W21311  11.157  10.475  14.448  0.1029  0.1682  0.1805
 5418W        W21312   8.242  15.743   4.033 -0.2600  0.3682 -0.0859
 5419W        W21313   2.253  12.208  14.408 -0.2989 -0.2374  0.0354
 5420W        W21314  12.808   0.219  14.984  0.0854  0.1185  0.0293
 5421W        W21315  14.162  17.218  10.804  0.0820  0.0062  0.1555
 5422W        W21316  17.248   4.961  14.840 -0.1751  0.0372 -0.1227
 5423W        W21317   8.293   7.064   1.631  0.0623  0.0315  0.3873
 5424W        W21318   4.762   5.560  14.301 -0.2101  0.0616 -0.0673
 5425W        W21319   7.008  17.095  11.288 -0.0535 -0.1408 -0.0664
 5426W        W21320  10.827  14.184   1.907  0.0590  0.2515 -0.0772
 5427W        W21321  11.155  13.698   4.725 -0.0106 -0.2711  0.1256
 5428W        W21322   7.846   5.044  14.741  0.0544 -0.1605 -0.0857
 5429W        W21323  13.145  14.423  14.638 -0.2940 -0.0310  0.0632
 5430W        W21324   1.955   7.791  16.014  0.2925  0.4728 -0.0933
 5431W        W21325  11.180  15.970  15.661  0.0820  0.2990  0.0275
 5432W        W21326  12.327  12.682   4.621 -0.2636  0.0999 -0.1199
 5433W        W21327  12.810   3.277  15.499  0.0504 -0.2179  0.1651
 5434W        W21328   4.557   4.626  15.344 -0.0589 -0.0648 -0.1806
 5435W        W21329   6.513   2.422   3.722  0.2510  0.1444  0.3750
 5436W        W21330   6.804  12.416   0.673 -0.1391 -0.0807  0.1428
 5437W        W21331  18.154  16.553  12.728 -0.2018  0.2355  0.1199
 5438W        W21332  14.857  13.874  13.429 -0.2851  0.2966 -0.2837
 5439W        W21333  14.162   0.967   5.091  0.0542 -0.1869 -0.0956
 5440W        W21334   9.323   1.548  11.105 -0.0034  0.4080 -0.0833
 5441W        W21335   1.411   6.348   1.272  0.2007  0.0558 -0.3485
 5442W        W21336  17.980   8.480  14.442  0.2290 -0.1035 -0.0024
 5443W        W21337  10.452   3.856  15.358 -0.0596 -0.0774  0.4213
 5444W        W21338   9.770   3.120   3.595 -0.4793  0.3831  0.0450
 5445W        W21339   8.234  14.237   2.053  0.0558  0.1353 -0.2030
 5446W        W21340   0.914  10.519  13.797  0.1531 -0.0617  0.1056
 5447W        W21341   6.262  14.088  13.585 -0.2256  0.1805 -0.1077
 5448W        W21342   4.615  14.310   4.106 -0.1055  0.2063  0.0166
 5449W        W21343   5.100   5.060  16.290 -0.1463  0.1721 -0.3307
 5450W        W21344  11.752  18.135  12.453 -0.2210 -0.2816 -0.4470
 5451W        W21345  14.520   5.058   4.514 -0.1277 -0.1205  0.0115
 5452W        W21346  13.422  16.669   5.458  0.1536  0.1619  0.1355
 5453W        W21347  14.938   0.838   0.744 -0.2363  0.0878  0.1192
 5454W        W21348  13.400  15.024   4.167  0.1737 -0.1617  0.0212
 5455W        W21349   0.834   8.786   0.775  0.1575  0.0244 -0.5187
 5456W        W21350   9.749  13.776   4.239  0.0264 -0.1336  0.0994
 5457W        W21351  17.105  15.640  16.096  0.1691 -0.1475 -0.0138
 5458W        W21352  10.370  11.864   1.016  0.2175 -0.0518  0.0153
 5459W        W21353  10.200   2.729  15.374  0.0830  0.1632 -0.1056
 5460W        W21354  10.778   1.292  11.788 -0.1048  0.2136  0.2381
 5461W        W21355   1.889   2.207  11.405 -0.0472  0.0241  0.0162
 5462W        W21356  11.826   6.509   4.656  0.1745  0.1625  0.0848
 5463W        W21357   3.418   7.812  16.232 -0.2104  0.1150  0.0592
 5464W        W21358  11.381   0.792   0.828 -0.0215 -0.0718 -0.1810
 5465W        W21359  17.710   6.359  12.854  0.1887 -0.0988 -0.0417
 5466W        W21360   2.109   6.411  15.974  0.2123  0.0140 -0.2373
 5467W        W21361   0.842   7.647   3.907 -0.0158 -0.1753 -0.2364
 5468W        W21362   7.344  18.039   4.038  0.0461  0.1293  0.1855
 5469W        W21363  16.904   3.845  12.338  0.0630  0.0884 -0.1816
 5470W        W21364  17.247   2.213  12.929  0.0827 -0.1398 -0.1703
 5471W        W21365  12.633  11.377  14.073 -0.0130 -0.0417 -0.0708
 5472W        W21366  15.957  15.625   2.247  0.0305 -0.0226  0.1203
 5473W        W21367   1.520  11.265   4.764  0.0290  0.0634 -0.0531
 5474W        W21368   5.808  17.730  11.482  0.0463  0.1031 -0.1391
 5475W        W21369  12.209   7.525   1.688  0.3615  0.1312 -0.0827
 5476W        W21370  14.529   6.602   3.783  0.0682  0.4515  0.1181
 5477W        W21371  10.548   7.427   2.378  0.5757 -0.1454 -0.3525
 5478W        W21372  17.895   5.156  13.954 -0.0256 -0.1583 -0.0271
 5479W        W21373  10.270   0.884  15.242  0.1572 -0.0732 -0.1541
 5480W        W21374   6.680  15.667   1.380  0.4623 -0.1028 -0.3987
 5481W        W21375   5.897  10.028   3.620 -0.2774 -0.0071  0.0593
 5482W        W21376   6.226  17.064   4.719  0.1852  0.0003 -0.2098
 5483W        W21377   7.808  14.656  11.672  0.0307 -0.0908 -0.0729
 5484W        W21378   2.647  17.322  13.629 -0.0074 -0.1640  0.6636
 5485W        W21379   6.461  11.887   4.142  0.1465  0.1008  0.0435
 5486W        W21380   7.869  10.461   4.053 -0.2744 -0.0712  0.0008
 5487W        W21381  17.853  11.911   0.695 -0.0658  0.2102  0.0351
 5488W        W21382  10.533   8.231  10.993 -0.2468 -0.1219 -0.1800
 5489W        W21383   5.957  15.013  16.161  0.0765  0.2930 -0.1191
 5490W        W21384  14.405   5.684  15.257  0.0141  0.3474  0.1715
 5491W        W21385   3.594   9.059  10.515  0.2589 -0.0333 -0.0790
 5492W        W21386  12.993  16.752   0.516  0.0538 -0.1226  0.0574
 5493W        W21387   0.523  12.930  11.790  0.0399  0.1325  0.0256
 5494W        W21388  10.772  16.979  12.981  0.2296  0.0795 -0.1749
 5495W        W21389  12.359   3.815   0.308  0.3718 -0.2501  0.1507
 5496W        W21390   5.034  12.749   6.240 -0.1377  0.5109 -0.2374
 5497W        W21391   3.726  17.462   3.452 -0.0722 -0.1645 -0.2163
 5498W        W21392  12.806  11.980  12.761  0.1802 -0.2343  0.2957
 5499W        W21393  12.514  13.151   2.939  0.1983 -0.2720  0.4114
 5500W        W21394   4.575   5.071  11.025  0.0904 -0.0555  0.0605
 5501W        W21395   2.951   2.573   1.579  0.0975 -0.0402  0.0689
 5502W        W21396  15.248   5.303  14.350  0.0785 -0.6260 -0.0029
 5503W        W21397  13.964   7.783  15.148  0.2231  0.0259 -0.2248
 5504W        W21398   5.581  15.778   3.880  0.2113  0.0591  0.4607
 5505W        W21399   0.731  15.973  15.223 -0.4459 -0.2848  0.2847
 5506W        W21400  11.774  11.046  10.171 -0.1639 -0.0903 -0.0004
 5507W        W21401   6.856   7.443  11.702 -0.2180 -0.4150  0.0972
 5508W        W21402   7.276  15.585  15.571  0.2595 -0.1590  0.2313
 5509W        W21403  11.383   7.096   2.997 -0.1702  0.1045  0.2000
 5510W        W21404  15.006  17.250  15.340  0.0169  0.3273  0.1589
 5511W        W21405  14.015  12.068   5.556 -0.2410  0.1946 -0.0218
 5512W        W21406   9.592  10.731  14.299  0.3444  0.0915  0.1840
 5513W        W21407  15.555   9.360  14.092  0.0130  0.2187  0.0615
 5514W        W21408   5.508   8.531   5.963  0.1254 -0.1039  0.2530
 5515W        W21409   2.370  16.169  13.673  0.1227  0.0868 -0.4357
 5516W        W21410  15.304   9.756   6.188 -0.3630  0.2068 -0.0087
 5517W        W21411   2.422  10.261   4.240 -0.1278  0.1989 -0.0533
 5518W        W21412   2.572   1.805  15.835 -0.2878  0.2825 -0.0410
 5519W        W21413   6.956   2.848   0.644 -0.0564  0.0738  0.0674
 5520W        W21414   7.867   3.842   3.537  0.3328 -0.1301 -0.2777
 5521W        W21415   3.944  14.118  13.553  0.0143 -0.0223  0.4298
 5522W        W21416  11.275   8.257   4.241 -0.0356 -0.0603  0.3113
 5523W        W21417   1.151   5.531  12.919  0.1788  0.0032  0.2065
 5524W        W21418   7.262   5.270  12.886  0.3857 -0.0828 -0.2836
 5525W        W21419   8.041   3.411   0.132 -0.0962 -0.1956 -0.2871
 5526W        W21420  17.070  16.105   4.983  0.0524 -0.0403 -0.3191
 5527W        W21421  11.610  13.847   4.972 -0.1055  0.0420  0.0331
 5528W        W21422   0.285  10.047  15.002 -0.1368  0.0507 -0.1705
 5529W        W21423   0.712   4.260  12.995 -0.2944  0.0240  0.2056
 5530W        W21424  11.577   4.394   2.317 -0.2060  0.0729  0.1271
 5531W        W21425  14.099  16.585   0.461 -0.1951  0.2862  0.1741
 5532W        W21426   8.385  14.675  16.431 -0.0212 -0.1615  0.0804
 5533W        W21427   6.589   4.330  12.048  0.2134 -0.0611  0.0363
 5534W        W21428  17.774  12.705  14.681  0.1534 -0.3531 -0.1515
 5535W        W21429  10.222   2.282  12.978 -0.0461  0.0752  0.4350
 5536W        W21430   9.532   5.155  13.277  0.1094  0.1379 -0.2220
 5537W        W21431  15.654  16.543   1.083  0.0168  0.1555  0.0506
 5538W        W21432   1.304  17.656  14.683 -0.1781 -0.2511  0.0775
 5539W        W21433  13.322   6.375  16.452  0.1100 -0.0072 -0.0821
 5540W        W21434  15.604   2.316  14.514  0.0144 -0.1554  0.1304
 5541W        W21435  12.643   9.865   1.211  0.1386 -0.1889  0.1851
 5542W        W21436   1.451   9.221   1.275 -0.1293  0.0980  0.0361
 5543W        W21437   3.500   4.684  11.399 -0.3094  0.0662 -0.2035
 5544W        W21438  12.643   8.960   2.786  0.2620 -0.0344 -0.1125
 5545W        W21439  15.350  17.707   3.888  0.0550  0.1206  0.3045
 5546W        W21440  10.211  14.027  15.326  0.2117 -0.0418 -0.1134
 5547W        W21441  16.215  11.117  12.203  0.1785 -0.0256  0.0570
 5548W        W21442  17.138   9.452   0.558  0.2451  0.1539 -0.2653
 5549W        W21443   9.516  12.506   3.310 -0.5374  0.0746 -0.0277
 5550W        W21444  10.031  16.429   1.281  0.1310 -0.0233  0.0040
 5551W        W21445  13.167   2.104   4.647 -0.2664  0.0034  0.0450
 5552W        W21446   8.189   6.547  14.333 -0.3908 -0.3724  0.1610
 5553W        W21447   1.632  12.969   3.330  0.1502 -0.0606 -0.1727
 5554W        W21448   2.000  13.493  14.139 -0.0120  0.0648  0.0414
 5555W        W21449   6.957   6.456  12.025 -0.0402  0.4028  0.1410
 5556W        W21450  12.882   5.613  15.758 -0.1104  0.5323 -0.1109
 5557W        W21451  16.073   0.424  11.898  0.0214 -0.1911  0.1374
 5558W        W21452  11.314   1.281   0.681 -0.0752  0.3291 -0.1485
 5559W        W21453   3.572  12.253  13.954 -0.1565  0.0292  0.1054
 5560W        W21454  16.292   8.176  16.248 -0.0858 -0.3610  0.0729
 5561W        W21455   6.554   4.414   4.361 -0.2102 -0.3748  0.1948
 5562W        W21456   7.599   1.753  13.083  0.2246 -0.0808  0.1485
 5563W        W21457  17.782   8.634  13.497 -0.0745  0.3836 -0.1417
 5564W        W21458   5.838  12.554   5.665 -0.1919 -0.1910 -0.2047
 5565W        W21459   2.186   8.264  16.352  0.0118  0.4073  0.0362
 5566W        W21460   9.994   2.800  14.954  0.0537 -0.0070 -0.0439
 5567W        W21461  16.326  16.397  11.619  0.0024 -0.0742  0.0921
 5568W        W21462   9.565  16.963   2.393 -0.1546 -0.0869 -0.0772
 5569W        W21463   7.486  17.301  16.388 -0.0166 -0.1618  0.1039
 5570W        W21464   0.543   5.522  16.306  0.2702 -0.4074  0.1274
 5571W        W21465   1.129  12.166   3.598  0.0665 -0.2563 -0.0788
 5572W        W21466  12.224  15.941  15.362 -0.3517  0.0674 -0.0705
 5573W        W21467   8.174  14.031   5.102 -0.1578  0.0822  0.0306
 5574W        W21468  13.861  14.916   3.716  0.1126 -0.0537  0.3253
 5575W        W21469  16.774   4.630  12.826 -0.2168  0.1281  0.2247
 5576W        W21470  14.947  16.923  12.655 -0.2038 -0.0877  0.2125
 5577W        W21471   8.655   5.876   6.146  0.3631  0.0473  0.1206
 5578W        W21472   3.835   2.469   5.186 -0.0560  0.2135 -0.0793
 5579W        W21473  13.618   3.424  11.440 -0.1987  0.1185  0.0812
 5580W        W21474   4.826  15.329  12.969 -0.1785  0.0910 -0.0783
 5581W        W21475   2.760   8.435   1.991  0.1190 -0.1535  0.1811
 5582W        W21476  16.371  15.441   6.514  0.0674 -0.3110 -0.2748
 5583W        W21477   9.253  18.062   4.337  0.0142  0.0016 -0.1213
 5584W        W21478  11.736  17.152  15.230  0.1234  0.1757 -0.0724
 5585W        W21479   3.547  11.788   0.413  0.0704  0.0501  0.2918
 5586W        W21480  17.210   3.679  12.776 -0.1249  0.3089 -0.2894
 5587W        W21481  10.380   4.571   1.919  0.0728  0.1312 -0.0453
 5588W        W21482  17.405   8.926   4.680  0.2781  0.3063  0.0445
 5589W        W21483   7.932   5.109  13.341 -0.1216 -0.1150  0.1630
 5590W        W21484   5.602  10.434  13.337  0.1750  0.0044 -0.1752
 5591W        W21485  14.955  15.753   1.252  0.0002  0.1553 -0.0079
 5592W        W21486  16.630  10.839  12.122 -0.1201  0.0176 -0.2936
 5593W        W21487  10.802  12.001   4.333  0.4216 -0.0796 -0.3085
 5594W        W21488  12.208   3.446   4.998 -0.2000  0.0021 -0.2052
 5595W        W21489   3.925   0.054   1.446 -0.1748 -0.1291 -0.4108
 5596W        W21490  10.030   3.921  12.431 -0.1832 -0.1321 -0.0466
 5597W        W21491   2.657  15.060   2.355  0.1594 -0.1072  0.0089
 5598W        W21492   5.851   6.106   1.924 -0.2246  0.1747  0.2768
 5599W        W21493  14.222   7.026   3.731  0.0080 -0.0573  0.2438
 5600W        W21494  15.853  13.148  11.122  0.1238 -0.0873  0.0376
 5601W        W21495  12.730  11.210  11.967  0.0205 -0.0709  0.0268
 5602W        W21496  17.591  10.684  12.021 -0.0176 -0.2254 -0.4957
 5603W        W21497   8.720   9.727   2.743  0.0282  0.0645 -0.0391
 5604W        W21498   6.330  17.050  14.716  0.1000 -0.2156  0.1175
 5605W        W21499  15.363  16.026   0.247 -0.1176  0.0888  0.5352
 5606W        W21500   6.187  10.993   3.757  0.0253 -0.4833 -0.0829
 5607W        W21501   6.867   8.868  13.271  0.3128  0.3491 -0.0880
 5608W        W21502   5.012   0.885   2.719  0.2141 -0.0306  0.1444
 5609W        W21503  16.356   9.703  12.089  0.3422  0.0262 -0.0300
 5610W        W21504   8.350  10.585   2.365  0.1711 -0.1894  0.2131
 5611W        W21505  15.893  13.746  12.125  0.0094 -0.1856  0.0475
 5612W        W21506  10.520   6.942   2.414  0.0468 -0.3412  0.3464
 5613W        W21507   4.562   5.678   4.861  0.2105 -0.0927 -0.2844
 5614W        W21508  14.665   5.945   4.540 -0.0318  0.1143  0.0268
 5615W        W21509   6.858  18.145   2.494  0.2481  0.0145  0.2197
 5616W        W21510   3.106   7.681  11.485 -0.0315  0.2394  0.0401
 5617W        W21511  10.107   7.591   0.574  0.2694  0.0407  0.0636
 5618W        W21512  16.695   8.579  14.818 -0.0070  0.2346  0.0342
 5619W        W21513  14.494  16.386  15.736  0.1170  0.1228  0.4007
 5620W        W21514  10.245   8.163  13.843  0.1542 -0.2369  0.0170
 5621W        W21515   1.496  16.775  13.483 -0.0386 -0.0580 -0.1031
 5622W        W21516   5.913   2.755  12.747  0.2589  0.2056  0.2600
 5623W        W21517  15.393   9.066  14.917  0.0780  0.3356 -0.0641
 5624W        W21518   1.379  10.501   0.341  0.4038  0.0675 -0.0003
 5625W        W21519   4.309   2.333   5.304 -0.1751 -0.4143  0.1518
 5626W        W21520  14.157  10.523  12.505 -0.0388 -0.2768  0.4054
 5627W        W21521  10.486   3.049   0.818 -0.1052  0.2033 -0.0814
 5628W        W21522   9.408   9.783   0.122 -0.0264  0.0660 -0.0398
 5629W        W21523  11.801  16.481  14.199  0.2556 -0.2687  0.0134
 5630W        W21524  18.223  17.735  15.273 -0.4614  0.0249  0.1153
 5631W        W21525   9.044  11.648  13.708 -0.2436  0.4318  0.2249
 5632W        W21526  11.328   7.178  11.923 -0.1874 -0.4212 -0.2244
 5633W        W21527  16.077   8.734  12.852  0.0988 -0.0361 -0.2534
 5634W        W21528  16.327   3.902  12.646 -0.0438  0.0511 -0.0992
 5635W        W21529   3.337   5.626  12.447  0.0562  0.4753 -0.0371
 5636W        W21530  15.369   3.228   2.971  0.1054 -0.0562 -0.0148
 5637W        W21531   6.947  12.633   5.171  0.4760  0.0423  0.1362
 5638W        W21532   6.318   8.997   0.501  0.1598 -0.0122 -0.0189
 5639W        W21533  13.793   5.621   0.476  0.0197 -0.0024 -0.0154
 5640W        W21534   8.815  11.743  12.458  0.0021 -0.2907 -0.1964
 5641W        W21535   3.024   2.220   0.702 -0.0944  0.2438  0.0673
 5642W        W21536   3.469   1.034   1.029  0.3023 -0.0599  0.2218
 5643W        W21537   4.417   3.204  12.467  0.1191 -0.0133  0.0316
 5644W        W21538   6.202  10.535   3.110 -0.0756  0.0044  0.2561
 5645W        W21539   3.704  13.550  16.048  0.2132 -0.0142  0.3560
 5646W        W21540   9.016  12.498   2.310 -0.0578 -0.3183  0.0378
 5647W        W21541   2.778   9.464  13.936  0.0831  0.1619 -0.0661
 5648W        W21542   5.177  17.904   5.971  0.1952 -0.0356  0.0031
 5649W        W21543   3.210  10.060  13.912  0.3226 -0.1949 -0.2405
 5650W        W21544  14.010   8.028   3.780 -0.1903  0.1222 -0.1763
 5651W        W21545   5.614   9.075   0.950  0.0045  0.0511 -0.1163
 5652W        W21546   8.975   7.638   1.631  0.0468 -0.1558  0.0076
 5653W        W21547   3.131   3.257   2.232  0.0103 -0.0632 -0.0465
 5654W        W21548   4.536  16.378   1.144 -0.1967 -0.2425  0.0769
 5655W        W21549  11.321  12.414   2.507  0.2164 -0.3176  0.1196
 5656W        W21550   4.117   4.135   1.070 -0.0977 -0.1595 -0.1949
 5657W        W21551   8.494  15.447  14.235  0.1576  0.0613 -0.0726
 5658W        W21552   1.218   9.481   5.148 -0.0783  0.1820  0.1923
 5659W        W21553   8.441   4.315   0.989  0.1272  0.0463 -0.0504
 5660W        W21554  11.273   9.408  13.870  0.0688  0.3842 -0.2142
 5661W        W21555  17.691   8.590  16.149 -0.0781  0.0928 -0.2434
 5662W        W21556  16.689  17.072   1.462 -0.0689 -0.1801 -0.2881
 5663W        W21557   6.896  15.528   5.320  0.0192  0.2974 -0.2792
 5664W        W21558   8.427  13.304   2.321  0.0427  0.0160 -0.3646
 5665W        W21559  10.166  15.783   2.963 -0.4246  0.1229 -0.0146
 5666W        W21560  14.089  13.918  12.836  0.1735  0.0284 -0.0196
 5667W        W21561   3.366   7.918  14.577 -0.0040  0.3469  0.1888
 5668W        W21562  10.582   1.370   1.725  0.1421 -0.0654  0.3454
 5669W        W21563   0.571   1.827   3.976  0.1432 -0.3225 -0.2084
 5670W        W21564  11.133   2.760  11.000 -0.2265 -0.0820  0.0392
 5671W        W21565   7.479   6.387   4.704  0.0566  0.2192  0.4376
 5672W        W21566  15.612   3.966   2.893  0.2524  0.0823 -0.0722
 5673W        W21567  13.714   3.507   3.178 -0.0177 -0.1394  0.3109
 5674W        W21568  15.787  12.038   1.223 -0.1318  0.1580  0.0092
 5675W        W21569  14.526   8.883  12.075  0.0153  0.0028 -0.0246
 5676W        W21570  11.765  10.343   5.334  0.0797  0.3346  0.1864
 5677W        W21571   8.860   2.309  12.110 -0.3711 -0.1539  0.0302
 5678W        W21572  11.015  11.332   1.102 -0.0942 -0.2460  0.2851
 5679W        W21573  12.370  17.907  13.924 -0.1803 -0.2487 -0.0785
 5680W        W21574   1.483  10.724   1.637 -0.1284 -0.0735 -0.1742
 5681W        W21575  12.290   8.280  13.214 -0.1041 -0.1380 -0.0611
 5682W        W21576   6.049  11.288   2.456  0.1209  0.0467  0.1838
 5683W        W21577   0.232  12.694   3.500  0.0186 -0.0997 -0.3495
 5684W        W21578   5.325  17.054  15.131 -0.1352 -0.0193  0.2216
 5685W        W21579   1.693  12.089  11.852  0.0418  0.1940  0.0204
 5686W        W21580   0.556  15.009   3.548  0.0908  0.3070  0.0680
 5687W        W21581   6.767  13.041   4.917  0.1346 -0.0089  0.0031
 5688W        W21582  10.912   9.770   4.036  0.1957  0.1549  0.1030
 5689W        W21583  16.013   4.471  11.538 -0.0426 -0.3076  0.0930
 5690W        W21584  10.457   6.729  16.384  0.0126 -0.1395 -0.0834
 5691W        W21585   3.386   4.003   0.073 -0.0824 -0.1025  0.0107
 5692W        W21586   0.291  12.683  16.085  0.1184  0.0583 -0.0333
 5693W        W21587  11.222   8.706  14.506  0.0919  0.2045 -0.0537
 5694W        W21588  15.838  11.669   2.196  0.0643 -0.1923  0.1558
 5695W        W21589   9.310  11.702  12.177  0.1754 -0.1577 -0.3213
 5696W        W21590   7.248  10.153   1.645  0.1310 -0.3241  0.0621
 5697W        W21591   6.825   5.094   3.165  0.2767 -0.1002 -0.3634
 5698W        W21592  11.972  13.478   5.365  0.1575  0.3973 -0.2453
 5699W        W21593   9.942   2.117   1.568 -0.0349 -0.0401 -0.0603
 5700W        W21594   2.482   1.450  11.262  0.3477  0.0221  0.0793
 5701W        W21595   9.489  11.854  11.755  0.1383  0.0862 -0.1964
 5702W        W21596   1.438  12.611   0.704 -0.3422 -0.4278  0.0484
 5703W        W21597  16.268   0.512   5.063 -0.0930 -0.1424 -0.3968
 5704W        W21598  16.032  11.866  14.223 -0.1093 -0.1539  0.1212
 5705W        W21599  15.416   7.920   1.843  0.0959  0.0535 -0.0746
 5706W        W21600  15.286   1.848  16.000  0.0444 -0.0162  0.1080
 5707W        W21601  13.449   5.756  13.975 -0.0969 -0.1658  0.0338
 5708W        W21602  11.524   9.526   0.988 -0.1855 -0.2698  0.0561
 5709W        W21603  15.485  13.049   2.085  0.0194  0.1771  0.0258
 5710W        W21604   0.726   5.958  15.888  0.3268  0.0555  0.2400
 5711W        W21605  15.924   0.224  10.502 -0.3138 -0.0245 -0.0882
 5712W        W21606   9.565   5.143   5.750 -0.0819 -0.0186 -0.0842
 5713W        W21607   3.646   9.717  13.861  0.2734 -0.1722  0.1606
 5714W        W21608  15.948   4.532  12.481 -0.1304  0.0031 -0.1756
 5715W        W21609   8.868   8.961  15.054 -0.1714  0.2288  0.1281
 5716W        W21610   4.811   8.840   2.040 -0.0450  0.0282 -0.0060
 5717W        W21611  16.433   3.218  13.954 -0.0496 -0.0294 -0.3584
 5718W        W21612   3.878   7.044  14.825  0.0087 -0.0236 -0.3734
 5719W        W21613   8.907  12.478  11.966 -0.1105 -0.0865  0.3166
 5720W        W21614  12.368   3.935   3.329  0.1658  0.2069 -0.1788
 5721W        W21615   9.120  10.097   1.939 -0.0446  0.1693  0.2693
 5722W        W21616   7.981   1.876  11.563 -0.0319 -0.0051 -0.1229
 5723W        W21617   2.546  16.942  12.484 -0.0603 -0.3104 -0.1147
 5724W        W21618  14.833  14.288   1.635 -0.0750 -0.2063 -0.1217
 5725W        W21619   0.947   3.287  12.610  0.1244 -0.1142 -0.0581
 5726W        W21620   2.974  17.094  11.692 -0.1248 -0.5423 -0.3337
 5727W        W21621  17.599   6.448  12.329  0.1677  0.1916  0.0857
 5728W        W21622  11.137   2.779  15.080  0.0113  0.2468 -0.0753
 5729W        W21623   0.106   3.728   4.181 -0.1919  0.1929 -0.1674
 5730W        W21624  13.225  14.326  13.728 -0.3328 -0.1241  0.1917
 5731W        W21625   8.249   1.078   0.840  0.2766 -0.1436  0.2496
 5732W        W21626  11.672  14.360   2.090 -0.3346 -0.1156  0.1173
 5733W        W21627   4.256   1.379   1.031 -0.0239  0.2477  0.1424
 5734W        W21628  10.006  15.575  12.023 -0.1611 -0.2560 -0.1077
 5735W        W21629   0.603  13.866   4.368 -0.0868  0.1671 -0.1707
 5736W        W21630   1.801  14.748  14.911 -0.0468  0.1135 -0.2205
 5737W        W21631   6.670  17.983  15.895 -0.1866 -0.2328 -0.1056
 5738W        W21632  12.504   7.383   4.751  0.0014  0.0521 -0.0631
 5739W        W21633   3.317  12.962   0.832  0.1413  0.2937  0.1118
 5740W        W21634  13.707   0.473  14.643  0.1300  0.0051  0.1789
 5741W        W21635   6.103  14.597  15.407  0.1155  0.1201 -0.2578
 5742W        W21636   4.390  10.398  15.953 -0.1241  0.2004  0.0553
 5743W        W21637   7.090   4.847  11.113 -0.2828 -0.2668 -0.0691
 5744W        W21638  11.837  17.681   2.668  0.3999 -0.0925  0.1013
 5745W        W21639  14.787  12.971  11.968  0.2409  0.1435  0.1218
 5746W        W21640  17.298   9.858  14.286  0.0080 -0.4869  0.3969
 5747W        W21641   7.054  11.348   3.217 -0.1449 -0.0733 -0.1807
 5748W        W21642   2.595  12.382  15.088  0.0519  0.3891  0.0367
 5749W        W21643   4.990  17.148  15.989 -0.1517  0.5814  0.2623
 5750W        W21644   4.812   6.762  14.777 -0.0146 -0.2124  0.0490
 5751W        W21645   8.724  11.468  11.588  0.0045  0.0563  0.0661
 5752W        W21646  17.196   9.229   2.674  0.1198 -0.2449 -0.1340
 5753W        W21647   0.419  15.796   2.931  0.0591 -0.1078 -0.2343
 5754W        W21648   3.774  10.743   0.674  0.0152 -0.0109 -0.1662
 5755W        W21649  11.713   5.063  11.169  0.1467  0.0538 -0.0168
 5756W        W21650   5.384  18.172  14.353  0.0486  0.3301  0.2149
 5757W        W21651   7.861   3.316   0.988 -0.0219  0.1584  0.2717
 5758W        W21652  10.390  18.172   2.226 -0.2732 -0.1429  0.1999
 5759W        W21653  12.591  16.418   1.702  0.2378 -0.1938  0.1662
 5760W        W21654   6.624   5.816   3.316 -0.0861  0.0228 -0.1180
 5761W        W21655   8.755  15.648   0.863 -0.0010 -0.0803  0.4707
 5762W        W21656  11.495  15.363  14.261  0.1095  0.2387  0.0767
 5763W        W21657   9.030   5.838   3.592  0.3707  0.0547  0.2490
 5764W        W21658  10.569  16.021   3.423 -0.0171 -0.0802 -0.3313
 5765W        W21659  13.527  16.306  14.004  0.0637  0.1201 -0.1829
 5766W        W21660  15.602  12.878   6.479  0.0716  0.1633  0.1699
 5767W        W21661  13.969  11.119  10.944 -0.1231  0.2483 -0.0868
 5768W        W21662  16.810   9.888  15.725  0.0496  0.0577  0.1687
 5769W        W21663   4.680  18.050  11.792 -0.0176  0.1211 -0.1742
 5770W        W21664  15.085   9.020   5.550  0.1774 -0.1725 -0.2651
 5771W        W21665   9.235   8.381  11.253 -0.1036  0.2352 -0.1713
 5772W        W21666   2.089   3.344   0.089 -0.1082 -0.0727  0.0777
 5773W        W21667  11.906   8.771   0.134  0.0588  0.0394  0.0854
 5774W        W21668   1.832  14.326  13.177  0.2010 -0.0018  0.2546
 5775W        W21669  13.943  10.909  13.547 -0.0488  0.0588  0.3582
 5776W        W21670   6.333  16.293  13.937 -0.0273 -0.0226  0.0543
 5777W        W21671  14.485   8.386  13.033  0.0424 -0.1335  0.3864
 5778W        W21672  14.654   1.182  16.090 -0.0378  0.1043 -0.2141
 5779W        W21673   0.712  13.363   4.108  0.1966 -0.2653 -0.0335
 5780W        W21674  12.451  15.747   3.708 -0.1412 -0.0945  0.1722
 5781W        W21675   2.181   7.374   1.418 -0.1038  0.0329  0.2877
 5782W        W21676   0.350   2.138  13.837  0.2154  0.1319  0.1365
 5783W        W21677   3.517  15.808   2.200  0.4348  0.3337 -0.0977
 5784W        W21678  17.610   8.298   5.693 -0.2476 -0.1048  0.0127
 5785W        W21679   8.927   2.668  16.053 -0.0868  0.2276  0.2292
 5786W        W21680   8.888   9.276  11.094  0.1275 -0.1933 -0.0139
 5787W        W21681  10.035  17.800  12.325  0.0694 -0.2971  0.3213
 5788W        W21682   9.790   8.669   4.078 -0.2079  0.2144 -0.0309
 5789W        W21683   8.761   8.032  14.730  0.1826 -0.0183 -0.0185
 5790W        W21684   8.858  16.103   4.904  0.0198  0.1870  0.2920
 5791W        W21685   6.083  10.973   2.896  0.1230 -0.1931  0.1732
 5792W        W21686   4.400   5.056  15.764 -0.1066 -0.1986  0.2722
 5793W        W21687  15.518  16.984   3.290 -0.2511  0.0134  0.3114
 5794W        W21688  17.338  14.292   2.590  0.0270  0.1775 -0.0943
 5795W        W21689   6.714   1.166   3.735 -0.1131 -0.4143 -0.2896
 5796W        W21690   9.680   8.306   3.697  0.1656 -0.0632 -0.1005
 5797W        W21691   0.666  10.680   0.826 -0.1187 -0.0313  0.1827
 5798W        W21692   5.824   4.185  14.106 -0.2437 -0.1114 -0.0981
 5799W        W21693   2.430   9.091  15.778  0.0021  0.1498 -0.0975
 5800W        W21694  12.658  17.493   0.065  0.2013 -0.0658  0.1821
 5801W        W21695  11.253   6.525   2.835  0.3434  0.0003 -0.0014
 5802W        W21696  14.784   3.553   3.568  0.1804 -0.1793  0.1953
 5803W        W21697  11.029  14.234  11.269 -0.1020  0.3744  0.3486
 5804W        W21698  14.641  13.508  15.653  0.0390 -0.3257  0.0007
 5805W        W21699  16.209  12.092   0.990 -0.3405  0.3193 -0.2621
 5806W        W21700  11.651  12.482  13.677  0.0837  0.0325 -0.0419
 5807W        W21701  12.057   3.658  14.294 -0.0224 -0.2861  0.3725
 5808W        W21702  14.314  15.228   0.632  0.2551  0.0528 -0.0942
 5809W        W21703  17.745   3.560   3.128 -0.1448  0.1487 -0.0629
 5810W        W21704  10.892  16.169   0.145  0.2115 -0.1317  0.2070
 5811W        W21705  10.702   5.610  12.579 -0.3105 -0.1252  0.0274
 5812W        W21706   9.717  12.826  13.208  0.0371  0.0969  0.1325
 5813W        W21707   7.361   7.761   2.470 -0.2764  0.2607  0.0057
 5814W        W21708  12.282  17.748  12.197 -0.0835  0.0342 -0.0557
 5815W        W21709  17.048  13.541  15.200  0.1429 -0.0184 -0.1021
 5816W        W21710   3.092  14.912   3.897 -0.2294 -0.1806  0.2312
 5817W        W21711   8.549  10.468  11.168  0.2197  0.0920  0.3665
 5818W        W21712   2.749   3.070  13.622 -0.0044  0.1057  0.1973
 5819W        W21713  17.258  11.129   0.899 -0.1276 -0.2961 -0.0036
 5820W        W21714   5.655  13.164   1.084 -0.1813  0.0458  0.0805
 5821W        W21715  11.677   9.988   1.795 -0.1609  0.0857 -0.4118
 5822W        W21716   2.789   5.945   0.347  0.0435 -0.0168  0.0633
 5823W        W21717   9.294   4.861   4.987  0.0298 -0.0626  0.0520
 5824W        W21718   8.873   9.418   2.275 -0.0131 -0.2248  0.0680
 5825W        W21719   7.870   0.381   1.896  0.2692 -0.0076  0.1620
 5826W        W21720  17.872  12.064   3.365  0.0224  0.0254 -0.3501
 5827W        W21721  13.638  10.745   4.131 -0.3119 -0.0464  0.1018
 5828W        W21722  14.844  10.356  14.797 -0.1480 -0.0459 -0.0541
 5829W        W21723   9.390   3.750   2.928 -0.0870 -0.1106  0.2357
 5830W        W21724   1.522  10.155   3.637  0.0110 -0.0512  0.0644
 5831W        W21725  17.199   2.536   3.299  0.2921 -0.1191 -0.2914
 5832W        W21726  16.860  10.284  12.577  0.1259  0.0995  0.0487
 5833W        W21727   9.997   5.439   5.494  0.0536 -0.0695 -0.0161
 5834W        W21728   3.305   3.538   0.192 -0.3302  0.0877 -0.0731
 5835W        W21729   6.500  10.206  14.355  0.0345  0.0743 -0.3160
 5836W        W21730   5.331   4.080  11.803 -0.0593 -0.2301 -0.1089
 5837W        W21731   9.378   5.488  15.736  0.2333 -0.1127 -0.0552
 5838W        W21732   3.860   6.260   3.941 -0.3014 -0.0136 -0.1463
 5839W        W21733  14.938  18.237  13.881 -0.0670 -0.1095 -0.2511
 5840W        W21734  15.439  17.287   1.085 -0.3236 -0.1167 -0.0422
 5841W        W21735   8.604   7.374   5.667 -0.1525  0.1201  0.1701
 5842W        W21736  10.765  12.985  15.450 -0.2752 -0.2283 -0.3184
 5843W        W21737  17.012  16.669   2.970  0.1710 -0.1432  0.0021
 5844W        W21738   6.884   1.048  12.228  0.0660 -0.0560 -0.1565
 5845W        W21739   6.730  18.128  15.421 -0.0729 -0.2148  0.2589
 5846W        W21740   4.461   8.618   2.616  0.1414  0.1094  0.2826
 5847W        W21741   4.395  14.052  11.005  0.1661  0.0742 -0.3503
 5848W        W21742   7.193   9.123   0.920 -0.1570 -0.3248  0.4164
 5849W        W21743   5.944  15.146   4.957  0.2180  0.3793  0.2220
 5850W        W21744  13.228   4.508  12.964  0.0418  0.2911  0.1976
 5851W        W21745   0.835  14.255   4.707  0.0259 -0.1029  0.1633
 5852W        W21746   0.106   7.142  15.492  0.0703 -0.1729  0.0007
 5853W        W21747   1.165   0.170   1.073  0.2983  0.0972 -0.0598
 5854W        W21748   0.843  17.738  16.397 -0.0394  0.0288  0.2196
 5855W        W21749  17.304  16.169  11.454  0.0321  0.0116 -0.2525
 5856W        W21750  12.346   6.477  10.587  0.1073  0.0508  0.2591
 5857W        W21751   3.958   1.050  16.453  0.3198 -0.0462  0.0164
 5858W        W21752   0.473  12.687   1.870 -0.1206  0.1511  0.0078
 5859W        W21753  17.945   2.967   3.930 -0.1175 -0.1758  0.1052
 5860W        W21754  11.289   0.251   2.568  0.0212  0.0707  0.0486
 5861W        W21755   6.194   5.148  11.036  0.1860  0.0732  0.4220
 5862W        W21756  18.183  10.867   3.198 -0.1473  0.1039 -0.4910
 5863W        W21757  10.527   8.283   3.641 -0.1313 -0.1956  0.2546
 5864W        W21758  14.088   4.471   3.197  0.1810  0.1196  0.0978
 5865W        W21759  10.456   4.908  10.794  0.1160  0.0596 -0.0390
 5866W        W21760   3.028   5.120  16.145  0.2490  0.0714  0.2442
 5867W        W21761   7.342   8.494   3.505  0.1895 -0.3008 -0.1049
 5868W        W21762  12.050   1.613   5.110 -0.0375 -0.0824 -0.2075
 5869W        W21763  17.056   8.376   6.201 -0.0334  0.2416  0.0640
 5870W        W21764   7.617  14.528  13.833 -0.2252  0.6248 -0.0371
 5871W        W21765  11.792   0.822   2.170  0.0706  0.0566 -0.0051
 5872W        W21766   3.813   3.467  13.728  0.2742 -0.0313  0.1763
 5873W        W21767   3.353  16.524   4.975  0.1680 -0.0069 -0.2841
 5874W        W21768  16.172  15.792   4.851  0.1799 -0.4149 -0.0990
 5875W        W21769   7.714   7.875  13.820 -0.0469 -0.0729  0.0645
 5876W        W21770   9.470  10.520  11.422  0.0346  0.2894 -0.0194
 5877W        W21771  12.238   5.466  10.505 -0.3308  0.2039 -0.0091
 5878W        W21772  15.908  12.459   1.734  0.0260  0.0241 -0.2359
 5879W        W21773   4.160   2.753   0.483 -0.0576  0.1180 -0.0157
 5880W        W21774   1.069   2.436  15.426  0.1175  0.0842 -0.2693
 5881W        W21775   2.812  13.043   0.947  0.0918  0.1222 -0.0964
 5882W        W21776  18.145  10.699  13.026 -0.1758 -0.0264  0.2984
 5883W        W21777   9.459  14.179   4.179 -0.0221 -0.0733  0.3543
 5884W        W21778  14.515  11.584   2.637 -0.0938  0.1940  0.0387
 5885W        W21779  11.086   4.473   2.054  0.2240  0.0628  0.1030
 5886W        W21780  16.802  14.375  12.517  0.3392 -0.0119 -0.1876
 5887W        W21781   7.096   4.183   0.054  0.2982 -0.3218 -0.1726
 5888W        W21782  17.395   4.027   0.086  0.1327  0.1827 -0.1010
 5889W        W21783   2.948  16.285   2.729  0.0316  0.2615 -0.4378
 5890W        W21784  18.073   4.979   1.881 -0.0814  0.0579 -0.0803
 5891W        W21785  12.675  13.713   0.060  0.3137 -0.2878 -0.2606
 5892W        W21786   1.627   1.109   1.048 -0.0693 -0.0461  0.1546
 5893W        W21787   7.295   6.707  13.228  0.0863 -0.0172 -0.0348
 5894W        W21788  17.223  10.677   3.261  0.0681 -0.1186  0.1785
 5895W        W21789  10.371   1.848  11.466 -0.1836 -0.0478 -0.0733
 5896W        W21790   9.692   1.425  15.407  0.1599  0.0907 -0.4201
 5897W        W21791   5.065  12.210   0.920 -0.1599 -0.0348  0.1085
 5898W        W21792  11.433  14.732   1.345 -0.1501 -0.0087  0.0926
 5899W        W21793  11.607   9.511   9.801 -0.0279  0.0884  0.2662
 5900W        W21794   0.380  13.294  15.433 -0.2582 -0.1425 -0.1313
 5901W        W21795  10.499  11.018  13.116  0.2385  0.1961  0.0707
 5902W        W21796  10.758   6.047  14.371 -0.1638 -0.2291  0.2313
 5903W        W21797  13.998   7.612   1.357 -0.0513 -0.1330  0.0576
 5904W        W21798  17.452  18.095  11.395 -0.1384  0.2968 -0.2023
 5905W        W21799   3.604   1.202   4.098 -0.2165  0.0628  0.4244
 5906W        W21800  17.673  12.446   1.544 -0.0226  0.2841  0.1740
 5907W        W21801   0.064  14.372   5.270 -0.0854  0.3026 -0.1001
 5908W        W21802   0.785  13.207  12.217  0.2156 -0.0559  0.0710
 5909W        W21803   2.183   0.970  14.621  0.0587  0.0167  0.0047
 5910W        W21804   1.277   7.572  14.954 -0.1623  0.0019 -0.1608
 5911W        W21805   6.941  12.095   5.025 -0.2937 -0.2342 -0.0269
 5912W        W21806  11.415  10.982  13.340 -0.2980 -0.0775 -0.2497
 5913W        W21807  11.766   4.103   4.084 -0.3546  0.0338  0.4196
 5914W        W21808  10.116  13.534  15.436  0.1959 -0.3916  0.1198
 5915W        W21809   5.501   5.989   4.765 -0.2425  0.1379  0.1397
 5916W        W21810   2.912  17.348  12.691 -0.3809 -0.0870  0.1633
 5917W        W21811  11.568  11.975  14.393 -0.0659 -0.0687  0.3091
 5918W        W21812   0.675   0.038   1.065 -0.0880  0.0158 -0.0090
 5919W        W21813   5.956   3.598  13.044  0.0321 -0.2158  0.0316
 5920W        W21814   5.315   5.760  12.531 -0.0840  0.1273  0.2964
 5921W        W21815  12.821  17.131   3.352  0.0567 -0.2699 -0.3637
 5922W        W21816  13.443   6.641   2.847 -0.0093 -0.2012 -0.1674
 5923W        W21817   8.549   0.723   2.074  0.1016  0.0031 -0.2402
 5924W        W21818  10.002   3.572   1.166  0.0242 -0.2881  0.0595
 5925W        W21819  16.642   3.894  15.851 -0.0129 -0.0408  0.0315
 5926W        W21820  12.361  13.952  12.703  0.2914  0.3826  0.1677
 5927W        W21821  15.171  14.555   1.913  0.0025  0.1205  0.0523
 5928W        W21822   8.042   1.739  14.531 -0.2610 -0.1894 -0.0822
 5929W        W21823  14.834  16.767   0.044 -0.0196 -0.1322 -0.0379
 5930W        W21824   2.205  10.631  13.100  0.0115  0.3894  0.0864
 5931W        W21825   4.548   7.087  16.409 -0.0673 -0.0567 -0.0087
 5932W        W21826   6.926   0.394  13.737 -0.0861  0.1554  0.0230
 5933W        W21827  11.576  14.223  11.949  0.1548  0.1211 -0.2920
 5934W        W21828   2.457  12.536  12.975  0.1052  0.1535 -0.0576
 5935W        W21829  16.598   4.896   3.176 -0.1023  0.2227 -0.2459
 5936W        W21830   2.307  13.501  16.221  0.1032 -0.1705  0.0778
 5937W        W21831  11.552  12.720   2.915  0.1262  0.0392  0.1400
 5938W        W21832  10.008   7.278   4.664  0.3447 -0.0224  0.1328
 5939W        W21833   2.880   0.879  15.406 -0.0095 -0.1553  0.1931
 5940W        W21834  17.018  10.746  16.172  0.1418 -0.0969  0.0012
 5941W        W21835   5.653   4.500   2.918 -0.1214  0.0381  0.0217
 5942W        W21836  10.337   6.628  15.937 -0.2529  0.1415  0.0695
 5943W        W21837  13.265  16.978  15.335  0.2018 -0.0055 -0.1427
 5944W        W21838   4.357  13.483  11.516  0.0294  0.0292 -0.0517
 5945W        W21839   6.765  10.747   5.409  0.1164  0.2541 -0.2618
 5946W        W21840   7.025   8.756  11.667 -0.1401  0.1036  0.1089
 5947W        W21841   0.886  16.789   2.157  0.2515  0.0845 -0.1362
 5948W        W21842  18.138   8.535   1.522 -0.1188  0.1372  0.3084
 5949W        W21843   1.847  17.222  14.975 -0.1342  0.0510  0.2192
 5950W        W21844   1.812  16.383  16.219  0.1423 -0.2527  0.0991
 5951W        W21845  18.177   9.965   3.565 -0.0743 -0.1817  0.1202
 5952W        W21846   9.295   5.931   2.045 -0.1424 -0.1327  0.1077
 5953W        W21847   4.163  16.939   0.191 -0.0689 -0.4576  0.2045
 5954W        W21848   8.542  14.301   4.156  0.2920 -0.0500  0.1068
 5955W        W21849  16.476   9.082  16.350  0.1889 -0.2214 -0.1816
 5956W        W21850  16.294   9.777   3.318 -0.0298 -0.1112  0.0627
 5957W        W21851  14.242  17.599   1.091  0.1837  0.0293  0.0117
 5958W        W21852  14.454   9.537   3.996 -0.1164  0.0491  0.1559
 5959W        W21853   6.937  16.770  13.038  0.1369  0.1125  0.2744
 5960W        W21854   9.306   9.325  15.845  0.2434 -0.0965  0.1487
 5961W        W21855  13.802  17.500   0.165 -0.1413  0.1696 -0.1441
 5962W        W21856  16.518   4.334  14.262 -0.3381 -0.2850  0.0306
 5963W        W21857   8.631  15.612   5.783  0.0039  0.0686  0.0389
 5964W        W21858   7.064   5.418  12.309  0.1964 -0.1779 -0.0644
 5965W        W21859   6.006  12.593   2.938 -0.2853 -0.0992  0.3882
 5966W        W21860  11.639   5.371  16.446 -0.0583 -0.3108  0.0153
 5967W        W21861  15.373   1.661  15.484  0.2582  0.1572  0.1624
 5968W        W21862   3.158   7.125   1.467 -0.0818  0.1617  0.0199
 5969W        W21863  11.470   8.184   1.132 -0.0878  0.0061 -0.4288
 5970W        W21864   4.378   1.967  14.935 -0.0321 -0.0291  0.1123
 5971W        W21865  12.886   9.136  12.307  0.0052  0.0469  0.0402
 5972W        W21866   6.155   9.808  12.152  0.1577 -0.4245  0.0951
 5973W        W21867  12.621   8.228   0.373 -0.0790  0.1105 -0.1100
 5974W        W21868  16.705   3.786   3.893  0.0868  0.0807 -0.1228
 5975W        W21869  10.551  17.773   4.047  0.0823 -0.1691 -0.1143
 5976W        W21870  15.516   7.663  15.033  0.3863  0.1611  0.0480
 5977W        W21871  11.668  17.479   0.814 -0.0169 -0.2190  0.0670
 5978W        W21872   3.719   1.913   2.876 -0.0443  0.1219  0.2597
 5979W        W21873   1.505  14.403   5.761  0.1916 -0.3154 -0.1234
 5980W        W21874   1.532  15.691   0.256  0.0683  0.1587  0.2444
 5981W        W21875  16.561   8.123  12.445 -0.0008  0.1068 -0.2627
 5982W        W21876   7.591   6.894   4.416  0.0760  0.1469 -0.0916
 5983W        W21877   2.422   0.357  13.086 -0.2778 -0.0397  0.0104
 5984W        W21878   9.422  12.844   0.800  0.0912  0.1044  0.0621
 5985W        W21879  15.239   0.703   6.251 -0.1984  0.0936 -0.2341
 5986W        W21880   8.463   3.195   2.650  0.0468  0.0825  0.1937
 5987W        W21881  11.229   5.070  11.363 -0.2086  0.0936 -0.0873
 5988W        W21882  17.312  17.862   4.955 -0.1599 -0.1157 -0.2490
 5989W        W21883  10.673  16.936   1.878  0.0852  0.0779 -0.2773
 5990W        W21884  16.519   1.405   3.672  0.0715  0.0933  0.1084
 5991W        W21885  16.337  11.551   2.222 -0.2662 -0.0571 -0.0921
 5992W        W21886  17.057   2.378   2.651 -0.0130 -0.0875  0.1820
 5993W        W21887  17.321   2.370   0.813 -0.4800  0.0880 -0.1135
 5994W        W21888  10.984   3.623  15.906 -0.1519  0.2613 -0.4885
 5995W        W21889   6.868  13.198   3.982 -0.0116  0.0953  0.1933
 5996W        W21890   8.063   2.226   1.751 -0.0976 -0.1179 -0.0272
 5997W        W21891  10.525   9.863  15.673  0.2558  0.0624 -0.0891
 5998W        W21892   9.899   4.822  13.344  0.0441 -0.0970 -0.2436
 5999W        W21893  13.798  14.451  12.762 -0.3580 -0.3317 -0.0279
 6000W        W21894   2.083   6.109   1.925 -0.1834 -0.0248 -0.1622
 6001W        W21895  13.088  14.991  15.846 -0.1751  0.0242 -0.0431
 6002W        W21896  15.386   3.968   4.157 -0.1715 -0.2230 -0.1258
 6003W        W21897   8.057  15.694  11.653 -0.0034 -0.0368  0.0942
 6004W        W21898   2.496  16.031   4.527  0.0517 -0.2219  0.1045
 6005W        W21899   5.754   5.891   5.525 -0.1097  0.1771  0.1257
 6006W        W21900   0.301  15.070  14.822 -0.1963  0.0930 -0.1174
 6007W        W21901  12.637  12.472  13.024  0.1046  0.2673 -0.2432
 6008W        W21902   7.620   7.454   1.164  0.2010 -0.3626 -0.0197
 6009W        W21903  11.282   9.235  15.471 -0.1132 -0.1633  0.1744
 6010W        W21904  17.577   8.218  15.367  0.1765  0.0250 -0.1693
 6011W        W21905  13.507   2.030   0.081 -0.0612 -0.2516  0.0494
 6012W        W21906  12.689  10.743  12.803  0.3795 -0.1174  0.0236
 6013W        W21907  15.385   3.384   3.650  0.1635 -0.0987  0.1402
 6014W        W21908  15.346   2.980   2.493 -0.2399 -0.2101 -0.3119
 6015W        W21909  13.318  13.683  15.804  0.3461  0.2063  0.2190
 6016W        W21910   2.190   7.024   3.259 -0.2853  0.1826 -0.0358
 6017W        W21911  13.383  12.901  14.181  0.1424 -0.0917  0.1528
 6018W        W21912   4.487   8.504   4.302  0.1653 -0.1361 -0.3351
 6019W        W21913  13.076  10.284   2.554  0.4348 -0.2108 -0.2399
 6020W        W21914   6.460   5.649   1.124 -0.1519 -0.2782  0.1847
 6021W        W21915  12.528  16.926   4.173  0.1423  0.0812 -0.0706
 6022W        W21916  17.589   0.367   0.932 -0.0939 -0.1996  0.4766
 6023W        W21917   1.477   6.506   2.234 -0.0802 -0.2097  0.1966
 6024W        W21918   3.835  15.967   0.487 -0.1495 -0.1360 -0.0896
 6025W        W21919   7.920   3.388   1.834 -0.2009  0.0405  0.0201
 6026W        W21920   7.099  13.071   2.533  0.0541  0.3293  0.0730
 6027W        W21921   8.565   7.267  11.924  0.2399 -0.1654 -0.4351
 6028W        W21922   0.559  16.044  16.088 -0.0061 -0.3683  0.0634
 6029W        W21923  17.345  16.362  13.337 -0.0999  0.3299  0.0369
 6030W        W21924  16.351   5.432  12.745  0.4040  0.2801 -0.2660
 6031W        W21925   1.088  15.662   4.752 -0.4002 -0.0016  0.1887
 6032W        W21926  13.790   5.400  16.434  0.0556 -0.0498  0.1345
 6033W        W21927  17.446   5.239  15.859 -0.2472 -0.2135 -0.0008
 6034W        W21928   6.192  17.047   2.974 -0.0104 -0.3011 -0.2200
 6035W        W21929   3.270   3.855  12.583  0.0823  0.0214  0.0560
 6036W        W21930   6.979  11.312   0.043 -0.0057  0.1941 -0.2396
 6037W        W21931  17.779   0.677  15.373  0.0385  0.1835  0.0489
 6038W        W21932  16.821   2.427  12.786 -0.0499  0.1580  0.4060
 6039W        W21933   5.590  11.626   1.329 -0.0980  0.0678 -0.0280
 6040W        W21934   7.199  16.031  15.342  0.0820 -0.2017 -0.0740
 6041W        W21935  15.101   2.118  11.756 -0.1329  0.2028  0.0791
 6042W        W21936  10.046  17.683  14.774  0.1567 -0.2243  0.1178
 6043W        W21937   7.651   5.814   4.392  0.1177  0.2267  0.1436
 6044W        W21938   5.551   3.619   0.786 -0.1251 -0.1927 -0.1946
 6045W        W21939   5.365  12.577  12.328 -0.3224 -0.0029 -0.2854
 6046W        W21940  14.170   5.014  15.390 -0.2500  0.0735  0.1182
 6047W        W21941   8.670   1.298  12.875  0.1418 -0.2290  0.0195
 6048W        W21942   9.285   5.961  12.952 -0.0611 -0.2618 -0.0713
 6049W        W21943  13.533   5.600  11.686 -0.2057 -0.0495 -0.1590
 6050W        W21944   9.876  11.979  12.301 -0.0926 -0.1560  0.1526
 6051W        W21945  16.642   6.433   1.573  0.0495 -0.0671 -0.0602
 6052W        W21946   2.683   1.508   2.175  0.0721  0.0431 -0.1373
 6053W        W21947   1.269   6.188   5.358  0.0754  0.0939 -0.1755
 6054W        W21948   2.108  15.051   1.060 -0.0385  0.3202  0.0531
 6055W        W21949  16.158  10.422  15.684 -0.0323 -0.4012  0.0976
 6056W        W21950  17.421   9.778   2.311  0.0664  0.0527  0.2931
 6057W        W21951  15.174  13.679   5.955 -0.1214  0.1331 -0.1841
 6058W        W21952   4.753   4.864  12.690  0.0941 -0.4806 -0.1945
 6059W        W21953  16.067   6.845   0.460  0.2315  0.0294  0.4051
 6060W        W21954  10.129   3.498  13.244 -0.1509 -0.0562 -0.1830
 6061W        W21955   0.306   6.051   2.399  0.0014 -0.1384 -0.0716
 6062W        W21956   7.479   5.622   2.173  0.0255 -0.1805  0.0152
 6063W        W21957  15.562   1.314   0.878  0.0220  0.3053 -0.0434
 6064W        W21958  16.758   2.520   1.261 -0.1099 -0.2265  0.0243
 6065W        W21959   8.620  18.170  13.792 -0.2439  0.0948 -0.1125
 6066W        W21960  10.922   3.645  11.302  0.1283 -0.0474 -0.0165
 6067W        W21961   8.891   5.215  14.309 -0.2454 -0.3798  0.1129
 6068W        W21962   0.249   7.629  12.680 -0.1521 -0.4956  0.1032
 6069W        W21963  17.104   3.669  13.304  0.2159  0.3479 -0.1041
 6070W        W21964   0.876   2.810  15.875 -0.1664  0.1082  0.2164
 6071W        W21965   3.360   1.767  13.778 -0.0087 -0.0046 -0.1150
 6072W        W21966  13.311   9.600   3.049  0.2294 -0.1004 -0.0347
 6073W        W21967   7.862   4.801  10.751 -0.1344 -0.2332  0.2879
 6074W        W21968  15.878  13.335   2.273  0.0993 -0.0630 -0.0318
 6075W        W21969  15.447   3.988   1.725  0.2967  0.1211 -0.1772
 6076W        W21970   6.414   1.570  14.658  0.0532 -0.0270  0.1759
 6077W        W21971   5.511   1.541   2.018  0.1509 -0.0772 -0.0444
 6078W        W21972   6.698   9.453   1.926  0.0972 -0.1096  0.1261
 6079W        W21973   5.331  15.202  15.346  0.3067 -0.2986 -0.0335
 6080W        W21974  11.998  16.689   2.610  0.1356  0.0386 -0.1906
 6081W        W21975  17.833   4.141   5.631 -0.1166 -0.2914 -0.0607
 6082W        W21976   0.524   2.588   2.786 -0.2057  0.2908 -0.0399
 6083W        W21977   7.205   7.354   0.828 -0.3116  0.2646  0.1935
 6084W        W21978   3.411   2.643   4.527  0.1106  0.1913 -0.3444
 6085W        W21979  12.717  16.877   0.958  0.0326 -0.0228  0.1520
 6086W        W21980   1.881   0.665  14.334  0.0708 -0.0531  0.0463
 6087W        W21981   4.516  12.277   1.588  0.3103 -0.1474  0.2081
 6088W        W21982   7.806   4.735  16.278 -0.1828 -0.1584 -0.0597
 6089W        W21983   4.851  11.678  13.688  0.2845  0.2406  0.0079
 6090W        W21984  10.979   8.279  14.581  0.4747 -0.2517 -0.0837
 6091W        W21985  17.324   5.367   3.099  0.2267 -0.1288 -0.1458
 6092W        W21986   9.608  14.939  14.623  0.0855  0.1090 -0.3993
 6093W        W21987   9.101   5.971  15.966 -0.1969  0.1465  0.4868
 6094W        W21988   2.864   3.351   4.512  0.1279  0.2223  0.1093
 6095W        W21989   9.574   0.831   2.633 -0.0200  0.4283  0.1746
 6096W        W21990   9.865  15.959  13.067  0.2158  0.2152 -0.0703
 6097W        W21991  13.684   2.314  14.786 -0.1629  0.0802 -0.1097
 6098W        W21992  13.283   5.549   5.126 -0.0804  0.2128 -0.0750
 6099W        W21993   1.997   1.845  15.111  0.1115 -0.2249 -0.4183
 6100W        W21994   0.119   5.842  11.520  0.1183  0.0921 -0.1915
 6101W        W21995   6.332  11.665   4.985 -0.2463  0.1325 -0.2337
 6102W        W21996   1.647  16.722   2.364  0.5151  0.0731 -0.3210
 6103W        W21997  13.890  14.362  12.187  0.3635  0.0023  0.0629
 6104W        W21998   0.319   8.428   0.169  0.3246 -0.2112 -0.2402
 6105W        W21999   3.412  12.488  13.439 -0.3174  0.0276  0.1709
 6106W        W22000   8.188   8.188   2.605  0.2955 -0.2319  0.0856
 6107W        W22001  12.011   2.825  14.999 -0.4698  0.0069 -0.0930
 6108W        W22002   2.636   3.222  14.398  0.1779  0.4372  0.1374
 6109W        W22003  14.131   8.876   0.457 -0.1452  0.1811 -0.1056
 6110W        W22004  13.818  10.457   4.788  0.0202  0.2707 -0.1066
 6111W        W22005   6.990  13.278  15.289 -0.2419 -0.0052 -0.0946
 6112W        W22006   6.655   4.570   3.882 -0.2944 -0.2778  0.2843
 6113W        W22007   1.730  13.729  15.667 -0.0642  0.2875 -0.2218
 6114W        W22008  15.307  15.356   3.105 -0.0757  0.2044 -0.1496
 6115W        W22009   6.387   5.359  13.842  0.2033  0.0196 -0.0381
 6116W        W22010  10.429   0.825   4.213  0.3859 -0.0264 -0.4319
 6117W        W22011   5.052   5.347  12.514  0.0997 -0.2193 -0.0782
 6118W        W22012  17.495   6.150   4.633  0.0576 -0.1074 -0.0579
 6119W        W22013   3.733  14.569   3.089 -0.0135 -0.0658  0.1840
 6120W        W22014  16.541  12.897   4.396  0.1390  0.2668  0.0210
 6121W        W22015  16.886   3.945   0.004  0.0911 -0.2423 -0.0764
 6122W        W22016  13.263  10.937   4.441  0.1354 -0.0308  0.0538
 6123W        W22017  14.057  10.556   1.785 -0.0736  0.0179 -0.3254
 6124W        W22018   2.838   0.523  14.989  0.1628  0.1655  0.1130
 6125W        W22019   1.996  13.009   1.352  0.0406 -0.0508  0.4231
 6126W        W22020   3.278   0.570   2.179 -0.0061 -0.1054  0.3575
 6127W        W22021  11.857   1.127  15.566 -0.4096 -0.0978 -0.0494
 6128W        W22022  12.120   8.122   2.424 -0.1648 -0.1402 -0.0764
 6129W        W22023  13.950   3.475  16.185  0.1572  0.1788 -0.2287
 6130W        W22024  17.482   6.099  16.199 -0.0090 -0.4398  0.1202
 6131W        W22025  15.264  16.823  14.541  0.1622  0.2676 -0.1714
 6132W        W22026   2.858   4.454   5.800  0.0398 -0.1186  0.1929
 6133W        W22027  14.033  15.292   0.163 -0.1302  0.0589 -0.1531
 6134W        W22028   0.154  13.098   0.827  0.3616 -0.0328  0.1500
 6135W        W22029   4.369   4.403   1.867 -0.0305  0.0638 -0.0140
 6136W        W22030  15.632  11.636   0.968 -0.0883  0.0611 -0.1735
 6137W        W22031  12.495   4.707  13.696 -0.0450  0.0210  0.2238
 6138W        W22032   7.070  16.804  12.573 -0.2558 -0.0571 -0.0120
 6139W        W22033   7.405   7.778  14.149  0.0970  0.3154  0.1226
 6140W        W22034  13.136  12.940  14.709  0.1890  0.2463 -0.3419
 6141W        W22035  16.840  15.943   1.382  0.1211  0.1111 -0.2058
 6142W        W22036  12.994   9.863  11.637  0.0804 -0.1184 -0.3404
 6143W        W22037   3.742  12.208  12.422  0.2400  0.3477 -0.2042
 6144W        W22038   4.524   9.894   3.674 -0.3256 -0.1027  0.4885
 6145W        W22039  12.244  17.951   5.583  0.0097  0.1713 -0.1528
 6146W        W22040  17.632   9.305   2.406 -0.2670  0.0558 -0.1619
 6147W        W22041   0.492  15.876  11.124  0.2410  0.1323  0.1310
 6148W        W22042  14.509  13.568   0.994 -0.1583  0.1143 -0.2550
 6149W        W22043   1.425   2.730  14.421  0.0433 -0.2819  0.2727
 6150W        W22044   2.962   2.641   0.882  0.3984 -0.1347  0.0289
 6151W        W22045   0.425  12.786  15.311  0.1861 -0.0257  0.0281
 6152W        W22046  17.797   1.481  14.716  0.2023  0.3854  0.3423
 6153W        W22047  12.069   1.848  14.024 -0.0958  0.0540 -0.1460
 6154W        W22048   2.503  13.868  15.260  0.4730  0.1511  0.2939
 6155W        W22049   0.065  14.995  16.270  0.1095 -0.0791  0.2080
 6156W        W22050  16.948  15.910   5.536  0.3912  0.2846 -0.2906
 6157W        W22051   5.110  11.195   4.978 -0.1656  0.1190 -0.3474
 6158W        W22052   3.950   4.567   2.690 -0.3564  0.0275  0.1337
 6159W        W22053   3.600  17.553   4.172 -0.2776 -0.0876  0.1444
 6160W        W22054   3.382   2.161  11.981  0.2092  0.0951  0.2440
 6161W        W22055  10.856   4.642  14.293  0.4226  0.2654 -0.1467
 6162W        W22056   0.255   3.043  11.708 -0.0001  0.2321  0.0926
 6163W        W22057  13.820  17.791   4.834  0.0920 -0.0913  0.0161
 6164W        W22058  13.010   7.431   0.248 -0.0172  0.1547  0.0892
 6165W        W22059  13.553  17.405  11.572  0.0846 -0.2190 -0.0275
 6166W        W22060   7.293  13.737   5.566 -0.0719 -0.1875 -0.0962
 6167W        W22061   8.537   8.433   2.285  0.1709  0.0888 -0.2234
 6168W        W22062   7.406  17.633  11.328 -0.0010 -0.0170  0.0093
 6169W        W22063  12.338   1.762  11.602 -0.1794  0.2555  0.0567
 6170W        W22064   2.291   8.384  13.873 -0.0148  0.0934  0.1297
 6171W        W22065   1.872  11.104  13.265  0.1374  0.1388  0.0523
 6172W        W22066  17.557  11.577   1.008  0.0064 -0.1658 -0.0471
 6173W        W22067   1.758   3.178   1.954  0.1821 -0.1980  0.0171
 6174W        W22068   5.588  15.505  10.959 -0.0178  0.0784  0.4130
 6175W        W22069   9.412   4.625  12.485 -0.1029 -0.3904 -0.2109
 6176W        W22070  10.118   8.290  13.369 -0.0651 -0.2532  0.1217
 6177W        W22071  14.794  10.191   1.161  0.2726  0.1656  0.1794
 6178W        W22072   5.658   5.139  13.353  0.2035 -0.1489 -0.0900
 6179W        W22073   9.074  12.894   5.464  0.0292 -0.0337  0.3262
 6180W        W22074   6.639   1.011  10.586 -0.1181 -0.2438 -0.2983
 6181W        W22075  14.301  12.455   6.101 -0.1554  0.0202  0.1687
 6182W        W22076   7.350   8.678  13.360 -0.3193 -0.0437 -0.3315
 6183W        W22077   0.694   1.317   6.112 -0.2619 -0.2151  0.2658
 6184W        W22078   9.666  16.036  14.546 -0.0519  0.0006 -0.0980
 6185W        W22079   4.423   0.618  11.997  0.1012  0.1675 -0.4104
 6186W        W22080  10.231  16.617   3.635  0.1956 -0.0046  0.0309
 6187W        W22081   2.837   0.252  14.538  0.2052  0.0379  0.1975
 6188W        W22082   4.408  14.801  13.742 -0.1339 -0.0472 -0.1477
 6189W        W22083   0.652  14.827  14.222  0.1384  0.3756 -0.2014
 6190W        W22084  14.838  17.094  14.701 -0.0956 -0.1205 -0.0996
 6191W        W22085   9.611   3.911   5.129  0.0334  0.1671  0.0770
 6192W        W22086   7.893   2.080   0.903  0.1411 -0.0584  0.0555
 6193W        W22087  12.660   2.030  13.832 -0.0485 -0.0945  0.0031
 6194W        W22088   9.553  15.528  12.054 -0.0322  0.2244  0.0688
 6195W        W22089  14.802   5.616   1.468  0.0805 -0.1763 -0.2653
 6196W        W22090   6.290   3.272  11.294 -0.3362 -0.2387  0.2580
 6197W        W22091  10.785  13.009   3.594 -0.2519 -0.0215 -0.1153
 6198W        W22092  13.520  13.109   1.347  0.3846 -0.2230 -0.0410
 6199W        W22093   6.894  17.092   1.834  0.0160 -0.0973 -0.0808
 6200W        W22094  17.202   5.133   1.615  0.2476 -0.0120  0.1275
 6201W        W22095   5.341  10.527   3.589  0.1468 -0.0922 -0.1608
 6202W        W22096  13.856  15.594  12.484  0.2837 -0.1269 -0.0062
 6203W        W22097   2.283  15.048  14.363  0.0591  0.1465  0.2906
 6204W        W22098  11.518  15.971  13.000 -0.0010  0.3247  0.1121
 6205W        W22099   6.846  17.730  11.471 -0.4020  0.0527  0.0724
 6206W        W22100   8.247  10.710  15.015 -0.2662 -0.3250  0.1470
 6207W        W22101  15.026   8.303   1.978  0.1337  0.2192 -0.1614
 6208W        W22102  10.409   8.622  13.779  0.1902  0.0844  0.1961
 6209W        W22103   5.874  17.562   1.482 -0.1297  0.1290 -0.0760
 6210W        W22104   2.324   9.563   2.119 -0.0179 -0.0135 -0.0054
 6211W        W22105  10.882  11.370  13.868  0.3058 -0.3520 -0.1739
 6212W        W22106   1.606   8.946   0.322 -0.1483  0.1250  0.0027
 6213W        W22107   2.143   3.310  11.909 -0.0844  0.1204  0.1878
 6214W        W22108   2.247   3.356  15.282 -0.2468 -0.3245 -0.0244
 6215W        W22109  14.008  13.731   1.888 -0.2162  0.0704 -0.1817
 6216W        W22110   6.651   9.434   2.499  0.5813 -0.4528  0.3250
 6217W        W22111   0.322   7.713  15.830 -0.3321  0.0138  0.1699
 6218W        W22112  14.560  11.774  15.219  0.2929 -0.0464 -0.1283
 6219W        W22113  13.698   0.339  15.896  0.3508  0.1495  0.1324
 6220W        W22114   4.949   6.081   1.430  0.1060 -0.1956 -0.1007
 6221W        W22115  17.469   9.471  16.367 -0.1663 -0.0109 -0.3131
 6222W        W22116  15.353  18.118  15.628 -0.2210 -0.3665 -0.0948
 6223W        W22117   5.482   7.705   2.130  0.1750  0.1047 -0.0413
 6224W        W22118   7.708  13.908  12.336 -0.2969 -0.0024 -0.0444
 6225W        W22119  16.143   1.752   0.490  0.3438 -0.0508 -0.1044
 6226W        W22120   1.575  11.779   1.768  0.0921  0.1415  0.1593
 6227W        W22121   9.020   4.923   3.168  0.1214  0.2588 -0.0647
 6228W        W22122   4.769   6.105  10.900 -0.1666 -0.0188  0.1150
 6229W        W22123  17.340   8.210  12.194  0.0766  0.0427 -0.4326
 6230W        W22124   6.100  12.955   1.123 -0.0173  0.1855  0.2567
 6231W        W22125   5.635  14.691   2.594 -0.4098 -0.1104 -0.2064
 6232W        W22126  15.946   6.114   3.955  0.2823 -0.2769 -0.0892
 6233W        W22127   6.929   6.529  11.469  0.4099 -0.1027 -0.1640
 6234W        W22128   3.982   5.241   3.815  0.1258 -0.0297 -0.0574
 6235W        W22129   7.803   1.283   1.247  0.1888 -0.3025  0.2759
 6236W        W22130  10.425   3.167  15.387  0.0087 -0.1712 -0.0804
 6237W        W22131   3.272  16.413  15.756 -0.0050  0.3276  0.2738
 6238W        W22132   4.149   7.927  15.069  0.0215 -0.0250 -0.0819
 6239W        W22133  18.098  10.436   4.763  0.0426  0.1041 -0.1148
 6240W        W22134   7.684   5.305   4.332  0.1560  0.4483  0.0128
 6241W        W22135   0.071  12.615   4.877  0.0445 -0.2894 -0.1330
 6242W        W22136   8.291   5.250  11.704  0.1371 -0.1511 -0.3907
 6243W        W22137   9.764  15.974  13.587 -0.1014 -0.0088 -0.2391
 6244W        W22138  17.624   6.821   5.468  0.2741  0.3694 -0.0144
 6245W        W22139  13.330  16.834  12.188  0.3775  0.1300  0.0889
 6246W        W22140  14.289   6.146   2.859  0.0254  0.1328 -0.1261
 6247W        W22141   2.537   2.346  15.903 -0.3468 -0.0773 -0.0501
 6248W        W22142  11.172   3.011  16.149 -0.0860  0.0418  0.2400
 6249W        W22143   3.044  12.405   5.142  0.0869 -0.1310 -0.1282
 6250W        W22144  10.931  13.581   0.177 -0.1249  0.1574  0.1105
 6251W        W22145   1.226   1.703  16.279 -0.1548 -0.0045 -0.0628
 6252W        W22146   0.436  11.154   1.023 -0.0958 -0.0904  0.2112
 6253W        W22147   9.841  12.240   1.870 -0.2471 -0.0477 -0.0859
 6254W        W22148   3.530   5.111  12.645 -0.2135  0.0302 -0.1007
 6255W        W22149  11.916   6.895   3.003  0.0242  0.0711  0.0182
 6256W        W22150  15.069  16.495   0.484 -0.1372 -0.1409 -0.0991
 6257W        W22151  17.048  18.071   5.329 -0.0719  0.1921 -0.4809
 6258W        W22152  13.015  16.726   4.083  0.1785 -0.2873 -0.1544
 6259W        W22153   3.680  13.933   4.171 -0.0386 -0.0024 -0.2472
 6260W        W22154   5.607  17.736   6.104  0.3231  0.2767 -0.3069
 6261W        W22155   7.208   1.236   4.369 -0.1333 -0.2362  0.0180
 6262W        W22156   9.193   0.814   1.892  0.1108  0.1237 -0.0077
 6263W        W22157   0.485   6.015  15.339 -0.1844 -0.2347 -0.1136
 6264W        W22158   0.784   0.978  15.355  0.0225 -0.1681 -0.0691
 6265W        W22159  14.436  13.168  13.907 -0.0843  0.1394 -0.0930
 6266W        W22160   4.129   1.423   3.468 -0.0191 -0.0516  0.2548
 6267W        W22161  14.228  17.208   2.827  0.1746 -0.0907 -0.0727
 6268W        W22162   3.261  13.577   1.605  0.3927  0.0575 -0.1175
 6269W        W22163   1.035   0.399  11.562  0.2553  0.0855  0.0376
 6270W        W22164  14.126  15.934   2.289  0.0896 -0.0390 -0.0678
 6271W        W22165  10.822   8.571  15.633 -0.3010 -0.1397  0.0882
 6272W        W22166  14.740  17.369  11.438  0.2096  0.2558 -0.2530
 6273W        W22167  18.084  13.232   4.476  0.0368  0.1494  0.0073
 6274W        W22168  10.199   7.253  14.819  0.0198  0.4740  0.2047
 6275W        W22169   4.865   1.384   4.813 -0.0708  0.0449 -0.1706
 6276W        W22170   3.592  12.668  11.493 -0.0239 -0.1337 -0.1707
 6277W        W22171  10.778  17.129  12.088 -0.1049  0.2854  0.1045
 6278W        W22172   8.110   4.990  11.104 -0.3916 -0.0887  0.2488
 6279W        W22173   2.703  13.186   2.259  0.1838 -0.0629 -0.0642
 6280W        W22174  16.372   6.889  12.092 -0.0385 -0.3707 -0.1596
 6281W        W22175   5.811   4.092   0.960  0.1095  0.0069 -0.0829
 6282W        W22176   1.084   5.577   0.992  0.2963  0.1398  0.2330
 6283W        W22177   6.857  16.367   4.844 -0.2942 -0.1792  0.1855
 6284W        W22178   4.143   6.821  12.419 -0.0576  0.0654 -0.2153
 6285W        W22179  14.322   6.411  11.237  0.0664 -0.0566 -0.0765
 6286W        W22180   7.640   5.555  14.911  0.0494  0.1968 -0.1064
 6287W        W22181  12.303   6.432   1.738 -0.1438 -0.1573  0.0174
 6288W        W22182   9.450  13.195  12.133 -0.2650  0.1628 -0.0113
 6289W        W22183   1.971   4.402   4.013  0.1958  0.1352  0.0413
 6290W        W22184   4.344  15.981   0.371 -0.0283 -0.1933  0.3814
 6291W        W22185  10.819  14.485  13.270  0.3887 -0.1949 -0.0131
 6292W        W22186   5.607  14.685   0.256  0.1946 -0.0121  0.1759
 6293W        W22187  13.819  17.465  13.550  0.0273  0.0590 -0.1781
 6294W        W22188   3.970  16.000  13.322  0.0950 -0.0219  0.0564
 6295W        W22189   7.971   3.607   5.686  0.0699 -0.5710 -0.1542
 6296W        W22190  11.604   8.519  15.806 -0.0420  0.0619  0.0266
 6297W        W22191  15.380  12.641   4.474  0.0228 -0.0174  0.1335
 6298W        W22192  15.811   0.480  12.787 -0.1639  0.0474  0.1797
 6299W        W22193  11.355  11.387  15.956  0.1843  0.0730  0.0116
 6300W        W22194  12.670  18.058   2.191 -0.0251 -0.0993  0.0853
 6301W        W22195  10.166   8.669  14.197 -0.1042 -0.0881  0.0055
 6302W        W22196  11.621  14.540   0.436 -0.0762 -0.3776 -0.3909
 6303W        W22197  16.453  15.101   1.795 -0.2198 -0.0818  0.0703
 6304W        W22198   9.427  13.968  16.190  0.1649  0.1504 -0.2403
 6305W        W22199  14.440   8.160   3.376  0.2192  0.2078 -0.1720
 6306W        W22200   2.296   1.231   3.544 -0.0893 -0.3420  0.5302
 6307W        W22201   3.457   2.336  14.515  0.1119  0.0524 -0.0444
 6308W        W22202  14.298  13.995  16.279 -0.0091  0.1145  0.2086
 6309W        W22203   8.126  12.078  15.135 -0.3698 -0.2966 -0.0689
 6310W        W22204  16.356   5.427   4.423  0.0301  0.0159 -0.1264
 6311W        W22205   1.049   0.304  14.184 -0.2444 -0.1558 -0.2251
 6312W        W22206   6.164   3.806   3.113 -0.1134 -0.0547  0.5105
 6313W        W22207  10.588  16.595  13.411 -0.2692 -0.2115 -0.0133
 6314W        W22208   6.786   9.959   2.572  0.0699  0.0289  0.1684
 6315W        W22209   0.099  10.424   3.327  0.0948 -0.0617 -0.0552
 6316W        W22210   8.968  11.165  14.754  0.2289  0.1399  0.2395
 6317W        W22211  17.970   5.067   3.726  0.0223  0.1156  0.0376
 6318W        W22212   9.722   1.611  14.559 -0.1922 -0.0265  0.1349
 6319W        W22213   0.058  16.559   2.720 -0.1820  0.4475  0.0151
 6320W        W22214   9.807   1.495   1.421 -0.5179  0.0190  0.0815
 6321W        W22215  14.477   5.342  15.630  0.1606  0.0800  0.0815
 6322W        W22216   8.205   2.106  12.455  0.2196 -0.0986  0.0129
 6323W        W22217   9.409  16.366   2.907 -0.0926 -0.1719 -0.1274
 6324W        W22218   8.457  12.402   3.511 -0.2138  0.1625 -0.2453
 6325W        W22219   9.509   3.154   2.364  0.0603 -0.1649 -0.1001
 6326W        W22220  14.925   1.292   3.257 -0.0480  0.0589 -0.0327
 6327W        W22221  13.503   0.521  13.803  0.0199 -0.0216  0.1642
 6328W        W22222   3.018   5.538   4.009 -0.3747  0.0736  0.3324
 6329W        W22223   3.515   9.711  14.699  0.1639  0.2793  0.1144
 6330W        W22224   8.307  12.376   4.553 -0.2609  0.1043 -0.0477
 6331W        W22225   0.794   9.615  13.790 -0.0042  0.2539 -0.1426
 6332W        W22226   8.920  15.272   0.488  0.0569 -0.0732  0.2445
 6333W        W22227   2.554  16.992  16.143 -0.1496 -0.0136  0.0515
 6334W        W22228   8.227   7.731   4.343 -0.1221  0.1126  0.2731
 6335W        W22229  11.401   0.109  15.478  0.1597  0.3597 -0.2235
 6336W        W22230  16.502  16.753   3.060 -0.2351 -0.2375  0.0656
 6337W        W22231   0.163   9.568   4.777 -0.1389 -0.3631  0.1476
 6338W        W22232   7.754  18.206  12.444  0.3490  0.0080  0.1644
 6339W        W22233   2.032  16.713   4.109 -0.2001  0.0429 -0.0481
 6340W        W22234   9.297   9.517  13.114 -0.0651 -0.0894  0.0983
 6341W        W22235  16.473   7.784   1.330 -0.0489  0.2855  0.1128
 6342W        W22236   3.340   2.117   3.228  0.2442  0.2036  0.1240
 6343W        W22237   9.961   2.984   3.135 -0.0143  0.2830 -0.1918
 6344W        W22238   3.599   5.130  13.468 -0.0921  0.1575  0.2487
 6345W        W22239   8.232   0.790  10.797  0.1837  0.1572  0.2782
 6346W        W22240   0.971   9.393   1.130  0.1586 -0.0504 -0.0740
 6347W        W22241  17.228  11.793   5.762  0.2941  0.0007  0.2486
 6348W        W22242  13.013  14.626  11.556 -0.0060 -0.0903 -0.0369
 6349W        W22243   6.861   2.046  15.225  0.0394  0.1346 -0.2580
 6350W        W22244   0.251   0.178  15.992 -0.0267  0.1086  0.3117
 6351W        W22245  17.069   1.053   2.145 -0.1582  0.2209 -0.1774
 6352W        W22246   3.599  12.373   4.484  0.1351  0.0279  0.5910
 6353W        W22247   4.956  11.091  16.161  0.1805  0.1268  0.0107
 6354W        W22248  15.025  14.048  14.406  0.2600 -0.0477  0.1212
 6355W        W22249   5.568   7.628   0.808  0.1154 -0.0452 -0.0149
 6356W        W22250  14.980   1.416   1.998  0.0420  0.1220  0.0840
 6357W        W22251  17.531  10.258   5.717 -0.0859 -0.0484 -0.2366
 6358W        W22252   3.047   9.574  15.435 -0.0978  0.1348  0.1071
 6359W        W22253   8.784  16.857  13.766 -0.0428 -0.3235 -0.1669
 6360W        W22254  17.942   8.427   1.996  0.0781 -0.0750  0.0136
 6361W        W22255   0.386  15.845   0.095  0.3345  0.0644 -0.1038
 6362W        W22256   8.907  10.959   5.436 -0.1256 -0.0228  0.2369
 6363W        W22257   1.034   6.091  10.394  0.1103  0.4080 -0.1857
 6364W        W22258  12.011   5.563   4.788  0.2185 -0.0646  0.4108
 6365W        W22259   2.840   8.031   5.542 -0.1685  0.3591 -0.1049
 6366W        W22260  18.110   2.472  14.834  0.2664  0.1844 -0.3016
 6367W        W22261  16.796   4.793  16.373  0.1842 -0.1828  0.0145
 6368W        W22262   2.707   9.941   0.664  0.1151  0.1118 -0.2006
 6369W        W22263   0.771  17.849  13.878  0.1962  0.4247  0.3600
 6370W        W22264  14.418   7.215   2.712 -0.0936  0.1612 -0.0774
 6371W        W22265  14.375   2.541  11.521 -0.0141  0.1069  0.0186
 6372W        W22266   5.079   0.817  14.629 -0.0280  0.2130  0.1640
 6373W        W22267  18.186   5.465  16.183  0.0617 -0.1739  0.6047
 6374W        W22268  17.307  14.425  13.759  0.3423  0.3181  0.0592
 6375W        W22269  11.542  10.779  11.343  0.0548 -0.0813 -0.2182
 6376W        W22270   5.370   7.393   0.317 -0.0025  0.1300 -0.0642
 6377W        W22271   3.687   7.610   2.077  0.3457 -0.0602 -0.3932
 6378W        W22272   0.167  17.367   0.152  0.1283 -0.1802  0.1808
 6379W        W22273  14.173  14.140   3.613 -0.4880  0.1078  0.0766
 6380W        W22274  13.649  15.122  16.266 -0.0448 -0.4350  0.0263
 6381W        W22275   0.301  16.220   4.017  0.1488  0.1758 -0.3738
 6382W        W22276   1.898  13.761  15.215 -0.1711  0.2061 -0.3167
 6383W        W22277  10.904   2.644   0.039 -0.3232 -0.2721 -0.8601
 6384W        W22278   8.357  13.783  13.106 -0.4116 -0.0058 -0.0248
 6385W        W22279  17.071   9.588  13.921  0.0882  0.1269  0.0185
 6386W        W22280  11.993   2.036  16.307 -0.1045  0.1044  0.0619
 6387W        W22281   4.443  15.004  12.866 -0.0311 -0.1883 -0.1035
 6388W        W22282   1.512   8.972  15.358  0.0154  0.2891 -0.2707
 6389W        W22283   8.626  14.786   4.235  0.0554  0.1744 -0.1303
 6390W        W22284   0.961   5.433  15.842  0.0092  0.1515  0.0527
 6391W        W22285   0.468  10.798  12.780 -0.2124 -0.0155  0.0017
 6392W        W22286  10.149  11.329  16.065 -0.2784 -0.3772  0.0363
 6393W        W22287  15.157  17.426   3.131 -0.0650 -0.1916 -0.1706
 6394W        W22288  14.477   4.049  12.173  0.1602 -0.1440 -0.1894
 6395W        W22289  15.628   1.718  11.908  0.0589  0.1975 -0.0210
 6396W        W22290   6.845   0.937   1.712 -0.3715  0.0832  0.1902
 6397W        W22291   1.430  15.875   5.586  0.3796  0.1429  0.1375
 6398W        W22292   5.449   6.179   2.257 -0.0787  0.1495 -0.1874
 6399W        W22293  13.423  18.178   0.855  0.1982 -0.0902  0.0409
 6400W        W22294  12.168   2.522  12.454  0.1207 -0.0391 -0.4666
 6401W        W22295   2.201   1.892   1.071  0.1151 -0.0364  0.1244
 6402W        W22296  18.086   8.985  12.766 -0.2292  0.1078 -0.1909
 6403W        W22297  17.067   1.994  11.849  0.0690 -0.0232  0.0013
 6404W        W22298   9.139  12.061  12.574 -0.0435 -0.3259  0.3475
 6405W        W22299  16.443   2.260  15.509 -0.1867 -0.2996 -0.0575
 6406W        W22300  11.866  10.073   0.276 -0.2332 -0.0853 -0.1405
 6407W        W22301   4.831  16.122   4.120  0.2827 -0.4350 -0.0874
 6408W        W22302  12.579   4.951  14.504  0.4379 -0.0787 -0.0455
 6409W        W22303   9.356   2.118  12.048  0.0490 -0.2997 -0.0897
 6410W        W22304  17.655  10.249   5.051  0.0236  0.4055 -0.1352
 6411W        W22305  11.290   4.085  13.900  0.1397 -0.2388 -0.0286
 6412W        W22306   7.685   6.627  14.548 -0.1546 -0.2182 -0.0053
 6413W        W22307   7.616   1.679  11.879 -0.0204 -0.1958  0.0281
 6414W        W22308   8.147   0.441  16.358 -0.1246 -0.0860 -0.1459
 6415W        W22309   9.883  16.854  11.566 -0.0168  0.0004  0.0604
 6416W        W22310   2.572   8.043  14.931 -0.1300 -0.0560 -0.3229
 6417W        W22311   9.466   3.367  12.819  0.0214 -0.0104 -0.2552
 6418W        W22312  13.486   6.349   4.062 -0.2727  0.1362 -0.0547
 6419W        W22313   9.067   7.650  13.281  0.0254  0.1894 -0.1018
 6420W        W22314  15.351  13.027   5.096 -0.1148 -0.2238  0.0544
 6421W        W22315   4.711   3.843   4.926  0.2745 -0.6404  0.0157
 6422W        W22316  14.285  12.099   1.371  0.2112  0.0102 -0.1870
 6423W        W22317   9.718   5.356   1.272 -0.2014 -0.1124 -0.3885
 6424W        W22318  16.028   3.840   2.559 -0.1371 -0.3602  0.0478
 6425W        W22319   2.786   4.515  14.910  0.2227 -0.1423  0.1120
 6426W        W22320  12.476   2.997   5.014  0.1237  0.0210 -0.1245
 6427W        W22321   6.695  16.455  12.616  0.0460 -0.2364  0.2474
 6428W        W22322  13.803   2.169   1.227 -0.2368  0.1101 -0.0173
 6429W        W22323  18.140   0.044  12.610  0.1161  0.0496  0.5395
 6430W        W22324  17.126   6.047   1.553  0.0793 -0.5101  0.0065
 6431W        W22325  14.970   0.503  15.361  0.1349 -0.1606  0.0604
 6432W        W22326  11.447  18.186  14.948 -0.4262  0.1975 -0.0225
 6433W        W22327   4.267   9.659   1.409 -0.0975 -0.2262  0.2934
 6434W        W22328  17.699   3.348  14.330  0.1733 -0.0365  0.0925
 6435W        W22329  12.765  16.023  16.230  0.1622  0.1809 -0.4027
 6436W        W22330  10.572   8.291  14.176  0.0130  0.1030  0.0284
 6437W        W22331   5.525  14.487  13.123 -0.0606  0.1052 -0.1319
 6438W        W22332   0.646   4.199   0.404  0.0104 -0.0056 -0.0133
 6439W        W22333   6.063   8.953  12.510 -0.1775  0.0482 -0.2999
 6440W        W22334  13.660  11.272   1.118 -0.2868  0.1860  0.1065
 6441W        W22335  13.740  11.142   0.190  0.0484 -0.0227 -0.2280
 6442W        W22336   7.370   6.846   5.612 -0.1305 -0.0802 -0.1824
 6443W        W22337   2.804   8.057  11.675 -0.0169 -0.1299  0.1413
 6444W        W22338   4.692  14.560  15.593 -0.2789  0.0082 -0.0486
 6445W        W22339  13.171   3.333  16.189 -0.0684 -0.3222 -0.1989
 6446W        W22340   5.593   1.208   3.226  0.3769  0.1805  0.0396
 6447W        W22341  17.986  12.490  15.980  0.0099  0.0495  0.1039
 6448W        W22342   1.531   0.013   4.593 -0.1854 -0.2389 -0.0703
 6449W        W22343   4.036   6.838  15.909  0.1813 -0.0761  0.0348
 6450W        W22344   8.561   6.908  13.073  0.2232 -0.2673  0.0929
 6451W        W22345   8.796  11.035  12.840 -0.0314 -0.2007  0.1112
 6452W        W22346   5.914   9.365   2.807  0.0820  0.1131 -0.2801
 6453W        W22347   5.097  16.295   2.418 -0.0003 -0.4494 -0.2349
 6454W        W22348   6.635   7.209  13.948  0.0379 -0.0606 -0.1414
 6455W        W22349   9.692  16.613   1.970 -0.2240  0.1112  0.1396
 6456W        W22350  17.103   8.417  16.097  0.1846  0.1541 -0.3829
 6457W        W22351   6.468  14.907  16.437  0.2842  0.0133  0.5392
 6458W        W22352  11.011   0.471   4.443  0.1732 -0.1184 -0.0470
 6459W        W22353   6.301  12.675  11.979 -0.1751  0.4100 -0.0780
 6460W        W22354  17.259   3.597  14.153  0.2320 -0.0314 -0.2305
 6461W        W22355   4.887   3.051  15.112  0.1224 -0.0420  0.0572
 6462W        W22356   6.553  12.723  14.897  0.1456 -0.3028  0.2487
 6463W        W22357   7.743   0.776  12.873  0.1563  0.2997 -0.0644
 6464W        W22358  14.243  18.157  14.830  0.0020  0.0746  0.3113
 6465W        W22359  11.096   6.096  12.704 -0.3193  0.2185 -0.5107
 6466W        W22360   3.554   0.679  11.662  0.0148 -0.2791 -0.0001
 6467W        W22361   0.302  10.533  15.151 -0.1872 -0.0562  0.2278
 6468W        W22362   2.329   6.140  15.615 -0.0619 -0.2027  0.1643
 6469W        W22363  12.193   9.018  15.748 -0.2888  0.3341  0.2848
 6470W        W22364  10.597  11.739   5.354  0.2216 -0.3832 -0.1290
 6471W        W22365  12.650   8.578   0.736  0.3178  0.4139 -0.0995
 6472W        W22366  12.693  10.246  13.552  0.0066  0.2188 -0.0386
 6473W        W22367   9.366   6.027   3.300 -0.1383  0.4043 -0.0656
 6474W        W22368  13.929  15.643   4.801  0.2589  0.0218 -0.1085
 6475W        W22369   7.541  11.493  15.646  0.0227 -0.1404  0.2510
 6476W        W22370   5.283  14.189   1.355  0.0363 -0.0153  0.0644
 6477W        W22371   4.287   5.861  15.066 -0.0682  0.1216 -0.0356
 6478W        W22372   3.205   4.299   0.662 -0.0474 -0.0594 -0.1047
 6479W        W22373  18.154   1.575   2.281  0.2135  0.0455  0.0035
 6480W        W22374  11.804  18.054   4.331  0.0508  0.3388  0.2206
 6481W        W22375  17.892   6.678   5.020 -0.2692  0.2045  0.3107
 6482W        W22376   5.206   2.111  15.203 -0.0026  0.1298  0.3886
 6483W        W22377   6.749   7.046  15.001 -0.0856  0.1165 -0.3149
 6484W        W22378   3.296  13.051  13.354 -0.0351 -0.1275  0.2070
 6485W        W22379  12.410   7.413   9.793 -0.0574 -0.0775  0.0353
 6486W        W22380   4.583   4.482   3.533  0.1862 -0.0884  0.2166
 6487W        W22381  16.659  10.787  13.889 -0.2744  0.1759 -0.1553
 6488W        W22382   1.742  18.136  11.070  0.0879  0.3003  0.1023
 6489W        W22383   3.087   3.167   0.431  0.1807  0.2001 -0.1328
 6490W        W22384  11.634   3.709  15.081 -0.1207  0.0514 -0.0996
 6491W        W22385  13.530  15.826   1.537 -0.1759 -0.0060  0.0897
 6492W        W22386  10.290   2.371  14.947 -0.0332 -0.3141 -0.0298
 6493W        W22387   0.179   5.054  15.972  0.0919 -0.0120 -0.1068
 6494W        W22388   7.033  12.247  12.229 -0.2842  0.1126 -0.1971
 6495W        W22389   1.468   9.629  16.424 -0.0768 -0.1540 -0.1150
 6496W        W22390  11.203   5.113   5.154 -0.0257 -0.4639  0.0543
 6497W        W22391   3.579  16.225   5.980 -0.0315  0.0626  0.2658
 6498W        W22392  17.079   5.186  12.269  0.0078  0.0545 -0.2778
 6499W        W22393  16.585  11.378   0.162  0.3166 -0.0194 -0.0265
 6500W        W22394   9.725  12.998  13.738 -0.1486 -0.0069  0.0125
 6501W        W22395   1.894   4.970  15.646  0.0377 -0.0302 -0.0391
 6502W        W22396   5.080   5.028   4.752  0.0528  0.3375  0.0112
 6503W        W22397  17.573   4.584  14.997  0.1106  0.4328  0.2159
 6504W        W22398   1.268   1.383   0.267 -0.2108 -0.0500  0.0099
 6505W        W22399  15.245   4.221   0.167  0.0701  0.1334 -0.0953
 6506W        W22400  16.152   4.253   3.526 -0.0103 -0.0421  0.0871
 6507W        W22401  11.956   0.580   5.741 -0.4659 -0.0674 -0.0037
 6508W        W22402  14.185  14.352  15.489  0.2266  0.0828 -0.0649
 6509W        W22403   6.404  11.737  14.316 -0.2193  0.0930 -0.2156
 6510W        W22404   8.753  13.812  11.587  0.1071  0.2340  0.0337
 6511W        W22405   5.714   3.742  13.499  0.2335 -0.0414  0.1130
 6512W        W22406  12.617  16.454  14.858 -0.0457 -0.1389 -0.2310
 6513W        W22407   7.855   9.975  12.927 -0.0303  0.0549 -0.0301
 6514W        W22408  13.291   3.808   3.028  0.3456 -0.0905 -0.0040
 6515W        W22409  17.975  13.946   5.145  0.1973  0.2707 -0.2097
 6516W        W22410  10.304   3.864   3.033  0.0263 -0.0966  0.1594
 6517W        W22411   4.572  12.448   0.886  0.1225  0.0518  0.2306
 6518W        W22412  11.597   0.565  14.052 -0.0247  0.0976 -0.0515
 6519W        W22413  11.155   7.718   0.145 -0.0995  0.2894 -0.1104
 6520W        W22414  13.790  15.936  10.829  0.0412 -0.0100  0.1722
 6521W        W22415   2.187   2.787  14.537 -0.0041  0.2091 -0.0464
 6522W        W22416   3.562  13.519  15.244 -0.4523  0.0809 -0.1021
 6523W        W22417  16.635   7.090   2.942  0.0153  0.1847  0.1143
 6524W        W22418   1.885   4.296  12.240  0.0764  0.1801  0.0521
 6525W        W22419  17.234   6.918   3.150 -0.2586 -0.2090  0.1479
 6526W        W22420  12.724   3.673   3.760 -0.0259 -0.3562 -0.0355
 6527W        W22421  10.511   4.370  15.552  0.0215  0.1975 -0.2240
 6528W        W22422  16.301  12.358  16.414  0.4727 -0.0332 -0.3072
 6529W        W22423   9.143  15.958   3.005 -0.0222  0.1318 -0.3351
 6530W        W22424  10.909  14.759  11.475 -0.0098  0.2794  0.2522
 6531W        W22425   6.356  17.138  14.260  0.1654  0.0955 -0.0549
 6532W        W22426   0.489  15.771  13.381  0.0200  0.0560  0.1071
 6533W        W22427   6.072  12.129   2.579 -0.4153 -0.0817 -0.1559
 6534W        W22428  11.577   5.627  15.243  0.2563 -0.0718  0.0881
 6535W        W22429  12.971  13.751   6.095 -0.3728 -0.0780  0.0703
 6536W        W22430  13.500  12.693  15.605  0.0371  0.1141 -0.0733
 6537W        W22431  15.020   8.803   1.814  0.1104  0.1817 -0.2033
 6538W        W22432   0.336  16.637  14.652  0.0081  0.1667  0.2114
 6539W        W22433   2.118   8.455   0.797 -0.3106  0.0221 -0.2804
 6540W        W22434   6.856   1.865  16.440 -0.0099 -0.1982 -0.2966
 6541W        W22435   9.880   3.101  15.768  0.0973  0.2838  0.1018
 6542W        W22436   2.218   3.084  12.748  0.0589 -0.0397  0.0105
 6543W        W22437  13.084   8.854   3.177 -0.0339  0.3605  0.0340
 6544W        W22438  16.085   4.990  13.445 -0.0283  0.0218  0.1367
 6545W        W22439   5.094   8.336  16.455 -0.0525 -0.0897 -0.0945
 6546W        W22440   8.481  16.334  15.146  0.0887 -0.0777 -0.0565
 6547W        W22441   3.895   5.598  14.249  0.1295 -0.3345  0.0434
 6548W        W22442  16.464   9.995   2.617  0.3414  0.1861  0.1429
 6549W        W22443   6.825  17.335   4.485  0.1340 -0.1754 -0.0854
 6550W        W22444   1.080  15.441  12.754 -0.0260  0.1867 -0.5177
 6551W        W22445  18.226  12.863   3.071 -0.0359 -0.2827 -0.0727
 6552W        W22446  16.565  12.784  15.506 -0.1594  0.1499 -0.0634
 6553W        W22447   1.221  14.307   3.598  0.0073 -0.0498  0.0961
 6554W        W22448  11.174   2.440  16.049  0.1778  0.0277 -0.1299
 6555W        W22449   5.259   0.056  11.918 -0.0733 -0.0019  0.1117
 6556W        W22450  14.428   2.013   5.474  0.3859  0.1450  0.0406
 6557W        W22451   6.890  12.530  13.188 -0.2497  0.0352  0.2560
 6558W        W22452  12.115  14.015  13.135  0.1943  0.0363  0.0863
 6559W        W22453  16.442   1.754  12.982 -0.1636 -0.0631 -0.2366
 6560W        W22454   5.502   3.402  10.817  0.0661  0.0438  0.0340
 6561W        W22455   3.302   1.925  15.038 -0.1771 -0.0322 -0.1812
 6562W        W22456  11.341   6.332   4.708 -0.2640 -0.0839 -0.0156
 6563W        W22457  11.045   4.634  11.590 -0.1125 -0.2731 -0.2132
 6564W        W22458   9.268  13.733   4.019 -0.0210 -0.0872 -0.3285
 6565W        W22459  14.379   4.760  14.075  0.1212 -0.4592 -0.1046
 6566W        W22460   7.135   7.602   3.424  0.1857  0.0028  0.0855
 6567W        W22461   8.546   4.979  15.224  0.2618 -0.0470  0.5945
 6568W        W22462  11.056  13.841   2.857  0.2476 -0.2024 -0.2134
 6569W        W22463   1.112   4.173  14.128 -0.1528 -0.0658 -0.2942
 6570W        W22464  15.705   5.249  12.174  0.0791  0.4184  0.0619
 6571W        W22465   9.928   3.746  11.829 -0.3225 -0.0386  0.1067
 6572W        W22466   1.965  12.982   4.118 -0.1428 -0.1186 -0.0796
 6573W        W22467  14.774   9.079   6.361  0.0172 -0.0260 -0.1430
 6574W        W22468   3.384   4.708   2.526  0.2702  0.0202 -0.2759
 6575W        W22469  11.344  15.994   0.893 -0.0096  0.0828  0.1718
 6576W        W22470  16.091  14.542   0.407 -0.1842  0.0007  0.1395
 6577W        W22471   4.264   3.492  13.518  0.1775  0.3491  0.1819
 6578W        W22472  14.924   0.150   5.134  0.2425 -0.0200  0.0375
 6579W        W22473   4.523  17.976  12.764 -0.1573  0.1019 -0.0182
 6580W        W22474   5.184  16.297   0.565 -0.3370  0.0731 -0.1732
 6581W        W22475  12.896   1.255   5.449  0.2041 -0.1023 -0.0050
 6582W        W22476  14.788  15.614  13.305 -0.0948  0.2322 -0.3914
 6583W        W22477  11.740   8.899   2.473 -0.1356  0.2033  0.3107
 6584W        W22478  12.039   9.298  16.146 -0.0845 -0.0139 -0.2763
 6585W        W22479  16.340   4.597  13.269 -0.0923 -0.1202  0.3294
 6586W        W22480   8.505   9.651  14.282 -0.3820  0.2137  0.1792
 6587W        W22481   1.546  17.530   4.034 -0.2566 -0.0052 -0.1053
 6588W        W22482   6.764   0.211  14.171  0.0047  0.2084  0.0397
 6589W        W22483  14.453  14.775  13.834 -0.0474 -0.2345 -0.1471
 6590W        W22484   6.281   7.780  12.466 -0.0505 -0.1468  0.0161
 6591W        W22485  11.787  11.154  15.923  0.1019  0.3834 -0.0290
 6592W        W22486  10.309  15.525   4.517 -0.0201  0.1689  0.0511
 6593W        W22487  10.057   4.796  16.132 -0.1422 -0.0197 -0.3200
 6594W        W22488  15.593   4.586   1.023  0.0735  0.0513  0.3042
 6595W        W22489   7.116   3.712  13.386  0.0514  0.0231 -0.0455
 6596W        W22490   8.702   5.511   3.683 -0.2940 -0.1966 -0.0066
 6597W        W22491   1.436  16.222  12.451 -0.2043 -0.2729  0.0534
 6598W        W22492  14.874   4.052  15.020 -0.2597  0.3977 -0.1301
 6599W        W22493   1.243  11.525  13.692  0.0820 -0.1709 -0.0937
 6600W        W22494  15.198   8.758   2.300 -0.3178  0.0813  0.1253
 6601W        W22495   2.773   6.909  12.756 -0.0256  0.0963 -0.2287
 6602W        W22496  13.750  10.790   5.434 -0.1216 -0.0500 -0.0619
 6603W        W22497  10.722   4.857   1.730  0.2331 -0.1502  0.3189
 6604W        W22498  16.674  13.703  11.845  0.2492 -0.1705  0.0128
 6605W        W22499  11.606  11.562  15.506 -0.0629  0.0037  0.1009
 6606W        W22500   1.208   9.065   0.621 -0.1797 -0.1836 -0.5178
 6607W        W22501  10.009   6.787   1.148 -0.2184 -0.3277  0.0036
 6608W        W22502   3.382   4.114   3.288  0.0018 -0.2138  0.1239
 6609W        W22503   2.503   4.337   3.952 -0.0912 -0.2337 -0.2802
 6610W        W22504  13.489  10.016  15.887  0.0095  0.0225 -0.0675
 6611W        W22505   6.891   2.776  14.942 -0.1676 -0.0524 -0.1055
 6612W        W22506   7.968   4.819  12.602 -0.1242 -0.1017  0.1840
 6613W        W22507  14.684   5.330   2.764 -0.1830  0.3570  0.1072
 6614W        W22508   9.143  15.946  14.102 -0.0856  0.5022  0.1466
 6615W        W22509   7.720   6.204  14.840  0.0489  0.0092  0.1836
 6616W        W22510  10.613   5.542   3.653  0.0912 -0.0580  0.3288
 6617W        W22511   7.762   9.400  15.579 -0.0190 -0.2965 -0.1141
 6618W        W22512   2.374   6.781  15.228 -0.0835 -0.0859 -0.0797
 6619W        W22513  13.804  15.533   2.118 -0.2167 -0.0123  0.1287
 6620W        W22514   6.120   1.573   4.447 -0.0701 -0.0251 -0.1206
 6621W        W22515   3.191   7.938   5.163 -0.0665 -0.0168  0.3090
 6622W        W22516   4.579   0.780   5.492  0.1044  0.1377  0.3886
 6623W        W22517   8.008   0.677   0.432 -0.1919 -0.1918  0.2302
 6624W        W22518   1.916  12.074   1.874 -0.3396 -0.4331 -0.3281
 6625W        W22519   1.514   7.233  13.329 -0.0393  0.1721 -0.0784
 6626W        W22520   6.884  13.607   0.494  0.2709 -0.0437 -0.1618
 6627W        W22521   8.578  14.137  13.453  0.2781 -0.2433  0.0240
 6628W        W22522  11.814  10.950  12.972 -0.1156 -0.1145  0.0945
 6629W        W22523   9.852   9.929   5.077 -0.1660 -0.3225  0.0169
 6630W        W22524   4.106   6.166  10.073 -0.0869  0.2213  0.1515
 6631W        W22525   8.730  13.199  13.815 -0.2347  0.2482 -0.2030
 6632W        W22526  17.603   1.199  15.162 -0.2433 -0.4176  0.1067
 6633W        W22527  17.751   8.970   3.475  0.0385  0.1141 -0.1996
 6634W        W22528  14.789  15.724   2.486  0.4029 -0.2048  0.0188
 6635W        W22529  16.175  12.105  14.722  0.2099 -0.3038 -0.1599
 6636W        W22530  16.930   9.781  14.757  0.0107  0.0694  0.1495
 6637W        W22531   2.054   5.301  12.642  0.3039 -0.1018  0.3470
 6638W        W22532   6.277   4.300   1.119 -0.3256  0.2456  0.0656
 6639W        W22533   2.361  16.526   3.272 -0.0032 -0.0418 -0.0144
 6640W        W22534   1.525   7.093   0.506  0.0317 -0.0813  0.0426
 6641W        W22535  13.878   8.629  15.737  0.1274 -0.2071  0.2400
 6642W        W22536  16.380   3.810  16.310 -0.0482  0.0687 -0.0709
 6643W        W22537   2.265  15.573  11.738  0.2191  0.2482 -0.2102
 6644W        W22538  17.619   7.257   2.878 -0.1529 -0.1645 -0.2477
 6645W        W22539  15.254   3.455   4.131 -0.2493  0.0886 -0.1598
 6646W        W22540   9.255   4.621   1.181  0.0069  0.1524 -0.2008
 6647W        W22541   5.146  12.642  14.761 -0.2853 -0.1445  0.0056
 6648W        W22542   5.547   4.882  16.322 -0.1730  0.0087 -0.0045
 6649W        W22543  17.670  17.487  16.192  0.0906  0.0929 -0.1454
 6650W        W22544   6.601  11.957  16.060  0.0842  0.0021  0.0772
 6651W        W22545   8.329  12.851   4.329  0.1699 -0.0380 -0.0937
 6652W        W22546  16.575  12.780   3.222  0.2202  0.0137 -0.1161
 6653W        W22547   7.858  12.105  14.241 -0.0364 -0.0972  0.4722
 6654W        W22548   7.080  17.153  14.235  0.0315 -0.4151  0.1809
 6655W        W22549   7.452  15.887   3.766 -0.0047 -0.1624 -0.0512
 6656W        W22550  17.917   0.505   3.760 -0.0723  0.2146 -0.0158
 6657W        W22551  10.896   1.392  15.755  0.3324  0.0438  0.3203
 6658W        W22552  11.625   6.625  15.231  0.0642  0.4042 -0.1950
 6659W        W22553  13.040   2.784   1.403 -0.0241  0.1770  0.0427
 6660W        W22554  18.181   8.180   2.705  0.3327 -0.3825 -0.0308
 6661W        W22555  16.299   6.349  12.879 -0.4897  0.0100 -0.2735
 6662W        W22556   7.756  16.147  13.095 -0.2211  0.0037 -0.2171
 6663W        W22557  12.264   4.282  15.028 -0.0740 -0.2197  0.2975
 6664W        W22558   9.560  17.049   0.881  0.1319 -0.3403 -0.2580
 6665W        W22559   5.774   5.680   0.474 -0.3341  0.0372  0.4780
 6666W        W22560   8.591   7.768   1.071 -0.0774  0.0842 -0.4601
 6667W        W22561   2.559   6.819   0.300 -0.1101 -0.0293 -0.0944
 6668W        W22562   3.374   5.585  14.594  0.4337  0.1977  0.0950
 6669W        W22563  15.563   5.673   3.874 -0.0482  0.0738 -0.2494
 6670W        W22564   8.920  15.892  13.522  0.1002 -0.0980  0.3605
 6671W        W22565  10.953   9.251  10.840 -0.0008  0.0811 -0.0468
 6672W        W22566  11.837   4.677  15.472  0.0175 -0.1333  0.2816
 6673W        W22567  17.916  13.265   2.851  0.1004 -0.1010  0.0826
 6674W        W22568   7.639   8.403  10.337  0.2935  0.1650  0.3376
 6675W        W22569  14.660  12.225   1.658 -0.1093 -0.1071 -0.0509
 6676W        W22570  16.091   0.770   5.420  0.0883 -0.2187  0.2119
 6677W        W22571   5.132   3.675  16.295  0.0362 -0.2238 -0.0486
 6678W        W22572  13.027  11.521  15.910 -0.2511 -0.0201  0.3220
 6679W        W22573   4.937  13.249   1.939  0.0055  0.2703 -0.3181
 6680W        W22574   0.829   0.908   3.778 -0.0040 -0.1593 -0.2499
 6681W        W22575   5.598   0.959   0.713  0.1244 -0.3896  0.2422
 6682W        W22576   9.268   0.642  15.278 -0.0813  0.0430 -0.0332
 6683W        W22577   8.922  12.018  10.291 -0.1403 -0.0212  0.1378
 6684W        W22578   1.814  10.731  13.582  0.3511 -0.1092  0.2361
 6685W        W22579  17.345  14.258   5.810 -0.0608 -0.1656  0.1795
 6686W        W22580   4.301  15.818   3.913 -0.0555 -0.1445  0.0579
 6687W        W22581   7.054   5.139   2.760  0.2187  0.4684  0.3785
 6688W        W22582  12.584  12.705   0.947 -0.2762 -0.0200  0.0714
 6689W        W22583   7.661  10.089   4.306 -0.2544  0.2557 -0.0496
 6690W        W22584   1.431   1.150   4.988 -0.1755  0.1416 -0.0504
 6691W        W22585  18.181   4.456  13.434 -0.0087 -0.0882 -0.2099
 6692W        W22586   3.289  10.627   4.936  0.2316 -0.0195  0.1656
 6693W        W22587   3.035  10.852   6.178  0.0174  0.1254  0.2031
 6694W        W22588   8.208   4.821   4.997 -0.1169 -0.1944 -0.0138
 6695W        W22589  11.959  14.335   2.587  0.1363  0.3748 -0.2172
 6696W        W22590   7.562  18.078   2.470 -0.0223 -0.0831  0.1694
 6697W        W22591   1.887   6.783  13.628 -0.3948 -0.2515 -0.1315
 6698W        W22592  15.259   7.548   4.453 -0.1799  0.1321 -0.0849
 6699W        W22593   1.290  14.390   0.681 -0.0444  0.3586 -0.4018
 6700W        W22594   0.547   2.436  15.446 -0.0524 -0.0865 -0.0453
 6701W        W22595  12.489  11.918   0.658 -0.2852  0.2080  0.0628
 6702W        W22596   5.490  11.134  14.125  0.0480 -0.1424  0.0610
 6703W        W22597   3.459   2.746   5.538  0.0926  0.0014 -0.2157
 6704W        W22598   1.189   7.296  11.053  0.2471  0.1969  0.0102
 6705W        W22599   8.807   0.927  16.079  0.1548  0.0004 -0.0041
 6706W        W22600   8.996   5.042   5.446 -0.0192 -0.1687 -0.1085
 6707W        W22601  11.904  12.155  14.085 -0.2013 -0.1495  0.0940
 6708W        W22602  12.358  11.424   0.681 -0.1509 -0.1305 -0.0842
 6709W        W22603  15.330   3.073  11.742 -0.1009 -0.1878  0.0669
 6710W        W22604   0.179   6.169   0.038 -0.1776  0.0506  0.1216
 6711W        W22605  10.334   9.746   5.252  0.0600 -0.0161 -0.1429
 6712W        W22606  13.665  17.997   3.694 -0.1455  0.1407 -0.2504
 6713W        W22607   6.728   8.238  12.469  0.0551 -0.0580 -0.0027
 6714W        W22608  10.764   7.086  15.496  0.2814 -0.0816 -0.1278
 6715W        W22609  13.031  12.014  15.621 -0.0779  0.2626  0.3449
 6716W        W22610   4.064   7.805   3.453 -0.0331 -0.0201  0.2351
 6717W        W22611  15.354   6.271   1.798 -0.0133  0.0565 -0.0897
 6718W        W22612   1.020   6.560   3.812  0.1380 -0.1312 -0.0349
 6719W        W22613  11.849   2.787  13.862 -0.1456 -0.0536 -0.2357
 6720W        W22614   7.196  10.659   1.549 -0.0425 -0.1397  0.1076
 6721W        W22615  15.132   1.662   3.567  0.1213  0.1603  0.3094
 6722W        W22616   1.711  13.311   0.478  0.0842 -0.1241 -0.0539
 6723W        W22617  10.553   1.651  13.297 -0.0536 -0.2303  0.3486
 6724W        W22618  15.082   8.339   2.583 -0.0633  0.2265  0.2625
 6725W        W22619  15.984  12.260  13.451  0.1219  0.0637 -0.1146
 6726W        W22620  12.153  12.787  13.652 -0.2654  0.1603 -0.5564
 6727W        W22621   6.032  17.499   2.201  0.0100  0.1906 -0.4312
 6728W        W22622  11.384   3.716   1.378 -0.4722 -0.1073 -0.0217
 6729W        W22623  17.597  13.851   6.119  0.0050 -0.0784  0.2533
 6730W        W22624   3.328   9.803   5.531 -0.0309 -0.1615 -0.1542
 6731W        W22625  10.573  15.668  14.302  0.3738  0.1820  0.1838
 6732W        W22626  17.835   0.753  13.947  0.2312  0.0579 -0.0567
 6733W        W22627  17.837   5.720   1.139 -0.0955  0.2087 -0.1796
 6734W        W22628  10.255   3.175  13.683 -0.0969 -0.0163 -0.1501
 6735W        W22629   7.433  16.461  15.244  0.1304  0.2552 -0.0144
 6736W        W22630  15.219   0.739   2.613 -0.1366 -0.0586  0.0612
 6737W        W22631   4.632  11.241  13.523  0.0543  0.1336  0.3538
 6738W        W22632  17.015  11.616   2.929 -0.3575  0.2793 -0.0370
 6739W        W22633  14.638   9.222  13.934  0.2629 -0.0838  0.2073
 6740W        W22634  16.080  12.509   1.217 -0.0104 -0.1414 -0.1192
 6741W        W22635   6.996   9.887  13.559  0.3045  0.0358  0.0376
 6742W        W22636  10.545   0.723  14.808 -0.1797 -0.1582 -0.1061
 6743W        W22637   6.076  12.242  12.794 -0.3384 -0.0429  0.3229
 6744W        W22638   7.170   2.181   1.318  0.0264  0.1770 -0.1744
 6745W        W22639   9.918   9.664   0.911  0.0114  0.0781 -0.3156
 6746W        W22640  16.015   7.737  15.160 -0.3677 -0.1554 -0.2012
 6747W        W22641   7.090   9.191   5.242 -0.2241 -0.1501  0.0529
 6748W        W22642  11.232   8.986   5.076 -0.2844  0.1196 -0.0569
 6749W        W22643  11.012   0.551  15.505 -0.4317 -0.2040  0.1436
 6750W        W22644   0.610  10.209   5.409 -0.1076 -0.0011 -0.0710
 6751W        W22645  12.650  16.189  12.910  0.0664 -0.0782  0.0270
 6752W        W22646   8.943  13.617   4.946  0.0791  0.0552  0.1466
 6753W        W22647   7.009  15.214  12.082 -0.1059 -0.1539 -0.0395
 6754W        W22648   2.589   7.773   0.776  0.0766  0.1114 -0.2605
 6755W        W22649   8.008   9.008   5.486  0.1383  0.1466 -0.0120
 6756W        W22650   6.133   9.678   5.668 -0.0738 -0.0276 -0.1858
 6757W        W22651   3.203   7.432  14.500 -0.1888 -0.3175  0.0879
 6758W        W22652  10.135   7.919  11.018 -0.0160 -0.1089 -0.1201
 6759W        W22653   9.837  17.038   4.725 -0.0600 -0.4733 -0.3208
 6760W        W22654  10.707  14.671   1.004  0.0604  0.0462  0.0231
 6761W        W22655  15.532   7.493  12.312  0.0450 -0.1521 -0.0573
 6762W        W22656   0.120   8.090   2.236 -0.2171 -0.0850  0.2132
 6763W        W22657  12.371  12.457  14.059  0.1126  0.0236  0.1403
 6764W        W22658   7.003  13.557   2.809  0.2550  0.1523 -0.2090
 6765W        W22659   5.464   2.502  13.739  0.1305  0.2467  0.0715
 6766W        W22660   6.308  12.762   3.703  0.0933  0.0551 -0.0182
 6767W        W22661  13.211   6.097   2.015 -0.4044  0.1766 -0.0053
 6768W        W22662   5.344   8.632  16.173 -0.0167 -0.1314 -0.2840
 6769W        W22663  16.025   2.535  14.822  0.2446 -0.0808 -0.4150
 6770W        W22664   7.592  14.151   2.100  0.0729  0.2648 -0.2259
 6771W        W22665  17.185  14.039  13.403  0.2828  0.1559  0.0707
 6772W        W22666  16.786  11.341   5.637 -0.2077  0.1853 -0.0504
 6773W        W22667   4.804  14.875  14.081  0.3852 -0.2339  0.0356
 6774W        W22668   8.723  11.549  16.160 -0.3458 -0.0559 -0.1834
 6775W        W22669  18.208   2.086   5.393  0.4218  0.2297 -0.1596
 6776W        W22670  14.169   0.161  16.053 -0.0984 -0.0669 -0.1264
 6777W        W22671  13.048   5.280   1.094  0.1434 -0.0085 -0.1580
 6778W        W22672   3.837   0.556  11.270 -0.0332 -0.1998  0.2035
 6779W        W22673  14.545   3.304  15.570 -0.1197  0.3467  0.0695
 6780W        W22674  15.284  10.896  12.707  0.2482 -0.0275  0.1988
 6781W        W22675   2.308  11.065   1.868 -0.2106 -0.1535 -0.1347
 6782W        W22676  11.969  13.350   0.524 -0.1888 -0.1587 -0.0436
 6783W        W22677  11.548   7.066   5.255  0.0619  0.1134  0.1029
 6784W        W22678   5.163   9.866   1.884 -0.3414 -0.4889  0.3407
 6785W        W22679   3.666   6.114   2.177 -0.3487 -0.0002 -0.0568
 6786W        W22680  11.786   5.514   0.868  0.4109  0.0953 -0.1260
 6787W        W22681   9.177   5.589  14.143  0.1760 -0.2686 -0.3194
 6788W        W22682  16.415  14.804  13.969  0.0602  0.2416  0.0191
 6789W        W22683   5.037   1.956  11.963 -0.3741  0.1684  0.0299
 6790W        W22684   4.141  10.765   4.342 -0.1378 -0.4537  0.2610
 6791W        W22685   0.156   0.306   3.724 -0.3255  0.1365 -0.1623
 6792W        W22686  13.863   7.567  12.891 -0.0959 -0.4273  0.0300
 6793W        W22687  17.357   8.590  12.617  0.0703 -0.0122  0.0286
 6794W        W22688   5.398   5.615  13.677  0.3262 -0.0228  0.1354
 6795W        W22689  17.673  11.993   5.781 -0.2393  0.0514 -0.2930
 6796W        W22690   9.844  15.530  11.532  0.1240 -0.0328 -0.2008
 6797W        W22691  11.865  16.865  13.864  0.0820  0.4095  0.4527
 6798W        W22692  17.686  10.206  13.974  0.0072  0.1934  0.4770
 6799W        W22693  13.550   3.706  13.815  0.1269  0.1129 -0.1850
 6800W        W22694   3.533  11.954  13.421 -0.2438 -0.0286  0.1667
 6801W        W22695   6.865   3.561  14.331 -0.0719  0.0099 -0.0680
 6802W        W22696  14.217   5.142  11.662  0.3078 -0.3164 -0.0122
 6803W        W22697   3.492   7.948   1.387 -0.4439 -0.4617 -0.2539
 6804W        W22698   9.976   3.489   5.067  0.3289  0.3311 -0.1070
 6805W        W22699   5.004  16.634   1.368 -0.1250  0.1346 -0.2524
 6806W        W22700   6.019   2.417   2.179 -0.0152  0.2573  0.0065
 6807W        W22701   6.430   3.444  11.893 -0.0655 -0.0781  0.0031
 6808W        W22702   8.761   8.651  12.004 -0.3212 -0.6238 -0.0051
 6809W        W22703   0.720   6.222   4.001  0.1636 -0.1149 -0.2622
 6810W        W22704  17.342  16.166   5.419 -0.0687 -0.2932  0.3103
 6811W        W22705   6.267  14.188   5.280 -0.0622  0.0844  0.1123
 6812W        W22706   3.203  18.129  14.682  0.0608 -0.0618 -0.4162
 6813W        W22707  12.618   3.037   1.309  0.0056  0.0354 -0.0157
 6814W        W22708  14.009   5.644  11.678  0.0783 -0.2622 -0.1113
 6815W        W22709   7.390   9.928  13.201 -0.3490  0.0897 -0.0172
 6816W        W22710   3.311   2.773   0.211  0.2481  0.0398 -0.2933
 6817W        W22711   4.639  11.557   4.845  0.0107 -0.2735  0.2470
 6818W        W22712   0.171   6.958   2.615  0.2909  0.1203  0.0984
 6819W        W22713   8.966  12.283   3.287 -0.4523 -0.2793 -0.0494
 6820W        W22714  12.177  16.347  15.068 -0.2611  0.0377 -0.3036
 6821W        W22715  11.900   3.268   2.098 -0.1082 -0.0278  0.4810
 6822W        W22716   9.877  16.192   2.804 -0.1310 -0.1692 -0.1339
 6823W        W22717   5.801   8.527  13.402  0.2535 -0.1891  0.0203
 6824W        W22718  11.987   6.856   2.055 -0.2458  0.0085  0.1012
 6825W        W22719  10.545  15.526  13.207 -0.4352 -0.0434 -0.0791
 6826W        W22720   2.983  15.964   4.754  0.0315  0.1982 -0.0811
 6827W        W22721   7.090   1.125  15.729 -0.2015 -0.1043 -0.1890
 6828W        W22722   6.523  16.553  15.600 -0.0342 -0.1253  0.2653
 6829W        W22723   1.168  16.203   0.569  0.0778 -0.2860 -0.0752
 6830W        W22724  11.572  16.892   3.401  0.1822 -0.3365  0.4388
 6831W        W22725  13.791   0.239  13.540  0.3022  0.0583  0.0551
 6832W        W22726  17.761   4.185  12.551 -0.0442 -0.0059  0.0627
 6833W        W22727  17.214  14.993   2.125  0.1227  0.1068 -0.1690
 6834W        W22728  14.316   9.685  12.102 -0.0706  0.0649 -0.1529
 6835W        W22729   6.184  17.562   1.127  0.0997 -0.0833 -0.3906
 6836W        W22730   8.911   2.816  15.565 -0.0041 -0.0449  0.4207
 6837W        W22731  17.235  13.754   5.487 -0.2772  0.0096 -0.0592
 6838W        W22732   9.467   8.944   0.253  0.1176  0.0682 -0.4824
 6839W        W22733   9.384   0.792   5.510  0.1141 -0.1112  0.0094
 6840W        W22734   8.875   7.620   2.931  0.0363  0.0826  0.2602
 6841W        W22735   3.368   7.645  12.881 -0.0779  0.3231 -0.0448
 6842W        W22736  17.394   6.064   4.145  0.1610  0.1434  0.4947
 6843W        W22737  12.099  16.548  13.162  0.2971  0.1963  0.0943
 6844W        W22738  17.915   8.182   1.188 -0.0210 -0.2770  0.3184
 6845W        W22739  14.819  14.768   1.492  0.0715 -0.0037 -0.0307
 6846W        W22740   7.959   1.793   1.363  0.0647 -0.0237  0.2068
 6847W        W22741   0.335  10.057  14.419  0.0628  0.2966 -0.1191
 6848W        W22742   0.518  17.493   3.622  0.1085 -0.0638 -0.1156
 6849W        W22743  17.682  15.768  14.395  0.0315 -0.2027 -0.1274
 6850W        W22744   3.070  14.648   0.498 -0.1465 -0.2582 -0.0402
 6851W        W22745  18.043  13.227   0.314  0.1357 -0.1212  0.2398
 6852W        W22746  17.632   6.923   1.889  0.1251 -0.0714  0.0465
 6853W        W22747   6.071  16.650  14.070 -0.1768 -0.2633 -0.3057
 6854W        W22748  17.058   0.831  11.523 -0.2618 -0.3342  0.0402
 6855W        W22749   6.130   5.883   5.174 -0.1491  0.0130 -0.2389
 6856W        W22750   7.538   6.449   1.726  0.1184  0.0159  0.0147
 6857W        W22751  11.965   7.804  11.815  0.2121  0.0588  0.0736
 6858W        W22752   8.003  10.165   5.245 -0.0607 -0.0557  0.1131
 6859W        W22753  10.810   6.232  14.997  0.1401 -0.2227  0.3767
 6860W        W22754   3.967   0.372  11.716 -0.0731 -0.1911 -0.0380
 6861W        W22755   5.460   3.789   1.532 -0.2231 -0.0382  0.0903
 6862W        W22756   5.696   7.663   3.611 -0.1756  0.1151 -0.1172
 6863W        W22757   7.856   9.861  14.901 -0.0808 -0.1395  0.2035
 6864W        W22758   1.790  13.470   3.993 -0.2232 -0.4631  0.3145
 6865W        W22759  10.324  12.909  12.568  0.1369  0.2924  0.0504
 6866W        W22760   2.323  17.490   3.834 -0.0118 -0.1356 -0.2229
 6867W        W22761   4.900  17.180  13.060 -0.3333  0.2088 -0.1675
 6868W        W22762  12.593   7.675   0.136  0.2637  0.1626 -0.0274
 6869W        W22763   7.719  18.184   1.184  0.1302 -0.0608 -0.0557
 6870W        W22764   1.078   4.391  11.571  0.0311  0.0331 -0.1811
 6871W        W22765  15.148  11.376   2.146  0.0877  0.0387  0.1242
 6872W        W22766   7.441  14.461   0.037  0.1299 -0.1800 -0.0196
 6873W        W22767   5.584   6.552   1.256 -0.0704 -0.0355 -0.3541
 6874W        W22768  17.898   8.101   4.970  0.3132 -0.3175 -0.1382
 6875W        W22769   7.049   6.127   5.888  0.0272  0.3114  0.2222
 6876W        W22770   3.477   0.668   5.549  0.4809 -0.1069  0.0521
 6877W        W22771   3.974   1.639  14.278  0.0437 -0.0185  0.0491
 6878W        W22772   7.202   9.905   0.242 -0.2207  0.1920 -0.1782
 6879W        W22773   2.022   2.459  13.793 -0.2720 -0.3106  0.1039
 6880W        W22774  14.956  14.783  16.294 -0.0767 -0.1619  0.4329
 6881W        W22775   6.074  13.876  12.008 -0.1551  0.1121  0.3534
 6882W        W22776  16.781  10.920  13.433  0.0281 -0.1068  0.0181
 6883W        W22777  17.268   0.537   2.131 -0.3111 -0.0285 -0.0467
 6884W        W22778   6.289   6.436   3.195 -0.0520  0.3985  0.2299
 6885W        W22779  12.473   1.206   3.886 -0.1265 -0.0380  0.0701
 6886W        W22780  15.301   2.424   2.540 -0.0249 -0.0286  0.1027
 6887W        W22781   6.149   3.305   1.592 -0.2898  0.1482 -0.1903
 6888W        W22782  11.005   2.572   5.595  0.1794 -0.1721 -0.3026
 6889W        W22783   3.756  16.966  12.282  0.2121 -0.3604  0.1219
 6890W        W22784  12.319  15.568  15.652  0.0976 -0.2393  0.1636
 6891W        W22785   7.970  10.660  13.114 -0.1845  0.1353  0.1341
 6892W        W22786   7.679  12.866  15.709 -0.2303  0.0439  0.0338
 6893W        W22787   2.411  12.786   2.280 -0.0869 -0.2196  0.1254
 6894W        W22788   4.422   4.942  13.059  0.0565  0.0048 -0.0298
 6895W        W22789   8.622   3.993  15.996 -0.0695 -0.0786 -0.3270
 6896W        W22790   0.500  11.861  11.822  0.0954 -0.3084 -0.0424
 6897W        W22791   5.302  15.471  14.159  0.0137  0.0616  0.2109
 6898W        W22792  16.523  16.040   5.759 -0.0826  0.4005  0.2679
 6899W        W22793  14.599   0.174  15.297  0.0914  0.2132 -0.3971
 6900W        W22794   8.173  16.226  16.457  0.2352  0.2738  0.1840
 6901W        W22795   5.327   0.383  14.733 -0.3749  0.2542  0.2738
 6902W        W22796   1.412   5.556  16.062 -0.0178  0.2388 -0.0246
 6903W        W22797  14.711  12.665   0.073 -0.2537 -0.0766  0.0021
 6904W        W22798   1.095  13.930  13.588  0.2417  0.1612 -0.1246
 6905W        W22799   1.945   5.601  14.411 -0.3248  0.1739  0.3135
 6906W        W22800   9.252   3.173  14.237 -0.2865  0.4696  0.2792
 6907W        W22801  16.743   7.637  11.719  0.2309  0.1756  0.0147
 6908W        W22802  15.951   6.226  16.314  0.0341 -0.2005 -0.3062
 6909W        W22803   6.043   9.100   1.617 -0.1106 -0.1835  0.0131
 6910W        W22804  12.336   4.906  12.072  0.1680  0.2766 -0.1612
 6911W        W22805   2.355   7.889   3.662 -0.2383 -0.0959  0.1030
 6912W        W22806   3.565   4.629   4.450 -0.1773 -0.2895  0.3983
 6913W        W22807   9.726  15.018   1.882  0.1461 -0.3227  0.0134
 6914W        W22808   7.876   0.009  11.164  0.1109  0.0614  0.2794
 6915W        W22809   3.475   5.819   2.496 -0.2333 -0.1668  0.1267
 6916W        W22810   1.389   9.739   3.368  0.5241 -0.0139 -0.1343
 6917W        W22811  11.530   0.537  11.384  0.1920 -0.0222 -0.1122
 6918W        W22812   2.039  12.482   2.136 -0.0827 -0.0536 -0.4620
 6919W        W22813  11.902  12.373   4.590  0.0552 -0.1912 -0.0060
 6920W        W22814   7.740  13.069  16.180 -0.2291  0.0044 -0.0629
 6921W        W22815  10.089   5.337   2.879 -0.0515 -0.1557  0.1339
 6922W        W22816  11.691   7.031   3.457 -0.0437 -0.1937 -0.0071
 6923W        W22817   7.708   1.629   3.089 -0.2887  0.1414 -0.0448
 6924W        W22818   8.380  10.812  16.415  0.0632 -0.3315 -0.3812
 6925W        W22819   1.211   2.239   4.996  0.0551 -0.0315 -0.4114
 6926W        W22820   0.074  10.527   1.676 -0.1346 -0.1941  0.0521
 6927W        W22821   4.812  12.654   5.437 -0.0205 -0.1188  0.1188
 6928W        W22822  17.779   0.752  15.938  0.1861  0.1276 -0.1823
 6929W        W22823   7.786  12.576  14.962  0.3868  0.0572  0.1511
 6930W        W22824  17.673  13.950  16.385 -0.1446  0.1196 -0.0948
 6931W        W22825   7.198  16.754  16.432  0.2491 -0.0692  0.0819
 6932W        W22826  17.768  14.310   6.096  0.0974  0.2901 -0.1002
 6933W        W22827   0.700  14.151   0.089  0.0033  0.3917  0.0384
 6934W        W22828  16.605  16.104   1.843 -0.0509 -0.0613  0.2312
 6935W        W22829  15.297   9.515  12.045  0.0160  0.1668  0.2402
 6936W        W22830  13.333   3.421   3.901  0.0658 -0.0818 -0.1227
 6937W        W22831   2.056  17.987  12.303 -0.1040  0.2404 -0.1754
 6938W        W22832  11.328  13.502   2.262  0.1049 -0.3593 -0.1763
 6939W        W22833   5.534  15.528   5.053  0.2373  0.0653  0.1176
 6940W        W22834   6.595  13.792   5.343 -0.2465 -0.0676  0.1750
 6941W        W22835   4.843  15.504  13.852  0.1342  0.2363  0.1261
 6942W        W22836   2.000  13.271  15.793 -0.1726 -0.3557 -0.0734
 6943W        W22837  11.656  14.200  14.384 -0.1919  0.0159  0.1383
 6944W        W22838   5.050   5.697   3.488  0.0294 -0.0970  0.1433
 6945W        W22839   0.492  16.498   1.193 -0.1509  0.0002 -0.1096
 6946W        W22840   5.835   4.664  13.254  0.2462  0.1720 -0.0037
 6947W        W22841  11.987   3.733  10.690  0.2090  0.2437  0.2328
 6948W        W22842   7.814   6.759  11.505  0.0965 -0.0245  0.1994
 6949W        W22843  10.480  16.247   1.397 -0.2251 -0.2541  0.0105
 6950W        W22844   2.993  10.855  11.981  0.2313  0.0890 -0.2696
 6951W        W22845   2.705  15.883  13.432 -0.0663  0.1465  0.0032
 6952W        W22846   2.473   4.618  12.394 -0.1024  0.2748  0.1181
 6953W        W22847   2.879   1.860  15.353  0.0301  0.0224 -0.2598
 6954W        W22848  12.541  11.693   2.949  0.5129  0.0699 -0.0611
 6955W        W22849   5.190   7.642  15.772  0.1920 -0.1954 -0.1478
 6956W        W22850   3.511  17.530  11.000 -0.0985 -0.1417 -0.0500
 6957W        W22851  13.363  17.863  15.863 -0.1991  0.2520 -0.4359
 6958W        W22852  10.425   1.288  15.556 -0.2949 -0.0299 -0.0484
 6959W        W22853  11.878  14.515  14.076 -0.4081 -0.2988 -0.1527
 6960W        W22854   5.795  13.692  15.558 -0.2452  0.2989  0.1119
 6961W        W22855   5.781   1.439  14.888  0.2087  0.0651  0.1370
 6962W        W22856  10.766  12.063  12.919  0.0388  0.1191  0.0830
 6963W        W22857   7.077  13.370  13.640 -0.1068  0.1139 -0.1236
 6964W        W22858   6.337  16.138   1.881  0.1198  0.0454 -0.0003
 6965W        W22859  14.963   0.635   4.490  0.0411 -0.0062  0.1948
 6966W        W22860  16.712   3.012  12.199  0.2986 -0.0730 -0.4860
 6967W        W22861  15.833   5.091   4.200 -0.1859 -0.2895  0.1874
 6968W        W22862   3.084  14.731   1.043  0.2068 -0.2177 -0.2486
 6969W        W22863  14.992   7.875   2.802 -0.1181 -0.0405  0.0851
 6970W        W22864   4.046   9.708  12.249  0.0579  0.3932 -0.3163
 6971W        W22865  16.276  16.015  12.985  0.1101 -0.0531 -0.3332
 6972W        W22866  12.962   0.711   2.668 -0.3467  0.1950 -0.1071
 6973W        W22867  16.561   9.612   1.691  0.0058  0.0932 -0.1482
 6974W        W22868  15.941  12.936   2.544  0.0619  0.2434 -0.2152
 6975W        W22869   9.349   8.141   4.226 -0.0268  0.1810 -0.0057
 6976W        W22870   6.982   6.050   0.892 -0.2319 -0.1438 -0.0637
 6977W        W22871   7.503   7.269  13.240  0.0073 -0.0963  0.0855
 6978W        W22872   8.792  11.354   1.803 -0.2707  0.0552  0.3008
 6979W        W22873   9.962   7.416  13.644 -0.0157 -0.1904  0.2359
 6980W        W22874  15.818   2.134   3.784 -0.2096  0.0246 -0.2616
 6981W        W22875   0.166   8.289   0.655 -0.2587  0.1420 -0.3666
 6982W        W22876   5.862  15.400   3.472  0.1437  0.1158  0.2268
 6983W        W22877   1.808   3.833  12.056  0.1014 -0.0474 -0.0281
 6984W        W22878  13.090   3.592  15.749  0.2038 -0.1282 -0.0253
 6985W        W22879  15.261   6.757  15.546  0.1405  0.2371  0.1024
 6986W        W22880  14.864  14.919  14.762  0.0568 -0.4203  0.1783
 6987W        W22881   2.384   1.181   3.051 -0.2267 -0.2724 -0.0913
 6988W        W22882   5.010  14.564   2.690 -0.2244 -0.1577  0.2682
 6989W        W22883   2.806  11.938   0.990  0.0605  0.1426  0.1753
 6990W        W22884   9.054  16.313   2.090  0.3971 -0.2909 -0.0005
 6991W        W22885  14.187   5.585   5.161  0.1406  0.4004  0.1224
 6992W        W22886  10.439  17.983  14.736  0.0051 -0.0830  0.0011
 6993W        W22887  16.713   7.126  14.843 -0.3387 -0.0912 -0.2155
 6994W        W22888   4.226   7.124   1.629  0.3890 -0.0559 -0.2342
 6995W        W22889  12.432  14.139  15.978  0.1202 -0.0104  0.2200
 6996W        W22890  12.494   7.749  11.323  0.1500 -0.0254 -0.0684
 6997W        W22891  17.936   8.011  14.008 -0.0351 -0.1015  0.2025
 6998W        W22892  16.823  12.117  13.847 -0.4407  0.1673  0.2147
 6999W        W22893   0.945  17.908   2.861 -0.0877 -0.0544 -0.1159
 7000W        W22894  13.296   4.368   3.509 -0.1749  0.0424 -0.1265
 7001W        W22895  12.582  10.515   2.764 -0.1870  0.5944 -0.0513
 7002W        W22896  18.040  14.821   2.342  0.5645 -0.1073  0.1036
 7003W        W22897   9.909  10.995   0.361 -0.3348  0.1438 -0.1104
 7004W        W22898   4.518  10.244   4.533  0.2843 -0.0222  0.0425
 7005W        W22899   4.132  16.240  11.944 -0.0590  0.2202 -0.2111
 7006W        W22900  11.394   7.321  13.621  0.1341 -0.3264  0.0729
 7007W        W22901   8.251   8.656   3.447 -0.0108 -0.1114 -0.0323
 7008W        W22902   5.107   9.540  16.085  0.1823  0.0809  0.3389
 7009W        W22903   7.762  14.410  12.924  0.3492 -0.0632 -0.1179
 7010W        W22904   8.157  11.241   6.112  0.1530  0.3613  0.1416
 7011W        W22905  15.557  13.602   1.917 -0.0282  0.3144  0.0836
 7012W        W22906  15.370  14.755   5.546  0.2451  0.4252 -0.0664
 7013W        W22907  15.730   1.659   4.377  0.3304 -0.0023 -0.2869
 7014W        W22908  11.121  13.091   4.511  0.0534  0.0059 -0.0296
 7015W        W22909  17.792   3.920  14.427  0.1648 -0.0882  0.2965
 7016W        W22910   1.779   1.430  14.834 -0.0243  0.0829  0.0768
 7017W        W22911   7.694  17.567  10.482  0.2466  0.2352 -0.4083
 7018W        W22912  14.679   9.285   4.922 -0.0289  0.2052  0.0476
 7019W        W22913   7.853  17.216   3.815  0.0565 -0.2946  0.0279
 7020W        W22914   1.672   1.863   1.105  0.2522 -0.0881  0.0152
 7021W        W22915   6.518  11.355   1.492  0.2411  0.0162  0.1611
 7022W        W22916   1.792   7.772  14.778 -0.2398  0.1906 -0.1192
 7023W        W22917   9.439   8.383   0.420  0.2827 -0.1229  0.2125
 7024W        W22918   0.099  17.497  11.887 -0.0836 -0.2237 -0.0248
 7025W        W22919  16.289   3.499   2.730 -0.2599 -0.0632  0.1325
 7026W        W22920   8.855   4.835   0.317  0.0869  0.3391 -0.0075
 7027W        W22921  16.708   8.103   0.661 -0.2040  0.4519 -0.0197
 7028W        W22922   2.775   0.009  13.829 -0.2779 -0.1180 -0.0711
 7029W        W22923  16.509  15.096   0.377  0.1615  0.0618  0.0021
 7030W        W22924  11.124  13.967  15.801  0.1044 -0.1156  0.0420
 7031W        W22925   6.977   6.594   0.297  0.2641 -0.0810 -0.1510
 7032W        W22926   8.973   0.516  15.673  0.0094 -0.0322 -0.0257
 7033W        W22927   2.184  11.255   4.121  0.0202  0.0049 -0.2777
 7034W        W22928   5.804  11.527  11.502 -0.2099 -0.0669  0.0569
 7035W        W22929   5.678  12.255   4.052  0.2324  0.1194  0.1213
 7036W        W22930   3.530   6.557   3.064  0.1518 -0.1554 -0.0021
 7037W        W22931  12.206  14.796  14.914 -0.1914  0.0121  0.1305
 7038W        W22932  17.238  17.842  14.923 -0.1515 -0.1070 -0.0220
 7039W        W22933  16.286   3.069   5.611  0.0995 -0.0447 -0.2585
 7040W        W22934   6.613   1.852   3.830  0.1135 -0.1732  0.3099
 7041W        W22935   1.781  17.359  15.833  0.0754 -0.0053  0.2324
 7042W        W22936  14.309   9.047   2.749  0.1027  0.0854 -0.2281
 7043W        W22937   5.341   5.018  15.891 -0.1746  0.1040 -0.0975
 7044W        W22938  15.899  11.972  15.189  0.0076  0.0189  0.2628
 7045W        W22939   6.354  11.008  14.291  0.0683 -0.1064  0.2048
 7046W        W22940   1.420   5.173  15.750  0.3754 -0.0433 -0.0680
 7047W        W22941  16.477  14.884   1.271  0.0523  0.0606  0.0468
 7048W        W22942  13.090   1.133  13.972 -0.0826  0.2678 -0.0532
 7049W        W22943  15.795   8.705  12.372  0.0650  0.0523  0.2294
 7050W        W22944  10.438   9.311  15.311  0.0449  0.2802 -0.2967
 7051W        W22945   0.542  14.097  14.650  0.1754  0.0683  0.5814
 7052W        W22946   5.799   0.123  14.519  0.1026 -0.3779 -0.0311
 7053W        W22947   9.828  11.693   1.227  0.0459  0.1875 -0.0808
 7054W        W22948   4.415  17.928   5.602  0.0513  0.2982 -0.2437
 7055W        W22949  17.540  13.085   4.343  0.2311 -0.3511  0.1490
 7056W        W22950  17.311  12.182  12.351  0.2748  0.0701 -0.0796
 7057W        W22951  13.028  14.216   3.921 -0.0798  0.1403 -0.0703
 7058W        W22952   9.984   9.701  11.805  0.2352 -0.2373 -0.1420
 7059W        W22953   9.301  13.861  15.636 -0.3518 -0.3828  0.1716
 7060W        W22954  12.274   8.541  12.416 -0.1380 -0.2660  0.1591
 7061W        W22955   8.603  16.239   5.293  0.0647  0.0905  0.0486
 7062W        W22956  15.668   5.026  15.337  0.1252  0.2071  0.0760
 7063W        W22957   5.875  11.538  14.838  0.0663  0.1532  0.0689
 7064W        W22958   9.454   9.868  12.619 -0.1688  0.0934 -0.1800
 7065W        W22959  15.326   0.106  13.024 -0.0100 -0.0805 -0.0912
 7066W        W22960  16.315  15.282  15.080  0.0785  0.2390  0.3455
 7067W        W22961   3.293  16.928   1.658 -0.1472  0.0855  0.1758
 7068W        W22962   7.338   9.630   5.493 -0.2243  0.1762 -0.1455
 7069W        W22963   6.271  12.672   4.724 -0.2985  0.0123 -0.1543
 7070W        W22964   9.719  15.193   0.954 -0.1783  0.0832  0.4254
 7071W        W22965  16.347  13.009  12.873  0.4905  0.1603  0.0154
 7072W        W22966  13.507  11.554  12.926 -0.1697  0.2493  0.1893
 7073W        W22967   8.647   1.804   3.169 -0.0386 -0.1335  0.2470
 7074W        W22968   9.232   0.825  14.431  0.0599  0.0861 -0.3199
 7075W        W22969   2.827   5.416   1.860  0.1677 -0.2556 -0.0291
 7076W        W22970  13.523   0.676   2.762 -0.3399 -0.3255  0.0072
 7077W        W22971   7.631  10.489   1.740 -0.1135 -0.0459 -0.0743
 7078W        W22972   7.712  16.346   3.417  0.0186 -0.0810  0.1499
 7079W        W22973   1.703   4.010  16.248 -0.1828 -0.0277  0.3900
 7080W        W22974   2.161  17.924  12.873  0.1650 -0.0960  0.1222
 7081W        W22975   9.216  16.603   0.748  0.2224 -0.0575 -0.1837
 7082W        W22976  10.597   7.764  11.309  0.2154 -0.2052 -0.0424
 7083W        W22977   3.238   4.056  10.093 -0.1946 -0.1109 -0.1274
 7084W        W22978  11.819  11.940   4.392 -0.1842 -0.2870 -0.0897
 7085W        W22979  16.714  17.279   2.421  0.1811 -0.2285 -0.2856
 7086W        W22980  16.777   9.187   0.890 -0.3459 -0.2667 -0.3860
 7087W        W22981  11.143   7.206   5.513  0.0583 -0.2467 -0.1867
 7088W        W22982   3.872   2.785  15.276  0.1177  0.0551  0.1577
 7089W        W22983  11.502   7.605  11.058 -0.0258  0.2225  0.0940
 7090W        W22984  16.996  14.437   1.924  0.0710  0.0488 -0.1846
 7091W        W22985  13.857  16.898  11.684  0.1182  0.1002  0.1541
 7092W        W22986   9.955   6.382   4.412 -0.1017 -0.1882  0.0359
 7093W        W22987   1.159  10.896   4.903  0.1203  0.0953  0.0076
 7094W        W22988  16.674   9.474   1.269  0.0423  0.2277  0.3331
 7095W        W22989  17.448  17.334  14.685  0.0757 -0.1368  0.3117
 7096W        W22990  11.167   8.045   1.880 -0.0974  0.0760 -0.0051
 7097W        W22991   4.893  11.933   5.205 -0.2243 -0.5712  0.0309
 7098W        W22992  13.333   2.837   0.532  0.1906  0.4178 -0.0089
 7099W        W22993   0.352  15.046   5.919  0.2828  0.2469  0.1440
 7100W        W22994   2.720   6.030  16.119 -0.0575  0.0340  0.1473
 7101W        W22995  14.860   9.090   0.563  0.1173 -0.0216  0.0890
 7102W        W22996  11.544   1.592   4.259 -0.1075  0.1880 -0.1916
 7103W        W22997   9.018   6.961   0.666 -0.0505 -0.0181  0.3481
 7104W        W22998   1.984  11.899  12.282  0.2961 -0.1546  0.2056
 7105W        W22999  15.638  10.558  12.020  0.2450 -0.1199  0.1899
 7106W        W23000   8.642   2.317  12.600 -0.3974 -0.0888  0.0623
 7107W        W23001   4.420  11.268  16.046 -0.1280  0.1210  0.1490
 7108W        W23002   8.407   4.053  12.490  0.1243  0.1353  0.1493
 7109W        W23003  11.520   3.563   3.336  0.0778  0.4145  0.0856
 7110W        W23004   8.166   0.911  14.744  0.1294 -0.3316  0.1226
 7111W        W23005  10.244  17.769   4.494  0.1597  0.3100  0.0017
 7112W        W23006   7.772   5.533   4.759 -0.0364 -0.1001 -0.0648
 7113W        W23007  15.527  10.108   2.434  0.1025 -0.0985  0.0824
 7114W        W23008   1.976   2.841   0.476  0.0939 -0.0477  0.2054
 7115W        W23009  14.294   3.523   2.128  0.1815 -0.0295  0.0777
 7116W        W23010  10.780  18.078   0.604 -0.2148  0.0150  0.1932
 7117W        W23011   2.255  12.323   3.158 -0.0612  0.1741  0.3425
 7118W        W23012   0.651  16.884  13.727 -0.0267  0.0580  0.0973
 7119W        W23013  13.915  14.002   0.299 -0.2327 -0.3587 -0.0167
 7120W        W23014  10.280   7.859  14.551  0.1462  0.0678  0.1161
 7121W        W23015   2.497  12.821   5.767  0.3842 -0.0885  0.1212
 7122W        W23016  12.656  13.671   0.610  0.3143 -0.0995  0.1556
 7123W        W23017  15.931  13.238  13.081 -0.1008 -0.0865 -0.0949
 7124W        W23018  11.326   4.773   5.658  0.0217 -0.2165 -0.0092
 7125W        W23019  14.186  12.339   2.903 -0.2456  0.3665  0.0648
 7126W        W23020   0.106   9.957  15.673 -0.1228  0.2825 -0.2154
 7127W        W23021   4.159  10.782  14.493  0.0201 -0.0599  0.3602
 7128W        W23022  16.954  17.647   2.135 -0.3259 -0.2799  0.4803
 7129W        W23023  15.311   2.854   1.887 -0.1027  0.2081  0.0276
 7130W        W23024  12.170  17.191   4.387  0.4597 -0.1535  0.0260
 7131W        W23025   8.083  17.756   4.382  0.1358 -0.0566  0.0068
 7132W        W23026   6.577  16.544   0.525 -0.1860  0.3167  0.1637
 7133W        W23027   3.431   7.873  11.946  0.0231 -0.2182  0.1305
 7134W        W23028  13.877   8.959   2.963  0.0662 -0.0903 -0.1429
 7135W        W23029   1.211   6.761  16.052 -0.0924 -0.0783 -0.1825
 7136W        W23030   7.577   2.840   5.017 -0.1070  0.3846 -0.4311
 7137W        W23031   2.905   9.400   5.098 -0.0115 -0.2675  0.3454
 7138W        W23032  11.246   6.865  15.580  0.0140 -0.1776  0.0326
 7139W        W23033   7.955   6.592   3.163 -0.0269  0.3871 -0.0160
 7140W        W23034   6.442  11.855  13.785 -0.3357  0.2721  0.2886
 7141W        W23035   0.109  13.465   3.016  0.0242 -0.3203 -0.2194
 7142W        W23036   6.269  16.731   1.237  0.0966  0.1278 -0.0458
 7143W        W23037  17.149  13.431   2.424  0.1542 -0.0126 -0.3257
 7144W        W23038   3.493   8.416  14.643  0.0446  0.1244 -0.1269
 7145W        W23039   3.699   4.321  14.168  0.1399 -0.3404 -0.0023
 7146W        W23040  10.906  11.688   3.636  0.1117 -0.0068 -0.0654
 7147W        W23041  11.278  12.824   1.019 -0.1885 -0.1942 -0.1440
 7148W        W23042   4.772   3.787  15.540  0.0435 -0.2247 -0.1707
 7149W        W23043   9.231   1.423   1.644  0.0842 -0.1229  0.2374
 7150W        W23044   8.367  13.343  10.791 -0.3662 -0.2884 -0.1518
 7151W        W23045  13.901  12.608   3.282  0.2397  0.0312 -0.1987
 7152W        W23046  12.812  10.759   0.131 -0.2278 -0.0500 -0.1826
 7153W        W23047   9.789  14.178  12.015 -0.0074  0.0175  0.3337
 7154W        W23048   0.282  12.021  12.795  0.0278 -0.0709  0.1148
 7155W        W23049   9.144   4.657  15.913 -0.1556 -0.0555  0.0095
 7156W        W23050  14.601  16.067  10.346  0.0277  0.0733  0.0585
 7157W        W23051   7.839   2.503   4.675  0.1031 -0.2160  0.0086
 7158W        W23052   8.266  10.495   0.393  0.2623  0.2242 -0.1188
 7159W        W23053  16.668   8.426  13.918 -0.0834 -0.1601 -0.2207
 7160W        W23054  16.144   6.247   3.516  0.0090  0.3304  0.1358
 7161W        W23055   6.693  10.173  13.266 -0.2654 -0.1952  0.3553
 7162W        W23056   3.909  18.200   2.395  0.2742  0.2994 -0.1609
 7163W        W23057   6.300   1.095  12.088 -0.1002 -0.2400  0.2306
 7164W        W23058   2.518  15.779   4.046  0.0972  0.0504 -0.1213
 7165W        W23059   8.037  15.838  15.651 -0.0619  0.0169  0.1876
 7166W        W23060   5.860   8.308   1.471  0.2305  0.1582 -0.1658
 7167W        W23061  11.985   6.071  13.046  0.0430  0.0538 -0.0310
 7168W        W23062   0.525   6.086   5.917 -0.3017  0.0431  0.0010
 7169W        W23063   5.805   8.750   1.309 -0.2243 -0.1644 -0.0439
 7170W        W23064   2.546  10.099   0.215  0.3047 -0.0225  0.1719
 7171W        W23065   9.165   1.325  15.222  0.0205  0.2641 -0.0613
 7172W        W23066   2.136  12.151  15.941  0.0767  0.1541  0.1490
 7173W        W23067   5.450  10.673  16.164 -0.2712  0.2613 -0.2005
 7174W        W23068  17.702  11.396  16.461 -0.1229  0.2223  0.1759
 7175W        W23069   3.782  13.330   4.274 -0.0675  0.1747  0.1141
 7176W        W23070   8.210   1.044   4.372 -0.1370 -0.0354  0.2279
 7177W        W23071   0.760  11.223   5.770 -0.1302  0.1070 -0.2993
 7178W        W23072  12.459   9.166   4.869  0.1510  0.1431 -0.0727
 7179W        W23073   2.144   2.588   5.216 -0.1966 -0.2026 -0.1191
 7180W        W23074   8.473   2.496  13.807 -0.2847  0.0304  0.1446
 7181W        W23075   4.878   9.002  14.882 -0.0053  0.1095 -0.1600
 7182W        W23076   4.577  13.766   1.532 -0.1829 -0.2548 -0.1171
 7183W        W23077   4.973   0.564  15.167 -0.0699 -0.0349 -0.1306
 7184W        W23078   6.083  11.925   1.148  0.2157  0.0526 -0.0171
 7185W        W23079  16.511   3.105   2.503  0.1110  0.1267  0.5066
 7186W        W23080  11.988   4.676  13.689 -0.3109 -0.0095 -0.0596
 7187W        W23081  11.308  15.433   2.993  0.0176 -0.0570 -0.0598
 7188W        W23082  10.519   4.853   0.703 -0.1038  0.1511 -0.2585
 7189W        W23083  17.375   7.051  15.971 -0.0407  0.2426  0.1426
 7190W        W23084  13.165  17.074  12.573  0.2644 -0.2514 -0.1368
 7191W        W23085  18.015  10.342  11.371 -0.2522 -0.0933 -0.0477
 7192W        W23086   8.145   1.429   3.837  0.0239 -0.1237  0.2604
 7193W        W23087   8.718  16.620   5.627 -0.0547 -0.0334 -0.2839
 7194W        W23088   7.742  16.702  15.612  0.1280  0.1897 -0.0148
 7195W        W23089  15.715   7.971  14.207  0.4842 -0.1454 -0.1980
 7196W        W23090  14.601  10.711   3.201 -0.1142 -0.1202 -0.0056
 7197W        W23091   7.443  12.719  14.044  0.0139 -0.1194  0.0663
 7198W        W23092   4.239   0.400  14.406  0.1054 -0.0491 -0.0167
 7199W        W23093   0.996   7.129  12.006  0.4140  0.0762  0.0307
 7200W        W23094   6.453   4.282  16.302 -0.1324 -0.2077 -0.1794
 7201W        W23095   2.375  10.108   5.682  0.0262  0.4244 -0.2830
 7202W        W23096  12.550  10.809   4.127 -0.0792  0.0394 -0.2369
 7203W        W23097  16.327   0.381   0.315  0.1102  0.3127  0.1227
 7204W        W23098   7.402   8.550  14.484  0.0825  0.1092  0.3304
 7205W        W23099   1.186   1.141   1.516  0.0965  0.1600 -0.1839
 7206W        W23100   7.510   9.572  13.636 -0.1205 -0.0393 -0.1768
 7207W        W23101  14.206   6.169   3.380 -0.2882 -0.0273 -0.3369
 7208W        W23102  11.881   3.778   5.111  0.0305 -0.0158  0.0263
 7209W        W23103  16.885   1.376  16.224 -0.1310 -0.1837 -0.0826
 7210W        W23104  10.845   1.417   2.464 -0.0246 -0.1032  0.1869
 7211W        W23105   6.560   9.213  14.295 -0.0448  0.1350 -0.0220
 7212W        W23106   3.303   4.364  16.154 -0.3169 -0.0630  0.0227
 7213W        W23107   1.933   8.365  13.438 -0.0829  0.2798 -0.1193
 7214W        W23108   2.125   0.838  13.299 -0.2646  0.0130  0.1099
 7215W        W23109  10.642  15.361   4.876  0.0599 -0.3532  0.0470
 7216W        W23110  16.244   3.998   4.919 -0.2414  0.1278 -0.1996
 7217W        W23111  13.267  12.172  14.088  0.1650 -0.2100  0.0611
 7218W        W23112   3.571  14.807  16.052  0.3840  0.0149 -0.0151
 7219W        W23113  15.498   7.733   5.381  0.1757  0.0518 -0.3731
 7220W        W23114  17.260   8.236   4.828  0.1499  0.0239 -0.1325
 7221W        W23115  13.497  10.435  16.414 -0.1837 -0.2514 -0.0960
 7222W        W23116   0.779   9.193   4.176  0.0202 -0.0068 -0.1917
 7223W        W23117   6.258   7.807  14.994  0.0674  0.0034 -0.2677
 7224W        W23118  14.159   6.136   3.889  0.1559  0.2873 -0.0074
 7225W        W23119   6.387   9.633  16.424  0.4129 -0.1046  0.2567
 7226W        W23120  10.833   6.095   4.580  0.0324 -0.1089 -0.0715
 7227W        W23121  13.131   5.175  15.326  0.0774 -0.2177 -0.1432
 7228W        W23122  16.320  13.086   2.900 -0.2955 -0.3525  0.0498
 7229W        W23123   8.018  10.761  15.956 -0.1126  0.1536 -0.1588
 7230W        W23124   4.133   0.285   2.880 -0.1355 -0.1718  0.1427
 7231W        W23125  11.771  15.889   2.131 -0.0103  0.0194  0.1481
 7232W        W23126   7.527  12.575   4.391 -0.2172  0.0167  0.2837
 7233W        W23127   7.602  16.890  14.319  0.1086 -0.0188 -0.0373
 7234W        W23128  12.044  16.035  13.256  0.0990 -0.1976  0.0340
 7235W        W23129   6.371   3.180   2.707  0.3698  0.1260  0.1552
 7236W        W23130   0.501  17.884   0.835 -0.0941 -0.0883 -0.4000
 7237W        W23131  16.590   4.405   5.025  0.0306 -0.1342 -0.0252
 7238W        W23132  10.945  10.550  12.669  0.0228 -0.1142 -0.0931
 7239W        W23133  13.366   1.430   0.157 -0.0178 -0.1080 -0.0359
 7240W        W23134   7.305  16.740  12.103  0.0510 -0.1987  0.4267
 7241W        W23135  11.412   2.988   4.831  0.1666 -0.2516 -0.0251
 7242W        W23136  12.761   5.443  13.200  0.3288 -0.2169 -0.0024
 7243W        W23137   6.004  13.158   4.428 -0.1571  0.2032 -0.1480
 7244W        W23138  14.577  17.331  15.066  0.1051  0.1311  0.4500
 7245W        W23139   3.436  10.456  12.652 -0.2636  0.1054  0.3584
 7246W        W23140   3.860  16.300  15.658  0.0095 -0.1165  0.0729
 7247W        W23141  11.640  13.262   2.655  0.0853 -0.2613 -0.0837
 7248W        W23142   1.793   5.124   4.249  0.1534 -0.2493  0.0346
 7249W        W23143   3.507   3.816   4.810 -0.0341 -0.3199 -0.0454
 7250W        W23144   7.872  14.195  15.088 -0.1304  0.3628  0.1299
 7251W        W23145  15.488  11.625   4.715 -0.2206  0.0966 -0.0129
 7252W        W23146  15.772  17.007  15.340 -0.2412 -0.1521 -0.0388
 7253W        W23147   7.521  13.455   2.543 -0.2099 -0.2213 -0.0448
 7254W        W23148   9.977   4.052   1.401 -0.3403  0.0551 -0.1675
 7255W        W23149   8.919   4.625  12.078  0.2412 -0.2711  0.0800
 7256W        W23150   3.919  12.680   3.667 -0.2977 -0.0699 -0.0726
 7257W        W23151   5.688  14.509   1.455 -0.2077 -0.1231  0.0476
 7258W        W23152  12.590  17.200  14.091  0.0872  0.1254 -0.2005
 7259W        W23153   8.546  10.179   0.645 -0.0612  0.0530  0.0221
 7260W        W23154  15.972  18.158  11.646 -0.1499 -0.2874  0.5313
 7261W        W23155   0.652   9.033   1.247  0.1165  0.2267 -0.3660
 7262W        W23156   1.917   2.086  14.696 -0.1862 -0.0345  0.1697
 7263W        W23157   8.457  10.649  11.663 -0.0813 -0.2175  0.1536
 7264W        W23158  14.616   6.824  10.738  0.0485  0.1486 -0.0244
 7265W        W23159   4.186   3.717  16.211 -0.1379  0.1490 -0.1806
 7266W        W23160  16.843   1.170   3.322  0.3709 -0.3419  0.2270
 7267W        W23161  13.602  14.998   1.868  0.0997 -0.3781  0.3071
 7268W        W23162  16.425  13.406  16.122 -0.0041  0.0792 -0.1450
 7269W        W23163  12.417  17.722  12.795 -0.1287 -0.1861 -0.2532
 7270W        W23164   4.819  17.681  16.155  0.1025  0.0924  0.0858
 7271W        W23165  15.521   7.296  14.719 -0.0109  0.1893 -0.2634
 7272W        W23166  18.203   0.090   2.564  0.2368  0.2201 -0.1201
 7273W        W23167   4.730  15.697  16.247  0.2222  0.0021 -0.0790
 7274W        W23168  15.195   2.947   4.205  0.2777  0.2475 -0.0414
 7275W        W23169   0.426  10.923   2.377  0.4535  0.0810  0.1495
 7276W        W23170  14.356   9.404   5.251  0.1657 -0.3710 -0.1358
 7277W        W23171   2.011   6.808   4.844 -0.0086  0.1727  0.1056
 7278W        W23172  14.618   4.738  11.522  0.2507  0.2134 -0.1051
 7279W        W23173   9.591   8.716  16.116  0.0502  0.1111 -0.1113
 7280W        W23174   8.079   9.348  16.404 -0.1858  0.2000  0.0690
 7281W        W23175  14.165   1.978  13.322 -0.2582  0.1172  0.6062
 7282W        W23176  16.187  10.971   0.060 -0.1686 -0.0447  0.0660
 7283W        W23177   8.906  13.699   3.629 -0.4324  0.0531 -0.0217
 7284W        W23178  10.192  12.889  13.927  0.3092  0.1583 -0.1720
 7285W        W23179   1.526  12.051  12.335  0.1687  0.1393 -0.0471
 7286W        W23180   1.530   9.429   5.493 -0.2169 -0.2188 -0.0909
 7287W        W23181   9.682   7.715   2.315 -0.2945 -0.0907 -0.3494
 7288W        W23182   0.955  12.200   4.380 -0.1173  0.0715 -0.1876
 7289W        W23183  16.936   3.009   5.951 -0.0598 -0.0943 -0.1071
 7290W        W23184  15.233   9.896  14.593  0.0689 -0.1205 -0.0070
 7291W        W23185   2.764  17.549  15.301  0.2909  0.0315 -0.0129
 7292W        W23186  18.019   6.230  12.467 -0.2171  0.1007  0.2186
 7293W        W23187  15.424  15.672  15.035 -0.3340  0.1375 -0.0248
 7294W        W23188   3.006  17.738  12.291  0.2690 -0.1898 -0.2585
 7295W        W23189  16.003  10.905  16.045  0.1473 -0.0605 -0.1460
 7296W        W23190  17.697   1.716   2.475 -0.0341 -0.2951 -0.4315
 7297W        W23191   5.048  18.181  14.731  0.0166  0.2136 -0.2869
 7298W        W23192   5.959   2.845  10.386 -0.0297  0.0219 -0.1576
 7299W        W23193   1.600  13.719  12.038 -0.0856 -0.1938  0.0577
 7300W        W23194   8.842   7.083   3.069 -0.3451 -0.1462 -0.0435
 7301W        W23195  16.117  14.288  13.366 -0.3447 -0.0370  0.0209
 7302W        W23196   9.446   2.218   4.401  0.2587 -0.3539  0.2200
 7303W        W23197   3.098  12.480  13.814  0.0136 -0.2610 -0.1160
 7304W        W23198   2.764  14.841  15.525  0.2036  0.0510 -0.1046
 7305W        W23199   7.388   3.217  11.974  0.0033  0.0917 -0.1886
 7306W        W23200   5.891   0.396   3.078  0.1037  0.0764  0.0963
 7307W        W23201   8.270  13.440   0.432 -0.2165 -0.3002 -0.0458
 7308W        W23202  16.254  12.307   2.802 -0.1320  0.3596 -0.0124
 7309W        W23203   2.315  10.299   0.682 -0.1270  0.0672  0.0315
 7310W        W23204  13.600  18.199  11.720 -0.0827 -0.0745  0.2045
 7311W        W23205  17.769   6.059   3.163  0.1277  0.0036  0.1245
 7312W        W23206   8.442  13.313  14.676 -0.2801 -0.0867  0.1082
 7313W        W23207  16.774   0.751  14.150  0.0812  0.0171 -0.0057
 7314W        W23208  10.633   9.226  14.510 -0.2061  0.1761  0.0019
 7315W        W23209  14.868   1.218   4.785 -0.1623 -0.2191  0.0619
 7316W        W23210   1.418  12.086   5.330  0.1601  0.1040 -0.0355
 7317W        W23211  11.762  16.306   0.898  0.0676  0.3207 -0.0612
 7318W        W23212   9.206  14.202  14.874  0.0755  0.2984 -0.0446
 7319W        W23213   6.515   1.436  16.414 -0.2646 -0.0184  0.3821
 7320W        W23214   6.447   4.804  15.115 -0.0670  0.1844 -0.2139
 7321W        W23215   5.444  15.685  12.151 -0.2302  0.0978 -0.1911
 7322W        W23216  13.789  15.140   4.776  0.2705 -0.4297 -0.0355
 7323W        W23217   6.711   2.076  11.093 -0.1005  0.1221  0.1049
 7324W        W23218   7.234  10.574  13.940 -0.1929  0.1683 -0.0032
 7325W        W23219   9.378  11.314  13.575  0.0563 -0.1443 -0.1666
 7326W        W23220  15.376   7.714  14.534  0.1019 -0.1226  0.1889
 7327W        W23221  13.092   8.571  13.033  0.1602 -0.1562  0.0754
 7328W        W23222   7.610  10.914  12.840 -0.2379  0.1197 -0.2710
 7329W        W23223  14.794  11.182   1.347  0.1245 -0.0329  0.1810
 7330W        W23224   1.825   6.955   5.270  0.0948  0.0803 -0.1354
 7331W        W23225  18.158   5.754   5.470 -0.2706 -0.0917  0.2946
 7332W        W23226   7.033   4.055  15.181  0.1209  0.2232  0.1319
 7333W        W23227  11.509   5.756   2.721 -0.2007  0.1702  0.1874
 7334W        W23228  17.390   4.423   5.473  0.0716 -0.1660  0.2157
 7335W        W23229  10.162  10.456  15.798  0.2615 -0.0175 -0.1903
 7336W        W23230   9.863  11.370  13.687  0.3226  0.1019  0.1882
 7337W        W23231  12.536   8.660   4.943  0.0099 -0.0382  0.0468
 7338W        W23232  17.542   8.663   0.507 -0.1946 -0.2113  0.1960
 7339W        W23233  13.811   8.699   5.048  0.0405 -0.2095  0.0354
 7340W        W23234   7.190  15.444  11.189 -0.0090 -0.1184 -0.4472
 7341W        W23235  11.900  18.071   6.326 -0.1638 -0.3610  0.1670
 7342W        W23236  17.668   4.617   4.922  0.1351 -0.1513  0.1586
 7343W        W23237  17.757  15.839   5.561 -0.1653  0.0766  0.2074
 7344W        W23238   2.756   2.774   2.625 -0.1614 -0.1646 -0.3884
 7345W        W23239  13.583  15.458  13.549 -0.2282 -0.0579 -0.1541
 7346W        W23240  12.204   8.707  12.905 -0.0854 -0.0323 -0.0026
 7347W        W23241   2.809   1.044  11.236  0.0352 -0.2244  0.2891
 7348W        W23242  11.560   0.260   3.036  0.1298  0.1949  0.0326
 7349W        W23243  15.075  15.212  13.114  0.1101 -0.2280  0.1372
 7350W        W23244   8.586   8.861   3.053  0.1923  0.0524  0.0049
 7351W        W23245   7.528  14.207  11.545 -0.0302  0.0774 -0.1672
 7352W        W23246  12.002  16.607   1.663  0.0088  0.1207 -0.1467
 7353W        W23247  11.255   9.804   4.624  0.1249  0.1267  0.2259
 7354W        W23248   1.360   2.117  12.923  0.1462 -0.3525  0.1354
 7355W        W23249   8.192  17.424  15.884 -0.0933 -0.4979  0.3300
 7356W        W23250   2.234   6.873  15.740  0.2966  0.5438 -0.1069
 7357W        W23251  12.398   0.799  14.329  0.0938 -0.1515  0.1555
 7358W        W23252   4.794  13.016  14.786  0.0386 -0.2702  0.1755
 7359W        W23253  17.044   7.545  12.541 -0.2439 -0.2280  0.0728
 7360W        W23254  17.225  11.156   4.910  0.0633 -0.1503 -0.3785
 7361W        W23255   8.524   2.825  13.111  0.0672 -0.0234  0.1707
 7362W        W23256  14.654   8.625   2.844  0.1044 -0.2056 -0.1121
 7363W        W23257   0.970  10.935   6.124  0.0788  0.1573 -0.1936
 7364W        W23258  11.703  15.554   5.784  0.1737 -0.1238 -0.2050
 7365W        W23259   9.077   6.593   3.312  0.2380  0.0588  0.1493
 7366W        W23260   8.877  10.342   5.480  0.1750 -0.1895 -0.1461
 7367W        W23261  12.616  12.223   2.457 -0.3633 -0.0416  0.0688
 7368W        W23262  12.473  14.692   3.088  0.1569 -0.1652 -0.1497
 7369W        W23263   7.926   0.710   5.538 -0.0222  0.4338  0.2812
 7370W        W23264   3.219  14.153   0.301 -0.1546  0.1366 -0.0144
 7371W        W23265   8.644  17.754   5.114 -0.0102  0.1134  0.0239
 7372W        W23266  15.953  10.807   4.634  0.3009 -0.0929  0.1574
 7373W        W23267   4.144  13.538  13.236 -0.1190  0.1218 -0.3403
 7374W        W23268   0.905   0.155   1.565 -0.0638 -0.1805 -0.1103
 7375W        W23269   2.627   9.008  12.174  0.0605 -0.1733  0.2361
 7376W        W23270   8.087   3.715   6.497 -0.0617  0.1387  0.2345
 7377W        W23271  15.725  16.918  11.418 -0.2065  0.2019  0.0422
 7378W        W23272  13.917  11.299   1.510 -0.1641  0.1254 -0.2829
 7379W        W23273  10.026   2.689   1.522 -0.4850  0.0291 -0.0439
 7380W        W23274   8.900   9.848   0.851 -0.3113 -0.0898  0.1420
 7381W        W23275   5.978   3.850  16.236 -0.0682 -0.2846 -0.0204
 7382W        W23276   4.018   0.960   0.985 -0.1225 -0.1909 -0.1422
 7383W        W23277   5.746  13.278  15.826 -0.3896  0.0416  0.2151
 7384W        W23278   8.318   2.404   3.900 -0.1792  0.2028  0.0191
 7385W        W23279   5.374   9.114  14.928 -0.2108  0.0293  0.0736
 7386W        W23280   4.704   5.892  16.156  0.0214  0.2702  0.0593
 7387W        W23281   2.134  13.856   5.175 -0.2403 -0.1324 -0.2117
 7388W        W23282   4.718   2.421   2.222  0.1357 -0.1206  0.1739
 7389W        W23283   0.896   0.510   2.931 -0.0480  0.1483 -0.1281
 7390W        W23284   6.922  17.224  13.182 -0.4270 -0.0073  0.0648
 7391W        W23285   8.865  13.220  13.202  0.1767  0.1883  0.0064
 7392W        W23286  18.017  13.506   5.309  0.0616 -0.1119 -0.3483
 7393W        W23287   4.847   5.013  10.619  0.0454 -0.1525 -0.0857
 7394W        W23288   5.700  13.449   1.865  0.0703  0.0624  0.1264
 7395W        W23289  13.486  14.829  11.897 -0.1220 -0.3241  0.2164
 7396W        W23290  15.973   7.608   1.222  0.2269  0.2547 -0.2200
 7397W        W23291   1.518  11.209  12.124  0.1592 -0.1149  0.0403
 7398W        W23292   4.246   0.372   2.325 -0.2031  0.0823  0.1563
 7399W        W23293   1.010   6.764   5.486  0.1041 -0.0847 -0.2653
 7400W        W23294   0.403  14.942  15.333 -0.2057 -0.3458  0.1257
 7401W        W23295   8.077   5.697   1.355  0.2256 -0.2240 -0.6176
 7402W        W23296   2.942   0.105  12.308 -0.3773  0.3622 -0.2774
 7403W        W23297  12.493  15.740   5.164 -0.0184 -0.0155  0.1659
 7404W        W23298   3.759   4.939  15.451 -0.1619 -0.1219  0.0407
 7405W        W23299   0.747   6.504   2.368 -0.2096  0.1078  0.0004
 7406W        W23300  13.120  13.298   4.880 -0.0431  0.1886 -0.0198
 7407W        W23301  17.169   5.752   1.052 -0.1134 -0.0141 -0.0036
 7408W        W23302   6.212  16.347  15.288  0.4487  0.1600  0.1043
 7409W        W23303  14.570  14.591   5.012  0.2173  0.3063 -0.1721
 7410W        W23304  14.494  12.036  13.710  0.1667  0.1486  0.1914
 7411W        W23305  11.627   1.026  14.343  0.0110  0.2841  0.2624
 7412W        W23306   3.126   0.959  14.121 -0.0832 -0.0316 -0.0429
 7413W        W23307  18.050   2.357   3.699 -0.1698 -0.1373 -0.1365
 7414W        W23308   8.899   9.321   4.903  0.0608 -0.0962  0.2692
 7415W        W23309  13.299  10.640   5.381 -0.2614 -0.3060  0.3700
 7416W        W23310   0.483   9.484  11.965 -0.1098  0.0327 -0.0892
 7417W        W23311   2.401   1.787  13.493 -0.1675  0.2120  0.0323
 7418W        W23312  11.902  13.023   2.305 -0.0697 -0.2254  0.0008
 7419W        W23313  15.295   9.989   4.899 -0.0693  0.0996 -0.1845
 7420W        W23314  16.793   5.267   0.572 -0.1065  0.3519 -0.1982
 7421W        W23315   5.757   1.659   0.156  0.0274 -0.0445  0.2673
 7422W        W23316  13.329   8.315  11.316 -0.2270 -0.2290  0.1141
 7423W        W23317  12.315  15.473   1.048 -0.0061 -0.1958 -0.3594
 7424W        W23318   3.587   5.984   4.774  0.0482  0.1560 -0.3251
 7425W        W23319   0.472   0.607   3.088  0.2400 -0.2403  0.1294
 7426W        W23320  15.276   9.959   1.104 -0.3738  0.4196  0.1762
 7427W        W23321   7.090  10.428  13.490  0.2851 -0.1072 -0.1289
 7428W        W23322  13.976   4.003   1.852  0.4511  0.0376  0.0051
 7429W        W23323  14.121   1.311   6.077  0.0477 -0.1896 -0.2313
 7430W        W23324  15.261   8.005  12.799 -0.1387  0.0515 -0.2063
 7431W        W23325   7.007   3.482  11.077  0.0807  0.1680 -0.2950
 7432W        W23326  13.795  14.037  11.694 -0.0354 -0.1220 -0.0456
 7433W        W23327   6.104  15.411  13.474  0.1663 -0.2575  0.0205
 7434W        W23328  11.245  11.878  11.142  0.1271  0.2942  0.1013
 7435W        W23329  15.896   2.665   3.868  0.4430 -0.0973  0.4715
 7436W        W23330  11.705   2.659   2.910 -0.1784 -0.1226  0.3127
 7437W        W23331   6.897  14.649  15.646 -0.2341 -0.1023 -0.1613
 7438W        W23332   0.418   2.827  12.126  0.5339 -0.1333 -0.1088
 7439W        W23333  12.331  17.726   4.359  0.0263 -0.3777 -0.0328
 7440W        W23334  12.826   4.624   0.507  0.2128 -0.0069  0.3757
 7441W        W23335  17.635   2.348  13.395 -0.0505  0.2354 -0.2218
 7442W        W23336   3.255   7.521   1.741  0.0063  0.5454  0.1248
 7443W        W23337  13.823   0.601   0.387  0.0808 -0.0883 -0.0826
 7444W        W23338   1.630  17.807  15.463  0.0154  0.0023  0.1321
 7445W        W23339  14.918  10.987   5.639  0.1047  0.1570  0.1750
 7446W        W23340   0.878   3.529   2.982  0.0686  0.2663  0.2701
 7447W        W23341   4.405  16.938   3.102  0.1890 -0.0554  0.1113
 7448W        W23342   5.550   5.822   3.831 -0.2071 -0.2085 -0.1115
 7449W        W23343  12.822   9.825   0.178 -0.2130 -0.1189  0.4508
 7450W        W23344   1.431   0.776  11.394  0.1613  0.1597  0.2101
 7451W        W23345   7.403  14.504   4.998 -0.1080 -0.0807  0.4048
 7452W        W23346   4.840   2.016  14.189  0.4474  0.0970  0.0077
 7453W        W23347   5.064   9.938   0.678 -0.0251  0.3213  0.1033
 7454W        W23348   5.180   2.677   0.800  0.2499  0.0666 -0.0074
 7455W        W23349  18.015  16.494  14.861 -0.1234 -0.3013  0.3838
 7456W        W23350   1.915   3.894  11.463  0.0893  0.1551 -0.0188
 7457W        W23351   5.269  13.387  15.935  0.0504  0.3036 -0.3119
 7458W        W23352  17.179   5.515   4.073 -0.1800  0.3129  0.2275
 7459W        W23353   2.247   9.674  12.722  0.1480  0.1406  0.4768
 7460W        W23354   0.280   3.435  11.389 -0.2700 -0.3216  0.0842
 7461W        W23355   5.162   2.923   6.310  0.0348 -0.1051  0.1657
 7462W        W23356   2.345   0.611   2.179 -0.0896 -0.1779  0.0913
 7463W        W23357   7.819   5.247  12.884 -0.0743  0.0645 -0.0789
 7464W        W23358  16.088  18.044  16.205  0.1988  0.1952 -0.1110
 7465W        W23359   7.469  12.939   0.182 -0.4745 -0.2275  0.1188
 7466W        W23360   1.486   9.435   4.728 -0.1940 -0.0595  0.0458
 7467W        W23361   2.993   2.079  15.831  0.0583 -0.0392 -0.2064
 7468W        W23362   4.550  15.829  14.965 -0.2552 -0.1932  0.4236
 7469W        W23363   3.890   7.629  12.543  0.1677 -0.0840  0.0128
 7470W        W23364   2.338   6.093   0.370 -0.0169  0.0261  0.0660
 7471W        W23365   3.677   0.875  12.584 -0.3315 -0.1032 -0.2803
 7472W        W23366   3.133  10.585   5.797  0.2922  0.0613  0.0675
 7473W        W23367   7.568  10.432  13.224 -0.0920  0.1607 -0.1053
 7474W        W23368   3.867   6.482   0.570  0.1295 -0.2383  0.0258
 7475W        W23369   2.370  11.283  11.602  0.1190  0.2849 -0.1687
 7476W        W23370   5.712  12.499   4.490  0.2251 -0.0870 -0.3662
 7477W        W23371   9.006  12.713  13.810  0.2802  0.2111 -0.0727
 7478W        W23372   2.240   4.648   0.330  0.0788  0.3595 -0.2362
 7479W        W23373   0.952   8.135   5.350  0.3461  0.0451 -0.0864
 7480W        W23374   2.718   4.929   0.411  0.0712  0.0525  0.1422
 7481W        W23375  13.764   1.535  11.636  0.0524  0.1784 -0.2147
 7482W        W23376  14.262  11.015   2.368 -0.1464  0.1769 -0.0568
 7483W        W23377  12.940  14.193  11.841  0.0147 -0.0605  0.0864
 7484W        W23378  17.950  15.148  13.126  0.1820 -0.0690  0.1865
 7485W        W23379   9.486   3.463   5.357 -0.3827  0.0506 -0.0968
 7486W        W23380   6.574   7.023  10.921  0.2601 -0.1188 -0.1096
 7487W        W23381   0.799  13.675   0.951 -0.0629 -0.0357  0.0267
 7488W        W23382   0.023  14.763   1.906 -0.2073 -0.2321 -0.2931
 7489W        W23383   8.794   9.586  12.036 -0.0203  0.0907  0.1238
 7490W        W23384  12.634   1.156   4.367  0.1209  0.1567 -0.1118
 7491W        W23385   8.096   5.112   3.986  0.2437  0.1656 -0.1331
 7492W        W23386  15.582   3.508   2.425 -0.0439  0.0585 -0.3583
 7493W        W23387  14.886   6.033   2.428  0.3600 -0.1527  0.1418
 7494W        W23388   7.109  15.936   1.512 -0.1379 -0.0741  0.1451
 7495W        W23389   4.227  13.528   5.527  0.2911 -0.1673  0.0965
 7496W        W23390  16.365   8.713  12.443 -0.0264 -0.1483  0.2194
 7497W        W23391  16.165   8.371  12.139 -0.1944 -0.1761 -0.3667
 7498W        W23392  12.641  15.665   1.466 -0.0493 -0.1048  0.0146
 7499W        W23393  15.536  17.048   2.274  0.1705  0.0470 -0.2263
 7500W        W23394   5.281  17.956  15.636 -0.0331 -0.0471  0.0466
 7501W        W23395  13.964   3.315   2.813 -0.0215 -0.2405 -0.1053
 7502W        W23396   8.037  12.151  11.601 -0.1171 -0.2425 -0.3555
 7503W        W23397   2.568   9.467   0.465 -0.0850  0.0065 -0.0009
 7504W        W23398  14.389   7.474  13.471  0.0564 -0.2512 -0.1554
 7505W        W23399   5.788   1.804  15.245 -0.0381 -0.0359  0.0599
 7506W        W23400   6.100   9.026   0.998  0.0631 -0.4204  0.1255
 7507W        W23401   2.912  14.004  12.543  0.1158 -0.1838 -0.3369
 7508W        W23402  16.294  12.074  15.606  0.1933 -0.0527  0.2025
 7509W        W23403  12.404   3.457   3.462 -0.1788  0.3977  0.0005
 7510W        W23404   0.958   1.875   4.276  0.0084 -0.0873 -0.1788
 7511W        W23405   6.013  17.441  11.966 -0.0427 -0.1197 -0.2960
 7512W        W23406  10.796   2.879  12.085 -0.0435  0.3713 -0.1741
 7513W        W23407   7.026  15.433  16.031  0.0331  0.3193 -0.1674
 7514W        W23408   5.626   2.680   4.132 -0.0145 -0.1504  0.1841
 7515W        W23409   8.698   6.223   9.931 -0.1840  0.0447 -0.1130
 7516W        W23410  11.356   7.244   0.851 -0.0331 -0.2654 -0.0036
 7517W        W23411  10.254   1.548  11.840 -0.1868  0.1062 -0.1277
 7518W        W23412  13.717   7.899   4.445 -0.2886  0.3766 -0.1598
 7519W        W23413   9.871   0.453  11.550  0.0135  0.1198  0.0508
 7520W        W23414  14.206   2.937  15.322  0.2510 -0.0226  0.1246
 7521W        W23415   4.857   7.483  10.439  0.1954 -0.5348 -0.2196
 7522W        W23416  10.428  10.595   4.127  0.0536 -0.0565 -0.1852
 7523W        W23417  13.005  14.808  12.062 -0.1134  0.1353 -0.1036
 7524W        W23418   6.762   7.560   0.692  0.0367 -0.0345 -0.1008
 7525W        W23419  12.620   7.944   1.513 -0.0358 -0.1828 -0.0449
 7526W        W23420   3.505   3.771  14.931 -0.0318  0.1023 -0.1305
 7527W        W23421   5.702   9.897  14.997  0.2344 -0.0399 -0.0006
 7528W        W23422   2.354  15.513  12.646 -0.0865  0.1416 -0.0161
 7529W        W23423  10.654   1.292  16.186 -0.0545 -0.2365  0.0938
 7530W        W23424   4.427   9.357  10.630 -0.0138 -0.1533 -0.2520
 7531W        W23425   9.922   8.078   4.123 -0.1849 -0.0350 -0.3128
 7532W        W23426  16.727   4.198  12.567 -0.3319 -0.3146 -0.1525
 7533W        W23427   2.233   1.650   3.214  0.0808 -0.0988  0.0293
 7534W        W23428   6.155   1.428   1.450  0.1622 -0.0642 -0.1087
 7535W        W23429  12.147  14.861   3.574 -0.2977 -0.2573 -0.0491
 7536W        W23430  11.886   3.864   1.326 -0.4321  0.0673  0.1248
 7537W        W23431  13.255  12.576  15.129 -0.1130 -0.1236  0.1775
 7538W        W23432   9.941   2.410   1.092  0.0922 -0.1472  0.1773
 7539W        W23433   1.029  13.220   1.128 -0.1301 -0.0993  0.0196
 7540W        W23434   2.742   8.846   4.306 -0.0186  0.1547 -0.1149
 7541W        W23435  17.476   1.531   1.024  0.3727  0.1021  0.0594
 7542W        W23436   2.946   1.039   5.844  0.0344  0.2308 -0.4029
 7543W        W23437   3.352   2.350   1.994 -0.0292  0.1997 -0.1693
 7544W        W23438   4.925  13.681  16.121 -0.2130  0.0417 -0.2352
 7545W        W23439   3.596   4.772  14.504 -0.1606  0.1863 -0.0912
 7546W        W23440  11.126   0.521   3.547 -0.2130  0.3810  0.1353
 7547W        W23441  12.825   9.995   0.724 -0.1984 -0.2524 -0.1209
 7548W        W23442   4.233   8.425  16.378 -0.2667 -0.1623 -0.2596
 7549W        W23443  16.771   7.150   4.354  0.1008 -0.0430  0.1587
 7550W        W23444  17.697   4.337  13.377 -0.3520  0.0235  0.3036
 7551W        W23445   3.656   4.851   5.883  0.2191 -0.0005 -0.1201
 7552W        W23446   0.940  11.580  16.104  0.1902 -0.0879 -0.0126
 7553W        W23447  11.131  13.938   3.831 -0.1911  0.0722 -0.0077
 7554W        W23448  11.196  13.801   5.231  0.0721  0.0569  0.0472
 7555W        W23449   8.804   5.359  11.605  0.1700  0.3370 -0.0133
 7556W        W23450   5.811  14.786   3.099 -0.0021 -0.1468 -0.1437
 7557W        W23451  17.224   3.816  16.105 -0.0515 -0.1540 -0.1524
 7558W        W23452  16.189   9.584   6.868  0.1615  0.0211  0.1137
 7559W        W23453   8.769  11.529   2.971  0.0480  0.1265  0.2190
 7560W        W23454  14.684  10.470   4.422 -0.0713 -0.0581 -0.2043
 7561W        W23455  12.360  10.248   4.037  0.0109  0.1192 -0.1268
 7562W        W23456   7.873  17.531   3.413 -0.1269  0.1792  0.1141
 7563W        W23457   8.318   3.341  13.221 -0.0136  0.1443  0.0569
 7564W        W23458  10.601  10.422   1.137 -0.0304  0.1826 -0.1875
 7565W        W23459   5.112  16.654  12.814 -0.0596 -0.1322  0.0824
 7566W        W23460   8.413   1.977  12.061 -0.1865  0.0788  0.2134
 7567W        W23461   6.009   5.773   2.277  0.1271  0.1457 -0.1188
 7568W        W23462  14.206  11.315  13.102  0.2358 -0.0754  0.4900
 7569W        W23463   5.040  14.166  15.438  0.0439  0.0756  0.0992
 7570W        W23464   8.606  13.978  16.202 -0.3263  0.2216  0.0769
 7571W        W23465   2.540   1.534   2.817 -0.4272  0.0664  0.0229
 7572W        W23466   7.783   6.110   0.408 -0.2166  0.0644  0.3099
 7573W        W23467   1.816  16.188   5.571  0.0997  0.0967  0.1420
 7574W        W23468  13.430   9.074   1.731  0.1445  0.3343  0.4639
 7575W        W23469   6.274   5.415  12.999  0.0618  0.1258  0.1340
 7576W        W23470  16.226  17.165  13.979 -0.2272 -0.0638  0.0500
 7577W        W23471   8.609  10.075  13.874 -0.1544 -0.1293 -0.1024
 7578W        W23472   4.824   0.465  13.446  0.0840 -0.1669  0.0783
 7579W        W23473  14.375   6.969   1.851 -0.0186  0.1663 -0.2196
 7580W        W23474  16.134  12.223  11.952  0.0705  0.1199  0.3398
 7581W        W23475  13.655   7.704   1.818  0.0553 -0.1232  0.0132
 7582W        W23476  16.261  16.299  15.832 -0.1412  0.3665  0.2504
 7583W        W23477  14.148   1.661   4.367  0.0496 -0.0591  0.1752
 7584W        W23478   2.513   8.910   0.460  0.0449 -0.0005  0.3203
 7585W        W23479  17.893   2.336  14.401 -0.2730 -0.1026 -0.3184
 7586W        W23480  14.413   0.215  14.101 -0.1030 -0.1506 -0.1731
 7587W        W23481  12.487  13.481   3.955 -0.1493 -0.1050 -0.0594
 7588W        W23482  10.030   2.121  12.427  0.3134 -0.1074 -0.1587
 7589W        W23483  10.847  12.590  14.344  0.0453  0.0025  0.2784
 7590W        W23484  10.526  15.332   0.065  0.1312  0.1303  0.1505
 7591W        W23485  18.042  17.612  13.808  0.3213 -0.0829  0.0625
 7592W        W23486  12.009   6.235  10.908 -0.0050  0.1758 -0.0364
 7593W        W23487   6.418   9.455   3.030  0.1403  0.0982  0.1661
 7594W        W23488  13.600  16.569  16.165  0.0846  0.3233 -0.0320
 7595W        W23489  17.076  14.725   5.057  0.0741  0.0046 -0.1971
 7596W        W23490  16.287  11.944   3.148 -0.1783 -0.1338  0.0422
 7597W        W23491  16.481  12.501   4.914 -0.0043 -0.0143  0.3607
 7598W        W23492   1.752  15.048  14.146  0.2259 -0.2557  0.1876
 7599W        W23493  15.642  15.403  12.237 -0.1449 -0.2215 -0.4837
 7600W        W23494   9.918  16.239   2.229 -0.1275 -0.2415 -0.0279
 7601W        W23495   7.510   8.596  12.622  0.1999 -0.0170 -0.1140
 7602W        W23496  16.259  16.784   4.930 -0.0735  0.2862  0.0527
 7603W        W23497   8.876  18.044   3.219 -0.0547 -0.1748 -0.0460
 7604W        W23498   9.201   7.489  14.712 -0.1501  0.0729  0.1345
 7605W        W23499  14.804   2.079  12.982 -0.2457 -0.1056  0.0343
 7606W        W23500   6.238   6.543  15.966  0.0228  0.1160  0.1853
 7607W        W23501  12.631  14.729   2.237  0.2360  0.2625  0.1746
 7608W        W23502  11.445  16.311  15.921 -0.1257 -0.0832  0.2170
 7609W        W23503  14.166   6.096   2.325  0.1300  0.3942  0.0084
 7610W        W23504  12.269  13.547   0.850 -0.1138 -0.1138  0.0344
 7611W        W23505   9.334   1.181  11.630  0.0542 -0.1311 -0.3556
 7612W        W23506   7.211  17.298  12.699  0.1582 -0.0213  0.1023
 7613W        W23507   6.160  16.670   0.724 -0.0842 -0.1789  0.0281
 7614W        W23508   8.136  15.133   4.575  0.1417  0.0215 -0.0710
 7615W        W23509  14.891   7.624   4.042 -0.0566 -0.0534 -0.2636
 7616W        W23510   4.761  10.286  14.989  0.2091 -0.1109  0.1989
 7617W        W23511   3.146   0.594   0.920  0.0053  0.2699  0.0480
 7618W        W23512   3.244   2.440   4.076  0.4498 -0.0253  0.1565
 7619W        W23513  17.955   0.990  14.720 -0.0373  0.2189  0.2289
 7620W        W23514  15.381   9.974   4.379 -0.0298  0.2511  0.0244
 7621W        W23515  10.770   4.184  13.952 -0.0157  0.2389 -0.2079
 7622W        W23516  17.515  14.054  15.879 -0.2448  0.4458 -0.0670
 7623W        W23517   3.577  17.791  14.755 -0.0027 -0.0111  0.0932
 7624W        W23518  11.446   4.300   3.710  0.1236 -0.1251 -0.2697
 7625W        W23519   5.657  15.625  10.411 -0.0002  0.2811  0.0208
 7626W        W23520   7.927   1.187   4.930  0.2414  0.0350 -0.0129
 7627W        W23521   6.370  15.586  14.773  0.2647  0.4021 -0.4230
 7628W        W23522  16.943  10.446   3.787  0.1711 -0.0360 -0.0617
 7629W        W23523   2.607   3.697   4.221 -0.0590 -0.0359 -0.3518
 7630W        W23524  11.344   1.896   3.544  0.3209 -0.0368 -0.1127
 7631W        W23525   6.132   5.413   5.566 -0.3159 -0.0307 -0.2204
 7632W        W23526  13.702  16.040  12.610 -0.1806 -0.0894  0.0713
 7633W        W23527   8.579   0.486  12.208 -0.0921 -0.3144 -0.0175
 7634W        W23528   2.909   4.630  15.364  0.0388  0.1383  0.1836
 7635W        W23529   8.114  10.640   1.913 -0.1963  0.0409 -0.1383
 7636W        W23530  16.539   3.178  15.117 -0.3357  0.0718 -0.0272
 7637W        W23531   1.354  12.297  15.538  0.0887 -0.0292 -0.1513
 7638W        W23532  10.758  12.217   5.398 -0.1322 -0.2229 -0.3439
 7639W        W23533   3.361  14.138   2.346  0.0785 -0.2330  0.0981
 7640W        W23534   8.856   5.801   1.466 -0.2345 -0.1624  0.0395
 7641W        W23535   0.883  17.054   5.932  0.3067  0.1484 -0.2671
 7642W        W23536   0.505   8.346  14.038  0.2792  0.1069  0.1820
 7643W        W23537   4.267  17.197  12.831 -0.1045  0.1144  0.3125
 7644W        W23538   8.207  10.189  14.990 -0.1031 -0.0196  0.2033
 7645W        W23539   4.559   5.254   1.648 -0.0035  0.3045  0.0490
 7646W        W23540  12.750   1.455   0.296 -0.0548 -0.2773 -0.0091
 7647W        W23541  14.867  17.514   3.895  0.1545 -0.1855  0.4401
 7648W        W23542   5.864  16.983  14.429  0.0040  0.1285 -0.0948
 7649W        W23543  14.854   4.452   2.861 -0.2156 -0.0307 -0.1210
 7650W        W23544  17.802   1.094   4.654  0.1370 -0.3155  0.2051
 7651W        W23545  13.711  17.377  16.154 -0.2424 -0.1500 -0.0398
 7652W        W23546   4.266   4.246  15.085 -0.0474 -0.1663 -0.1138
 7653W        W23547   8.846   0.643  14.252  0.2156  0.2748  0.1838
 7654W        W23548   1.369  18.148   0.519  0.0329 -0.1166  0.4107
 7655W        W23549   3.409   4.340  13.684 -0.1415 -0.2097  0.1751
 7656W        W23550   4.115  11.473  14.287 -0.0453 -0.1229 -0.1662
 7657W        W23551  11.589   2.733  15.254  0.1755 -0.1450 -0.2871
 7658W        W23552   0.011  13.447   2.533 -0.0018 -0.0583 -0.2877
 7659W        W23553   7.267   9.385  15.372  0.1575  0.0197 -0.0323
 7660W        W23554   8.150  16.927   2.840 -0.1423 -0.0373 -0.2197
 7661W        W23555  15.700   2.046   1.692  0.2842  0.1899 -0.2303
 7662W        W23556   8.531   1.732   5.094 -0.3069 -0.0805 -0.1082
 7663W        W23557  11.047  15.114   5.709 -0.3181 -0.0885  0.1870
 7664W        W23558   9.538  17.819   1.727  0.1086  0.0899  0.1288
 7665W        W23559   1.919   5.328   1.453  0.0287  0.0981  0.1387
 7666W        W23560   1.489   6.984   2.478 -0.1726  0.1309  0.0368
 7667W        W23561   6.893  10.094   2.077 -0.1418  0.0520  0.0571
 7668W        W23562  16.243  14.691  12.554 -0.1252 -0.2599  0.2499
 7669W        W23563   5.625   6.322  11.644 -0.1606  0.2562 -0.2745
 7670W        W23564  13.786   9.174   4.471 -0.3817  0.2106  0.0546
 7671W        W23565   1.810   3.440   4.853  0.4316 -0.0809  0.0547
 7672W        W23566   2.201  11.151   3.254  0.0273  0.3858  0.0333
 7673W        W23567   9.434  14.463   4.609  0.1633 -0.4956  0.0599
 7674W        W23568   1.672  12.800  12.309  0.2339  0.2054 -0.0894
 7675W        W23569   8.898  17.957  14.126  0.1353  0.0248  0.0395
 7676W        W23570   2.407  10.611   3.441  0.0349 -0.1376 -0.0949
 7677W        W23571  15.789  16.819   2.738  0.0076  0.1261 -0.3048
 7678W        W23572  13.570  12.595  12.765  0.0830 -0.3214 -0.0453
 7679W        W23573  11.062  17.173   0.344  0.0071 -0.0008  0.1269
 7680W        W23574  13.925   9.599  11.806  0.0169  0.0577  0.1351
 7681W        W23575   3.947   1.716   3.900  0.2165 -0.2625  0.0448
 7682W        W23576   3.988  11.423  11.101 -0.3944  0.3391  0.3581
 7683W        W23577  12.169   2.537   2.773  0.3959 -0.1887 -0.2162
 7684W        W23578  11.272   3.017   2.178 -0.1983 -0.0193  0.0728
 7685W        W23579  16.621   2.714   5.520  0.3915 -0.0702 -0.0303
 7686W        W23580   0.813   6.835  16.398 -0.1384 -0.0299  0.2240
 7687W        W23581  14.813   3.121   0.882  0.0001  0.0444 -0.1594
 7688W        W23582   5.614   7.302  15.532 -0.2497 -0.3024  0.0859
 7689W        W23583   3.290   1.753   1.901 -0.0779 -0.1557  0.0428
 7690W        W23584  14.087   8.796   5.549  0.0494 -0.2952  0.1831
 7691W        W23585   2.263  11.679   5.372  0.1023 -0.2312 -0.1764
 7692W        W23586   3.098   5.206  13.361  0.1184 -0.1685  0.0334
 7693W        W23587  13.677  15.096  12.596 -0.1466  0.1838  0.0771
 7694W        W23588   8.179   7.738  12.930  0.3415  0.0455  0.0003
 7695W        W23589   7.134   2.040   5.917  0.0328  0.3058 -0.3656
 7696W        W23590  14.539   5.908   2.093 -0.0246 -0.1973  0.0815
 7697W        W23591  14.743  16.971   3.848  0.1302  0.0927 -0.1613
 7698W        W23592   6.880  14.001  14.245 -0.1456 -0.1824 -0.1129
 7699W        W23593   5.417  10.307  12.877 -0.3718 -0.1136  0.1358
 7700W        W23594  12.808  13.421   1.942 -0.3475 -0.1891  0.0204
 7701W        W23595   3.008   2.469  12.145 -0.2217  0.0392  0.1862
 7702W        W23596   7.834   5.854  12.150 -0.0880 -0.1880  0.0556
 7703W        W23597  12.287  14.631  15.973  0.0148 -0.0255  0.2052
 7704W        W23598   5.605  14.175  15.914 -0.0419  0.0450 -0.2442
 7705W        W23599   6.936  10.862   3.342  0.3273 -0.0270  0.0632
 7706W        W23600   0.591   2.957  15.460 -0.1520  0.0507 -0.2400
 7707W        W23601   3.480  15.031   0.702  0.0972 -0.1439 -0.1169
 7708W        W23602  18.225  11.096  15.735 -0.0656 -0.1199 -0.0056
 7709W        W23603   3.611   0.072  15.514 -0.3401 -0.0173  0.1719
 7710W        W23604  10.900  14.052  16.225  0.2378  0.0690  0.0378
 7711W        W23605   4.354   7.121   2.190 -0.0484 -0.0906  0.1205
 7712W        W23606   1.068   0.303  15.717  0.0630 -0.0203 -0.0922
 7713W        W23607   9.679   1.359   2.807  0.1009  0.3133 -0.0573
 7714W        W23608   6.632  17.612  16.403 -0.0212 -0.4354 -0.1467
 7715W        W23609   9.444   6.911   3.055 -0.2069 -0.1360  0.1456
 7716W        W23610   8.716  10.268   4.197 -0.0875 -0.0781 -0.3131
 7717W        W23611  10.864   9.191  13.584  0.1816  0.2129 -0.0791
 7718W        W23612  15.057  18.078   4.157 -0.1285  0.2913  0.1273
 7719W        W23613  12.415  16.648   2.209 -0.5995 -0.3000  0.0253
 7720W        W23614  13.932  14.741  15.828 -0.0939 -0.2238  0.2116
 7721W        W23615  14.806   4.596  15.076 -0.1703  0.0451 -0.0776
 7722W        W23616   2.161  11.031  12.018  0.2424 -0.0180 -0.0116
 7723W        W23617   9.656   1.457   0.915  0.0455  0.1682 -0.0047
 7724W        W23618   6.112   3.763  15.071 -0.1703  0.3171 -0.0782
 7725W        W23619  18.096   9.942   4.988  0.2978  0.0382  0.2132
 7726W        W23620  16.209   3.040  12.280 -0.1146 -0.3681 -0.1238
 7727W        W23621   9.322   3.085  13.751 -0.1485  0.5074  0.2274
 7728W        W23622   9.392   2.032   5.160 -0.0659  0.1014  0.3412
 7729W        W23623  17.312  11.348  16.188  0.0340 -0.0332  0.1423
 7730W        W23624  13.451  16.256   2.519  0.2103 -0.3225 -0.0370
 7731W        W23625   9.013  16.946  12.313  0.0448 -0.1819  0.1421
 7732W        W23626  17.515  10.555   0.672 -0.0564 -0.0734 -0.1962
 7733W        W23627   9.823  17.895   5.884 -0.0687 -0.2817 -0.0881
 7734W        W23628   5.270   6.730  12.717  0.0789 -0.0370  0.0180
 7735W        W23629  11.865   3.061   6.333  0.0734 -0.3851 -0.0473
 7736W        W23630  17.634   0.438   3.345  0.3909 -0.2263  0.0498
 7737W        W23631   8.366   6.187  13.993 -0.1853 -0.1742 -0.1326
 7738W        W23632  11.504   4.056   3.199 -0.1979 -0.1136  0.3045
 7739W        W23633  14.604   4.657  12.876  0.2834  0.4235 -0.0399
 7740W        W23634   2.276  17.033  14.867 -0.0321 -0.1368 -0.3499
 7741W        W23635   0.063  15.823   5.633 -0.1073  0.1244 -0.0798
 7742W        W23636  10.581   3.051  13.350 -0.3136  0.2562  0.3365
 7743W        W23637  17.234  12.448   3.022  0.1379 -0.0214 -0.0856
 7744W        W23638  15.700   2.545   3.392  0.1188 -0.1957 -0.4570
 7745W        W23639  14.774  18.177  13.188 -0.2958 -0.1207 -0.1025
 7746W        W23640  10.523   7.353   1.314 -0.2419 -0.4995  0.0027
 7747W        W23641  15.365   7.995   4.174  0.2520 -0.0221 -0.1375
 7748W        W23642  12.207  13.133   1.129 -0.1103 -0.1535  0.2385
 7749W        W23643   8.221   2.155   4.343  0.1821  0.0114 -0.0501
 7750W        W23644  11.078  10.814  15.345  0.4400 -0.2633  0.0950
 7751W        W23645  13.870   1.785   0.533  0.0718  0.0666 -0.1261
 7752W        W23646   4.593   8.841   1.128  0.1047  0.0196 -0.0994
 7753W        W23647  17.776  12.726   0.304  0.0499  0.1568  0.3024
 7754W        W23648   1.321   6.695  11.854 -0.0409  0.3092 -0.3336
 7755W        W23649   5.277   4.978  11.799 -0.0429  0.1663  0.3153
 7756W        W23650  15.285   4.326  15.199 -0.0211  0.2108  0.0757
 7757W        W23651   8.806   7.289   1.123  0.1695 -0.0636  0.1567
 7758W        W23652   8.808   8.247   0.904 -0.2563 -0.0886  0.1346
 7759W        W23653   6.990   3.787   4.825 -0.1313  0.0710 -0.0947
 7760W        W23654   6.837   8.586   2.574 -0.2917 -0.0506 -0.0440
 7761W        W23655  16.430   0.953   4.446 -0.5194  0.1211 -0.1902
 7762W        W23656   8.954   1.100  12.009 -0.0272 -0.1483 -0.1765
 7763W        W23657   4.323   6.650  16.288 -0.0332  0.2169  0.1967
 7764W        W23658   0.662   9.528  15.097 -0.0961 -0.0875  0.3455
 7765W        W23659   6.604  10.488  10.465 -0.0431 -0.3363  0.1121
 7766W        W23660  16.348   7.684   3.830 -0.0844  0.1285 -0.0754
 7767W        W23661   4.635   6.286   1.090 -0.1879 -0.0580 -0.1016
 7768W        W23662   9.424  16.854  13.120  0.3284 -0.0315  0.0856
 7769W        W23663  11.297  10.315  13.507 -0.1546 -0.1923 -0.2883
 7770W        W23664  16.365   7.261   1.158  0.2293 -0.4346 -0.0602
 7771W        W23665  14.770   0.438  13.815 -0.2012 -0.0838 -0.0203
 7772W        W23666   1.290   9.285  14.665  0.0671  0.4098  0.1383
 7773W        W23667  14.871  11.573   0.955 -0.2223 -0.1449  0.0957
 7774W        W23668   0.864   8.649   1.966  0.0464 -0.0589 -0.0335
 7775W        W23669   3.273  10.778   0.272  0.1387  0.0705 -0.3094
 7776W        W23670  12.297  17.502   2.923 -0.1975  0.0310  0.2166
 7777W        W23671  13.941   9.342   0.544  0.3649  0.0808  0.0124
 7778W        W23672   1.077   2.698   3.614  0.0326  0.1277 -0.0570
 7779W        W23673   6.577   2.992  11.002  0.2408  0.0508  0.0483
 7780W        W23674  12.435  10.475   4.997  0.0843 -0.1175  0.3514
 7781W        W23675  12.007   4.093   0.575  0.2449  0.4352 -0.1312
 7782W        W23676   5.914  15.540   6.095 -0.2417  0.0876 -0.0324
 7783W        W23677  11.445   1.135  12.928 -0.0293 -0.4898 -0.1800
 7784W        W23678   6.413   5.002   2.862  0.4391  0.0421  0.0872
 7785W        W23679   3.435   8.467   5.709 -0.2034  0.1326  0.2247
 7786W        W23680   7.357   6.537  14.134 -0.1225 -0.4758  0.0650
 7787W        W23681   4.695  10.896  13.112  0.1779  0.2214 -0.3914
 7788W        W23682  14.892  17.702  16.441 -0.1906  0.2147 -0.8110
 7789W        W23683   5.597  17.887   3.992 -0.1281  0.2740  0.1222
 7790W        W23684  17.086   6.473   4.545  0.0921  0.0293 -0.0763
 7791W        W23685  16.152   8.969   4.257 -0.0840  0.1691  0.1436
 7792W        W23686  10.310  14.190   2.316 -0.0839  0.2785 -0.1624
 7793W        W23687   7.896   1.269  14.409  0.0677  0.3185  0.0131
 7794W        W23688   3.866  17.381   1.768 -0.0416  0.1561  0.1181
 7795W        W23689   4.068  18.025   0.968 -0.1949 -0.4142 -0.1782
 7796W        W23690  16.016  11.559   3.749  0.1573  0.1890 -0.1118
 7797W        W23691   9.043  16.168   2.583 -0.0242 -0.1647  0.0248
 7798W        W23692  18.177  13.386  14.072  0.3117  0.0788 -0.0011
 7799W        W23693   5.843  15.805   4.302  0.3834  0.0375 -0.1687
 7800W        W23694  17.922  14.939  15.895  0.1946  0.0838 -0.0179
 7801W        W23695   2.136   1.986  11.768 -0.3461 -0.0467 -0.1662
 7802W        W23696  12.976  15.474   5.161 -0.0851  0.0381 -0.2841
 7803W        W23697  13.773  17.927   5.683 -0.1005  0.1299  0.0473
 7804W        W23698  15.298  17.807   0.362  0.2158  0.1038  0.2225
 7805W        W23699  16.206  11.025   2.269 -0.1417 -0.0408  0.0121
 7806W        W23700  10.938   5.510  13.538 -0.0630  0.0874  0.0573
 7807W        W23701  13.575  12.933   3.382 -0.2172 -0.0629 -0.2001
 7808W        W23702  12.457   1.975   3.261 -0.3522 -0.3675 -0.1635
 7809W        W23703   0.471   0.924  13.549  0.1108 -0.1221  0.0904
 7810W        W23704  16.679  12.958  13.445 -0.1869  0.0466 -0.2288
 7811W        W23705  10.665  13.065  11.586  0.0003  0.3688  0.1003
 7812W        W23706  14.407  10.382   3.566  0.5843 -0.2175  0.0044
 7813W        W23707   7.409   3.797  12.617 -0.0094 -0.2360  0.0871
 7814W        W23708  18.078   3.366  13.687  0.3559  0.0415 -0.0164
 7815W        W23709  16.178  14.307  12.901 -0.1240 -0.1691  0.1362
 7816W        W23710  11.891  12.365  15.117 -0.2350 -0.2343  0.0633
 7817W        W23711  16.123   2.788  16.236 -0.0034 -0.3030 -0.1328
 7818W        W23712  17.725  15.494  11.607  0.1751  0.0630  0.0791
 7819W        W23713   2.406  11.755   4.378  0.1647 -0.1068  0.2005
 7820W        W23714  12.750  11.408   0.385  0.1868 -0.0987 -0.2662
 7821W        W23715  17.512  15.233  12.963 -0.2205  0.0462 -0.3107
 7822W        W23716  12.318   0.041  14.317  0.5988 -0.4439  0.3360
 7823W        W23717   6.362  14.728  14.417 -0.0887  0.1769 -0.4605
 7824W        W23718   3.704   5.381   1.333  0.0593 -0.2138 -0.1725
 7825W        W23719   2.799  17.753   0.627 -0.2488  0.0467 -0.1698
 7826W        W23720   7.896   4.730  15.263 -0.3545 -0.0206  0.1665
 7827W        W23721   5.611  13.867   5.650 -0.0801  0.0728 -0.3214
 7828W        W23722   4.983  13.869  11.916 -0.0329 -0.1196 -0.1471
 7829W        W23723   2.879   9.813   3.739 -0.0351 -0.0186  0.0908
 7830W        W23724   2.395   4.863   1.215 -0.1052  0.2319  0.1585
 7831W        W23725  10.848   6.971   3.788 -0.4985  0.1319  0.3336
 7832W        W23726   4.261   6.283   4.244 -0.0921  0.0811  0.1075
 7833W        W23727   7.712  16.051  13.853  0.0377  0.0258 -0.0726
 7834W        W23728  11.449   8.335  12.652  0.0873  0.0462  0.2166
 7835W        W23729   8.213  13.274  16.116  0.0554 -0.0068 -0.4644
 7836W        W23730   8.590   7.470   5.155 -0.1038  0.1900 -0.3262
 7837W        W23731   6.385   8.172   1.316  0.1298 -0.1481  0.1382
 7838W        W23732   8.957  11.834   3.409 -0.0863 -0.0646  0.1075
 7839W        W23733  13.180  10.518   5.872 -0.1901 -0.1297 -0.2902
 7840W        W23734   1.301  12.574   5.168 -0.1827  0.1386  0.3148
 7841W        W23735  12.284   5.224   2.931 -0.1283  0.2436  0.0485
 7842W        W23736  16.406  14.157   0.656  0.1353  0.1788 -0.0863
 7843W        W23737   6.452  10.838  11.954 -0.3045 -0.0613  0.1679
 7844W        W23738  13.229   4.512  13.965 -0.2284  0.0725 -0.3084
 7845W        W23739  13.289   0.036  14.594  0.2256  0.1312 -0.1394
 7846W        W23740   1.339   1.644  13.824  0.2435 -0.1594  0.2773
 7847W        W23741   2.598   4.779  11.930 -0.1380 -0.0077 -0.1988
 7848W        W23742   0.402   6.316  14.141 -0.1155  0.1045  0.2569
 7849W        W23743  14.815  16.327  15.188 -0.1657 -0.3441  0.2510
 7850W        W23744   7.888  17.642   0.439  0.1307 -0.4606 -0.2102
 7851W        W23745   3.912  14.429   5.473 -0.0334 -0.3583 -0.3339
 7852W        W23746  11.851   7.301   2.240  0.2034  0.3675 -0.2153
 7853W        W23747  16.866   8.025   5.453  0.3988  0.0913 -0.2001
 7854W        W23748   4.794   7.185   2.574 -0.0791 -0.2788  0.2823
 7855W        W23749  16.134  18.030   5.249 -0.2162  0.2052 -0.0841
 7856W        W23750   9.482   8.873  15.117  0.0489 -0.1349  0.0208
 7857W        W23751  18.230  16.156   4.455 -0.0257  0.2335  0.0169
 7858W        W23752  18.113   5.562  12.994  0.3434  0.1313 -0.2904
 7859W        W23753  15.941   9.103   1.157  0.1876  0.1979 -0.1860
 7860W        W23754  13.436  12.480   4.580 -0.1304  0.2582 -0.0320
 7861W        W23755   6.723   1.672   2.618 -0.1457 -0.4159  0.2645
 7862W        W23756  17.946  12.479  10.626  0.2468 -0.2248 -0.1584
 7863W        W23757   7.063   2.832  13.652 -0.0971 -0.0342  0.1021
 7864W        W23758   7.128   0.790   5.157 -0.1400  0.2097  0.1799
 7865W        W23759   7.847   0.596   4.084  0.0143  0.3288  0.2188
 7866W        W23760  10.178   7.930   0.220  0.1840  0.0550 -0.0628
 7867W        W23761   3.214   1.275   2.237 -0.0019 -0.0026 -0.0475
 7868W        W23762  11.611   6.913  10.164 -0.0481  0.3902 -0.0656
 7869W        W23763   0.850   2.005  11.686  0.1523  0.0697  0.0713
 7870W        W23764   2.841  11.425   1.241  0.0056 -0.1583  0.2950
 7871W        W23765   7.375   6.153   5.386  0.2613  0.1105  0.0934
 7872W        W23766   8.780   3.566   3.576 -0.4483  0.0744  0.0739
 7873W        W23767   7.555   5.972  13.266 -0.3724 -0.1020  0.3835
 7874W        W23768   7.094  14.205   1.911  0.2194  0.0818 -0.0713
 7875W        W23769   8.448  13.385  13.432 -0.2029  0.1632  0.0050
 7876W        W23770  17.133   8.281  14.123  0.1219 -0.1338 -0.1244
 7877W        W23771   2.055   6.269   3.930 -0.1157 -0.1092 -0.0869
 7878W        W23772   8.617   8.967  16.217  0.0089  0.0069  0.1478
 7879W        W23773   1.290   4.834  11.495 -0.1974  0.0440 -0.0622
 7880W        W23774   4.549   8.168   4.892 -0.1462 -0.1621 -0.2441
 7881W        W23775   9.222  12.562   4.655  0.1438  0.2878  0.1890
 7882W        W23776  15.005  11.344   5.968  0.0064 -0.1373  0.2663
 7883W        W23777  11.919  10.177   0.881  0.2335  0.2510 -0.0134
 7884W        W23778   1.985   7.888   5.028 -0.0824 -0.1006 -0.0671
 7885W        W23779  13.295  11.053   1.496  0.2643 -0.0539 -0.0546
 7886W        W23780   3.105  13.712   4.876  0.0591  0.3712 -0.2497
 7887W        W23781  16.378   1.463  14.366  0.0837  0.0141  0.3123
 7888W        W23782  10.284   2.904  12.348 -0.1951  0.0143  0.0910
 7889W        W23783   1.050  15.852   5.208  0.1029 -0.1413  0.1268
 7890W        W23784  14.185  17.921   4.407  0.0514  0.4355  0.0175
 7891W        W23785   1.670   1.345   4.574 -0.0292  0.0270  0.2820
 7892W        W23786   2.101  14.293  14.182 -0.0972 -0.0756 -0.1886
 7893W        W23787   0.933   2.173  16.240  0.0854  0.0644 -0.2229
 7894W        W23788   6.126  14.549  13.267  0.0656  0.0858 -0.2328
 7895W        W23789  12.729  10.687  14.740 -0.0034  0.0275 -0.0028
 7896W        W23790   7.388  12.025   1.310 -0.2124 -0.2924 -0.1835
 7897W        W23791   8.712  15.133  12.105  0.0357 -0.0492  0.3024
 7898W        W23792   4.682   1.797  15.851  0.1319  0.0815  0.0746
 7899W        W23793   5.408  16.566   0.959  0.0294 -0.3385  0.1056
 7900W        W23794   6.456   7.317  14.706 -0.1569 -0.0277  0.0675
 7901W        W23795   7.594   9.031  16.272 -0.3563 -0.0061  0.0357
 7902W        W23796   8.946  12.513   4.081  0.0875  0.0578  0.1984
 7903W        W23797  17.877  12.087   1.823  0.2366  0.2561  0.0748
 7904W        W23798   4.001  13.485  11.819 -0.2977  0.3646  0.0952
 7905W        W23799   0.353  17.875  12.507  0.1916 -0.1843  0.0248
 7906W        W23800  15.949   8.848  11.876  0.0337  0.1809  0.1930
 7907W        W23801  16.996  11.203  15.695 -0.1541 -0.0749  0.0605
 7908W        W23802  10.426   7.368  11.473  0.4806 -0.0357  0.2282
 7909W        W23803   7.149  10.702  11.931  0.1934  0.2541 -0.2895
 7910W        W23804   2.059  10.886  13.971  0.0458  0.0280 -0.0747
 7911W        W23805  11.859   9.707   3.778  0.2962  0.0024 -0.2249
 7912W        W23806  11.761   3.874  15.586  0.3607  0.1294  0.3255
 7913W        W23807   6.402   9.954  15.466  0.2402  0.0070 -0.0818
 7914W        W23808  14.023   2.321   3.821  0.0720  0.1186  0.3517
 7915W        W23809  11.407  11.498   0.331 -0.0278  0.0976 -0.1385
 7916W        W23810  13.181  10.437  13.521  0.3139  0.1035  0.1258
 7917W        W23811   7.259  16.789   2.077  0.2233  0.3456 -0.0362
 7918W        W23812   3.409   4.878  13.048 -0.4262  0.0486  0.0303
 7919W        W23813   2.810   0.188   2.208 -0.0726  0.0522  0.1447
 7920W        W23814   9.368   5.422   2.628 -0.2464  0.0530  0.0030
 7921W        W23815  15.873   0.269  16.208 -0.1169  0.2145 -0.0906
 7922W        W23816   1.653   1.896   2.570 -0.1439  0.0571  0.0951
 7923W        W23817  14.253  17.485  11.300 -0.1908  0.1970 -0.0622
 7924W        W23818  16.070   9.656   2.035 -0.1571  0.0503 -0.0423
 7925W        W23819  16.502   5.837   2.893  0.0700 -0.0616 -0.1090
 7926W        W23820  12.553   4.537  11.661  0.1362  0.2851  0.0299
 7927W        W23821  13.470  10.982   0.731  0.0477 -0.0991  0.0441
 7928W        W23822   6.811  11.744   3.536 -0.0072  0.3392 -0.1151
 7929W        W23823  12.553   2.059  12.551  0.0060 -0.1731  0.0974
 7930W        W23824   8.989   8.419   4.200 -0.1471  0.1101  0.5667
 7931W        W23825   1.854  13.481   2.472  0.0692 -0.4062 -0.0612
 7932W        W23826   7.167  16.212  11.913  0.0407 -0.2334 -0.0065
 7933W        W23827   2.716   0.976  14.818  0.2957 -0.5112 -0.0468
 7934W        W23828   5.773  14.981   1.802  0.0040  0.3047 -0.2443
 7935W        W23829   8.334   9.243   5.037 -0.3772  0.0108 -0.1901
 7936W        W23830   2.810   8.708  16.003 -0.0041  0.2855 -0.1451
 7937W        W23831   5.774   2.291   1.091 -0.1693  0.2808 -0.1970
 7938W        W23832  12.316   4.152  14.482 -0.0131  0.0366 -0.1033
 7939W        W23833   9.824   6.570   2.804 -0.1167  0.2411  0.3673
 7940W        W23834   9.575  11.146   3.355  0.0819 -0.1164 -0.2446
 7941W        W23835  15.619   3.536   4.449  0.0997  0.3392 -0.2484
 7942W        W23836   6.221   5.857  13.088  0.1348 -0.1797  0.2733
 7943W        W23837  15.978   1.765  15.452  0.1937  0.0046  0.3035
 7944W        W23838   8.416  13.653   2.873  0.1319  0.1922 -0.1692
 7945W        W23839   2.281  12.300  15.479  0.1491 -0.2405 -0.0539
 7946W        W23840  16.837  15.667   4.917 -0.2061  0.1549  0.0314
 7947W        W23841   7.956   5.848  15.982 -0.0010 -0.0325  0.1384
 7948W        W23842  13.197   6.328   1.536  0.5271  0.0645  0.0706
 7949W        W23843  13.361   0.903  11.906 -0.2644  0.1094 -0.1479
 7950W        W23844   2.539   9.180   3.797  0.1285 -0.0783  0.2957
 7951W        W23845  10.888  16.002   2.640 -0.3809  0.1655 -0.0574
 7952W        W23846   5.814   5.223  15.777  0.1222 -0.0042 -0.1075
 7953W        W23847  16.300   4.000   1.565 -0.1918  0.0745 -0.0453
 7954W        W23848  10.218   5.773  16.000  0.0687 -0.0041  0.1113
 7955W        W23849  15.881  16.079  11.911 -0.1044 -0.1305 -0.1526
 7956W        W23850  10.710  13.608  12.934  0.1597  0.0095  0.2335
 7957W        W23851  10.061  14.070   3.402 -0.0005 -0.0841  0.0612
 7958W        W23852  10.344   0.282   5.059  0.4624  0.2551  0.0880
 7959W        W23853  13.771  13.903  15.657  0.0637 -0.1705  0.0199
 7960W        W23854   9.865  14.145  16.313 -0.0343  0.2510  0.2617
 7961W        W23855  11.232  12.880  15.616  0.3267  0.1457  0.1109
 7962W        W23856   6.663   8.363   4.277 -0.0993 -0.1915 -0.1368
 7963W        W23857   4.272   8.844   5.335  0.2561 -0.0143 -0.0854
 7964W        W23858  13.383  14.294  12.634  0.0431 -0.1051  0.0831
 7965W        W23859  12.010   5.250   4.007 -0.0600  0.2423 -0.0795
 7966W        W23860  10.308  14.271   1.377  0.0561 -0.2003 -0.0822
 7967W        W23861  14.071  16.716   4.939 -0.1023 -0.2392  0.3759
 7968W        W23862  16.238   5.142  11.859 -0.1223 -0.0508 -0.0086
 7969W        W23863  17.047   1.207  15.107 -0.1691  0.0946 -0.1360
 7970W        W23864   9.737  12.667   4.477  0.2673 -0.3443 -0.1046
 7971W        W23865   8.846   2.823  10.900  0.2742  0.3474 -0.1780
 7972W        W23866   1.455  13.380   3.564  0.1541  0.1625  0.1227
 7973W        W23867  12.922   2.479  11.559  0.4596 -0.1010 -0.1474
 7974W        W23868  14.040  16.725  15.942  0.1728 -0.1831 -0.5143
 7975W        W23869  13.791   0.696   3.800  0.1590 -0.0917  0.0437
 7976W        W23870  14.382   2.920  12.900 -0.0252 -0.2268  0.0991
 7977W        W23871  11.533   0.013  12.887  0.1765  0.2998 -0.1396
 7978W        W23872   7.704  13.998  13.238 -0.2594 -0.3242 -0.1175
 7979W        W23873  13.043  11.715  15.160  0.1248  0.1830 -0.3612
 7980W        W23874  10.581   1.694   3.905 -0.0518  0.0847  0.0277
 7981W        W23875   6.843   3.525   1.475 -0.1863  0.3516  0.2342
 7982W        W23876  17.261  11.419  12.690 -0.1880 -0.1306 -0.0472
 7983W        W23877   8.375  16.746   3.840  0.2215  0.1002  0.2087
 7984W        W23878  16.330  13.114   6.089 -0.0859 -0.1037 -0.2402
 7985W        W23879   0.223   6.501   5.985  0.0943 -0.2691  0.3975
 7986W        W23880   9.369   8.167   1.168 -0.1120 -0.1805  0.1540
 7987W        W23881   6.274   2.960  12.413 -0.1175  0.1388 -0.1137
 7988W        W23882   5.098   8.122   2.732  0.1389 -0.0204 -0.0922
 7989W        W23883   4.891   8.320  12.328  0.1326  0.2585  0.2152
 7990W        W23884   7.248   7.623  14.602 -0.0982  0.3884  0.0140
 7991W        W23885  13.083   9.621  12.167 -0.0759  0.2462 -0.0247
 7992W        W23886   2.738  15.164  12.683 -0.1518  0.2264 -0.1580
 7993W        W23887   0.598  15.819   1.729 -0.1401 -0.0727  0.0826
 7994W        W23888   4.729  16.974  15.006 -0.0497  0.1966 -0.2052
 7995W        W23889   4.560   9.854   2.464 -0.0922 -0.2478 -0.3761
 7996W        W23890  15.625   1.570   6.034 -0.2370  0.2229  0.1308
 7997W        W23891  14.955   1.266  11.423 -0.0839  0.0881 -0.5053
 7998W        W23892  12.609   4.927  13.121  0.1139 -0.2337 -0.0216
 7999W        W23893   1.043   6.268  12.783  0.0348 -0.1330  0.1352
 8000W        W23894  16.710  15.695   0.224 -0.2980 -0.0528 -0.0066
 8001W        W23895  15.223   5.535  11.894 -0.0967 -0.0988  0.1433
 8002W        W23896   6.775   3.726   0.550 -0.0032  0.0513  0.1334
 8003W        W23897  18.149   0.635  14.347 -0.0242  0.0767  0.3667
 8004W        W23898  16.740  13.022   5.045  0.3096 -0.0662  0.2852
 8005W        W23899   3.113  13.230   4.665 -0.1578 -0.1678  0.0675
 8006W        W23900  12.237  11.837   3.892 -0.0872 -0.1356  0.1574
 8007W        W23901   4.479   2.921  10.864 -0.0074 -0.1549  0.0614
 8008W        W23902   4.115  12.252  13.813 -0.0011  0.0200  0.0354
 8009W        W23903  10.496   3.844  11.161 -0.1827 -0.1344 -0.0294
 8010W        W23904   3.175  15.002   5.155 -0.0268 -0.2043  0.1273
 8011W        W23905   6.355  14.871   0.804  0.0343 -0.2308  0.0719
 8012W        W23906  10.092  14.935  12.530  0.1174 -0.0335 -0.1934
 8013W        W23907   1.108   5.175   1.842  0.2010  0.1245  0.1996
 8014W        W23908  10.517  15.443   3.365 -0.0489  0.0735 -0.1198
 8015W        W23909  12.038  17.161   0.544 -0.1366  0.0575  0.1444
 8016W        W23910   2.364  14.108  12.508 -0.2140 -0.2176  0.5163
 8017W        W23911   7.750  15.717   0.701  0.0246  0.1410  0.1421
 8018W        W23912   4.003  18.233  14.713 -0.0299  0.2645 -0.1760
 8019W        W23913   5.540   8.085   1.138  0.2097 -0.1020  0.0743
 8020W        W23914   2.550   1.326   4.099  0.2504  0.1702  0.0178
 8021W        W23915   4.510   9.442  12.230 -0.0420 -0.1017  0.0409
 8022W        W23916  18.209   8.097  13.554  0.1527 -0.0239  0.2486
 8023W        W23917  15.446   2.481   0.479 -0.0129  0.0647 -0.1185
 8024W        W23918  10.329  10.295  15.344 -0.1192 -0.0359  0.1324
 8025W        W23919   4.964   5.609   3.958  0.2806  0.0086  0.2037
 8026W        W23920   9.335  12.759   4.161  0.3220  0.1673  0.1896
 8027W        W23921  14.220  15.610  13.392  0.0084  0.3383 -0.0570
 8028W        W23922   8.145   7.681  11.857  0.1418 -0.1179  0.0629
 8029W        W23923   0.769   5.082   0.234  0.3554 -0.0379 -0.4404
 8030W        W23924  10.202   1.645  11.063 -0.3119 -0.1746 -0.4070
 8031W        W23925   5.188   9.496  15.131 -0.1184 -0.3670  0.0470
 8032W        W23926   1.419   3.411  15.610 -0.1361 -0.0717 -0.2968
 8033W        W23927   1.939  11.584  11.823 -0.0274  0.0824  0.0024
 8034W        W23928   7.714  15.138  12.798 -0.1168  0.1228  0.1008
 8035W        W23929  16.910   9.831   5.016  0.0989  0.1720 -0.0572
 8036W        W23930   7.365  15.379  12.388 -0.2390  0.0124 -0.1458
 8037W        W23931   6.732  16.892   5.188 -0.1283 -0.0042  0.1262
 8038W        W23932  14.647   8.496   3.731  0.1268  0.1013 -0.3373
 8039W        W23933   4.659   2.605  13.554  0.1193  0.1796 -0.0957
 8040W        W23934   9.706   8.426   0.843 -0.0761 -0.2225 -0.0482
 8041W        W23935  15.380   1.917   2.678  0.1135 -0.1707 -0.3168
 8042W        W23936  12.467   1.638   4.677 -0.1907  0.1045 -0.3572
 8043W        W23937   7.812  14.838   0.814 -0.0154  0.4340 -0.0506
 8044W        W23938   5.373  12.377   0.505 -0.2809  0.1720  0.1839
 8045W        W23939  14.848   8.177  12.298  0.1356  0.1449 -0.0686
 8046W        W23940  14.711  16.146  12.063  0.0531 -0.1454 -0.0086
 8047W        W23941  15.473   5.274   0.745  0.1614  0.1073  0.1148
 8048W        W23942   1.178   7.631  13.292 -0.1100  0.1092 -0.1139
 8049W        W23943   2.768  12.369   0.301 -0.0220 -0.1613 -0.0102
 8050W        W23944   7.009   5.322  11.814 -0.4106 -0.0631  0.2002
 8051W        W23945  13.111  16.941   5.899  0.1148 -0.0168 -0.0731
 8052W        W23946  18.117   5.684   1.536  0.2677 -0.1368  0.0054
 8053W        W23947  16.788   6.569  12.110 -0.0139  0.3216 -0.1866
 8054W        W23948   4.678  13.716   3.866 -0.0797  0.0409 -0.0909
 8055W        W23949  10.764   8.559  11.287 -0.3964  0.1868 -0.3883
 8056W        W23950  16.390   2.353   4.662  0.2664 -0.1066  0.0974
 8057W        W23951   4.444  17.721   1.075 -0.1577 -0.3697  0.1960
 8058W        W23952   2.739   2.888  12.065  0.2383  0.2961 -0.4168
 8059W        W23953   7.841  11.673   4.952  0.0924  0.2365 -0.2677
 8060W        W23954  16.684   9.846   3.062 -0.1748 -0.3658  0.0657
 8061W        W23955   3.067  14.069   5.277  0.0404  0.2424  0.5354
 8062W        W23956  13.683   3.727   0.594 -0.0616  0.1226  0.1870
 8063W        W23957   0.651   1.600  13.634 -0.1352 -0.1399 -0.3809
 8064W        W23958   2.173  12.426   1.210  0.2215  0.1245  0.0830
 8065W        W23959  11.003  15.698   3.341 -0.1497  0.1729  0.2984
 8066W        W23960  17.915  12.994   0.714  0.1689 -0.0924  0.0731
 8067W        W23961   0.408  11.463  12.794  0.0906  0.2855 -0.1909
 8068W        W23962  11.441   0.541  15.140 -0.0096  0.1850 -0.2581
 8069W        W23963  12.594   0.380  12.165 -0.0068 -0.1735  0.1497
 8070W        W23964   4.508   5.079   2.411 -0.3892  0.0082 -0.3290
 8071W        W23965   8.473  11.831   5.723  0.3856  0.0769  0.1934
 8072W        W23966  13.483   7.524   3.652 -0.1065 -0.0270  0.0553
 8073W        W23967  11.713   7.491   3.725 -0.0421  0.0846  0.0295
 8074W        W23968  15.928  17.443  13.130 -0.1068  0.2038 -0.0060
 8075W        W23969  12.830   6.003  15.419  0.0682  0.1879  0.2606
 8076W        W23970   6.146   4.439   4.932 -0.0196  0.2243 -0.1557
 8077W        W23971  11.578  13.153   1.901 -0.1061 -0.0549  0.1188
 8078W        W23972  13.859   0.881   2.353  0.2073  0.1839  0.0221
 8079W        W23973   8.540  12.772  12.404 -0.2424  0.0196 -0.0167
 8080W        W23974   6.955  18.215  13.526 -0.2286  0.0175  0.4172
 8081W        W23975   3.435   1.019   0.096 -0.1423  0.0128  0.2055
 8082W        W23976   1.726  15.986   1.166 -0.1968 -0.0246 -0.1367
 8083W        W23977  15.361  11.793  11.981  0.1767  0.0145  0.0838
 8084W        W23978   1.936  15.143   4.476  0.1191 -0.0706  0.1998
 8085W        W23979  10.122  14.196   4.986 -0.0573 -0.1298 -0.1700
 8086W        W23980   1.458   4.575  13.959  0.0691  0.1237 -0.2195
 8087W        W23981   4.210  12.587   2.189  0.1994 -0.0038  0.2733
 8088W        W23982   2.433   4.853  15.383  0.1367  0.1567  0.2567
 8089W        W23983  14.756   0.457   2.111  0.3177  0.0135  0.1546
 8090W        W23984  10.999  13.033   4.060  0.1694  0.1839 -0.0914
 8091W        W23985  10.686   7.916  13.166  0.3811 -0.3623  0.2723
 8092W        W23986   9.213  14.406   2.023 -0.2641 -0.1380  0.1946
 8093W        W23987   1.093  12.820   1.788  0.2438  0.2357 -0.1582
 8094W        W23988   4.868   2.302  11.217 -0.0756  0.1357  0.3683
 8095W        W23989   8.407  14.558  11.576 -0.2874  0.0970  0.0196
 8096W        W23990  17.104   4.346  14.819 -0.1990 -0.1044 -0.0527
 8097W        W23991   1.589   6.094  13.956  0.0091  0.1464  0.0225
 8098W        W23992  18.138  10.077   2.383 -0.0502  0.2400 -0.2043
 8099W        W23993   3.448   0.584   3.520 -0.0308 -0.1368 -0.3648
 8100W        W23994   8.278  13.885  12.115 -0.0491 -0.0590 -0.0340
 8101W        W23995  10.121   9.505  15.811  0.0198  0.1353 -0.0367
 8102W        W23996   5.373   9.631   4.598  0.1193 -0.0794  0.0404
 8103W        W23997  17.521   1.929  11.492 -0.2010  0.0350 -0.1169
 8104W        W23998  15.988  14.546  12.147 -0.2053  0.1197 -0.0008
 8105W        W23999  14.858   6.674   0.689  0.2539  0.0031 -0.0648
 8106W        W24000   6.762  13.988   3.026  0.0674 -0.1612 -0.2736
 8107W        W24001  16.244  14.576   3.121  0.0212 -0.0633 -0.0279
 8108W        W24002   0.760  12.347   0.208 -0.2706 -0.0343  0.0240
 8109W        W24003   5.690  16.119  12.946  0.2299  0.1595 -0.2592
 8110W        W24004   6.432  11.124  12.989  0.1839  0.0904  0.0840
 8111W        W24005   6.108  14.457  13.947  0.1513 -0.2182  0.3196
 8112W        W24006   5.226   4.299   3.559  0.4061  0.0305  0.1022
 8113W        W24007  14.658  14.300   6.285  0.0523 -0.3156 -0.0772
 8114W        W24008  11.067   8.096   4.652  0.2430 -0.2599 -0.1751
 8115W        W24009   1.029  14.283   2.667  0.1021 -0.4954 -0.1633
 8116W        W24010   4.598   7.255  13.604 -0.1156 -0.2107  0.2144
 8117W        W24011  13.768  15.359   3.955 -0.0541  0.2791 -0.1964
 8118W        W24012   1.870   1.926   3.665  0.4259 -0.0868  0.1549
 8119W        W24013   3.376  16.614  12.300  0.1989 -0.2329 -0.1087
 8120W        W24014   0.913   3.975  13.668  0.3762  0.0763  0.1004
 8121W        W24015  11.295  14.666   3.200 -0.0478  0.2532  0.0840
 8122W        W24016   6.509  17.372   4.905 -0.2046  0.0391  0.2198
 8123W        W24017   3.010   9.850   1.282 -0.2881 -0.1050 -0.2050
 8124W        W24018  16.054   1.338   0.080  0.0759  0.2383 -0.0938
 8125W        W24019   5.754  14.423  15.047 -0.0036  0.1614  0.2120
 8126W        W24020  10.022  14.505  11.477 -0.1675  0.1191  0.0783
 8127W        W24021   4.341  17.723  15.919 -0.0910  0.0161 -0.3524
 8128W        W24022   4.909  15.123   2.532 -0.1631 -0.0567  0.0197
 8129W        W24023  17.138   3.052   0.288 -0.1415  0.2228  0.0937
 8130W        W24024   0.468  16.233  13.550  0.0258 -0.2046  0.1698
 8131W        W24025  16.757   8.572  16.405  0.2836  0.1962  0.1908
 8132W        W24026   3.486   6.842  12.900 -0.0244  0.0184  0.1275
 8133W        W24027   1.908   1.881   2.085  0.0425 -0.2153 -0.0065
 8134W        W24028  14.275  17.786  13.874  0.1733 -0.0325  0.0098
 8135W        W24029  10.585   2.618   3.638 -0.0554 -0.5119  0.1372
 8136W        W24030   6.379   5.113  12.544  0.1526 -0.5130 -0.3967
 8137W        W24031   4.517   0.863   0.981 -0.0723 -0.2394  0.2612
 8138W        W24032  11.056  16.799   3.071  0.1507 -0.0679  0.0593
 8139W        W24033  12.597  15.092  15.137  0.1980  0.1746 -0.3920
 8140W        W24034  16.296   9.339   0.865  0.0207  0.1588 -0.2851
 8141W        W24035   3.867   5.705  14.784 -0.1780  0.0479  0.1573
 8142W        W24036   7.912  10.240  15.943 -0.3501  0.2825 -0.0304
 8143W        W24037  12.651  17.524   1.080 -0.1998 -0.2228 -0.2969
 8144W        W24038   6.131   1.653   0.949  0.1302 -0.3474 -0.0167
 8145W        W24039  10.562  11.100  15.332 -0.1705 -0.0753 -0.1845
 8146W        W24040   3.460  12.079   5.208  0.3184  0.3246  0.3998
 8147W        W24041  14.369  11.736   1.685  0.2229  0.1701 -0.0393
 8148W        W24042  16.300  14.603   2.630 -0.1721 -0.2615  0.0836
 8149W        W24043  12.488   2.226  11.663 -0.1166  0.1554  0.1610
 8150W        W24044   1.934  13.080  16.328  0.2337 -0.0312 -0.0882
 8151W        W24045   0.220  17.350  15.093 -0.2205 -0.0832  0.0472
 8152W        W24046  12.620  11.375   3.784  0.3835 -0.1211  0.1525
 8153W        W24047  13.657   4.275  13.808  0.0105  0.1636 -0.3618
 8154W        W24048  15.206   3.621   4.947 -0.1512  0.1725  0.1421
 8155W        W24049   9.449   7.773   3.754 -0.1513 -0.1642 -0.0004
 8156W        W24050   0.460   8.205  15.049  0.0388  0.1236  0.0969
 8157W        W24051   0.669  16.793  14.300  0.0790 -0.0981 -0.2520
 8158W        W24052  11.635  16.726   5.249 -0.0083  0.1071 -0.1188
 8159W        W24053   0.247  11.846   4.065  0.1651 -0.3356  0.2660
 8160W        W24054   2.285  10.540   1.201  0.0884  0.2122 -0.0835
 8161W        W24055   2.437   2.312   2.849  0.0840  0.2124 -0.1207
 8162W        W24056  10.654  16.169  14.289 -0.0242 -0.2254 -0.3864
 8163W        W24057   8.776   2.765   4.565  0.2596 -0.1830 -0.3577
 8164W        W24058  14.207  16.695  15.409 -0.1386 -0.0494 -0.0605
 8165W        W24059   8.451   6.463   1.874  0.0928 -0.1314  0.2039
 8166W        W24060   1.973  10.428  13.905 -0.1743 -0.0936  0.2248
 8167W        W24061   2.598  14.378  12.023 -0.1188 -0.1674  0.1901
 8168W        W24062   2.746  16.817   2.818  0.2247  0.3024 -0.0747
 8169W        W24063   2.390  12.727   3.947  0.0572 -0.0503 -0.0028
 8170W        W24064  12.168  12.230   2.750 -0.0838 -0.1062  0.5547
 8171W        W24065   6.766   4.397  15.939 -0.2697 -0.0090  0.2253
 8172W        W24066  11.024   0.422  15.977 -0.3080  0.3499 -0.1348
 8173W        W24067   7.782   6.282  11.095 -0.0554 -0.0451  0.0262
 8174W        W24068  16.163  10.498   2.162  0.1263 -0.0297 -0.0302
 8175W        W24069   0.056   0.954  16.335 -0.1186  0.1312 -0.1059
 8176W        W24070   5.878  13.358  14.050 -0.1013 -0.0509 -0.2982
 8177W        W24071   2.305  13.144   2.677 -0.1687  0.0060 -0.1289
 8178W        W24072   9.006   8.851   0.036  0.0157 -0.0860 -0.0437
 8179W        W24073  11.969   5.905   2.594 -0.3104  0.2525 -0.0121
 8180W        W24074   2.061   5.418   3.852  0.1704 -0.1639  0.2603
 8181W        W24075  12.949   2.847   4.125  0.0098 -0.0090 -0.1584
 8182W        W24076   1.510   9.987   5.278  0.0483  0.0670 -0.0579
 8183W        W24077   9.092  17.882   4.786 -0.0110 -0.0095  0.0410
 8184W        W24078   6.925  17.575  15.985  0.1348 -0.0355 -0.0180
 8185W        W24079  11.602   2.007  15.854 -0.3377  0.1751 -0.0470
 8186W        W24080   6.552   5.803  15.574 -0.0791 -0.0418 -0.1313
 8187W        W24081   4.715  10.986  15.732 -0.0079 -0.0550 -0.1225
 8188W        W24082  10.588  11.647   0.266 -0.0080 -0.2072  0.2886
 8189W        W24083  15.134   9.093   4.630  0.0135  0.0993  0.1528
 8190W        W24084  15.168   5.653  13.706 -0.2356  0.6831  0.2348
 8191W        W24085  15.871   9.574  15.777  0.0653 -0.3996 -0.2043
 8192W        W24086  15.203   8.868  12.765  0.2137  0.1098 -0.0371
 8193W        W24087   4.750  15.262  15.373 -0.0232 -0.0015  0.3549
 8194W        W24088   5.024   1.130  12.114  0.1575  0.0452  0.2248
 8195W        W24089   5.428   1.213   2.717  0.1182  0.1450  0.0339
 8196W        W24090   0.241   7.330   2.208 -0.1233 -0.1295  0.0940
 8197W        W24091   4.731  17.872  15.044  0.1529 -0.2380 -0.0010
 8198W        W24092   2.965   4.242   3.769  0.0500  0.0387  0.0634
 8199W        W24093   8.761  14.535  13.732 -0.3747 -0.1491  0.0705
 8200W        W24094   6.360  15.221  11.793  0.2520 -0.0750  0.1271
 8201W        W24095   0.023  17.594  16.210 -0.1046 -0.1464  0.2619
 8202W        W24096   3.490   6.426   0.273  0.5544 -0.2148  0.1016
 8203W        W24097   6.391  10.592  13.065 -0.2184 -0.2692 -0.0342
 8204W        W24098  14.222   6.389   5.655  0.2544 -0.2664 -0.4334
 8205W        W24099   4.412   1.718   4.031 -0.1394  0.1857  0.0752
 8206W        W24100  11.241  13.977   2.113  0.2396  0.0878  0.2989
 8207W        W24101   1.645  13.396  14.899  0.1253 -0.0594 -0.0762
 8208W        W24102   2.566  12.066  13.162  0.2259 -0.2852 -0.1620
 8209W        W24103  17.828  13.348  14.488  0.1807 -0.1414  0.0139
 8210W        W24104   4.649   0.470   5.887 -0.1330  0.0862 -0.3790
 8211W        W24105   7.585   5.596  15.700 -0.0428  0.0377  0.2925
 8212W        W24106   1.900  14.221   0.187  0.2005 -0.1028 -0.1359
 8213W        W24107  14.019   9.554  15.091 -0.1889 -0.0159  0.3282
 8214W        W24108   8.392   6.395   4.210 -0.4295 -0.1670  0.0874
 8215W        W24109   8.869  13.676   1.374  0.4307  0.0111 -0.1626
 8216W        W24110  17.577   1.682   3.068  0.0025 -0.0109  0.0726
 8217W        W24111  10.146   8.177   2.816 -0.1033  0.1414 -0.0145
 8218W        W24112  17.242   2.721  14.954  0.2638  0.0055  0.1409
 8219W        W24113  15.104  18.003  14.394 -0.2197 -0.0984 -0.1181
 8220W        W24114  17.735  13.863   1.854 -0.0590 -0.0574  0.1358
 8221W        W24115   8.609  14.864   5.268 -0.0008 -0.2546 -0.0056
 8222W        W24116   4.082  11.413  13.738  0.1661 -0.0102  0.2404
 8223W        W24117   4.150   7.521   4.372 -0.3356 -0.1525 -0.1922
 8224W        W24118  12.551  17.513   0.565 -0.0936  0.2227 -0.1662
 8225W        W24119   4.477  14.983   3.415  0.4252 -0.1834 -0.4167
 8226W        W24120   5.558   7.055   1.146  0.0954  0.1036  0.0996
 8227W        W24121   6.875   1.431   0.302  0.0982 -0.0190  0.2273
 8228W        W24122  13.960   1.527  14.086 -0.1085 -0.2241 -0.1247
 8229W        W24123   6.931   1.821  14.488 -0.0245  0.1066 -0.0323
 8230W        W24124  17.010  13.554  12.962 -0.0178 -0.0698 -0.0123
 8231W        W24125   2.416  11.022   1.264  0.1584 -0.0092  0.0528
 8232W        W24126  17.028   9.407  15.124 -0.1036  0.3069  0.1661
 8233W        W24127  11.257   2.811  15.694 -0.3063  0.0791  0.1380
 8234W        W24128   7.524   3.719   4.874  0.0135  0.0223 -0.0995
 8235W        W24129  13.237  14.527  15.639  0.0122 -0.0568 -0.4187
 8236W        W24130  11.911   6.123  15.049  0.1876 -0.0347 -0.0381
 8237W        W24131   4.525   9.665   5.829 -0.2584  0.1067  0.0001
 8238W        W24132   6.635   7.125   1.965 -0.2513  0.0089 -0.1812
 8239W        W24133  10.966  16.028  15.228 -0.2612 -0.1309 -0.0071
 8240W        W24134  11.459  15.988  12.111 -0.1253  0.1955  0.2626
 8241W        W24135  17.553  10.916   3.683  0.1492  0.0414  0.1121
 8242W        W24136   4.796   9.561  14.814  0.0120  0.0906  0.1377
 8243W        W24137   1.501  16.869  14.291 -0.0440  0.2434  0.1138
 8244W        W24138  13.034   5.162   0.558 -0.1209  0.3029 -0.0421
 8245W        W24139  15.319   6.698   4.974  0.0581  0.1448  0.1054
 8246W        W24140   8.628   8.485   3.838  0.2239  0.1000 -0.2244
 8247W        W24141  12.912   0.029   5.017  0.1722  0.1966 -0.1583
 8248W        W24142  14.268   5.407  16.133  0.1024  0.2773 -0.2118
 8249W        W24143   7.835  13.779  11.366  0.0755 -0.0239 -0.3830
 8250W        W24144   9.297  15.054  12.132 -0.5743  0.0280 -0.2740
 8251W        W24145  11.118  13.358   2.750  0.0477 -0.3457 -0.1813
 8252W        W24146   0.368   8.593   3.655 -0.2017  0.1520  0.1968
 8253W        W24147   9.711  10.539  14.718  0.0072  0.1979  0.0910
 8254W        W24148   9.855   3.795   0.481 -0.0263 -0.0068  0.2373
 8255W        W24149   8.863  12.918  15.436  0.1926  0.4665 -0.1820
 8256W        W24150  10.433   6.009  12.305 -0.4753  0.2352  0.1760
 8257W        W24151  12.640  13.068  14.816  0.1805 -0.0307 -0.1696
 8258W        W24152   1.044  11.848   1.904 -0.2752 -0.0433 -0.0474
 8259W        W24153   4.283   4.163  16.424 -0.2010  0.2297 -0.1573
 8260W        W24154  10.883  15.063  16.305  0.1899  0.3783 -0.1732
 8261W        W24155   0.011  15.772  15.683  0.1216 -0.3425 -0.0625
 8262W        W24156  15.878   4.247   1.730 -0.2744  0.0555  0.0761
 8263W        W24157   4.522   0.795  16.060  0.0361 -0.5083  0.2356
 8264W        W24158  12.932  17.118   2.328  0.1217  0.0338  0.0565
 8265W        W24159  15.897   4.006  15.973  0.1200 -0.0263 -0.2794
 8266W        W24160   8.888   6.228   1.865 -0.1701 -0.3691  0.0188
 8267W        W24161   5.837  10.362   0.869 -0.4325 -0.0555  0.1549
 8268W        W24162   8.342   6.285  15.834  0.1055  0.0102  0.4226
 8269W        W24163  12.520  10.889  13.807 -0.0838 -0.2628 -0.1804
 8270W        W24164   3.034  17.002   3.765  0.4025  0.2418  0.3210
 8271W        W24165  11.044  13.350  15.793 -0.0917 -0.2174 -0.0771
 8272W        W24166   9.963   4.786  12.493 -0.0324 -0.2233  0.1848
 8273W        W24167  11.541   0.363   5.298  0.1506 -0.2250 -0.0120
 8274W        W24168  15.762   3.248  12.384 -0.0443 -0.2099 -0.0236
 8275W        W24169  12.252   5.266  12.931  0.0919  0.1437  0.0466
 8276W        W24170  17.055  15.215   4.895 -0.0045 -0.1780  0.4405
 8277W        W24171  13.100  14.389  15.206 -0.0297 -0.1171  0.0036
 8278W        W24172   5.088  11.358   0.655 -0.0446 -0.0269 -0.1802
 8279W        W24173  12.088   9.258   2.314 -0.0399 -0.2053 -0.0026
 8280W        W24174   4.245   5.468  15.409  0.3195 -0.1811 -0.2257
 8281W        W24175   5.180  12.707   2.014 -0.0864  0.1099  0.0129
 8282W        W24176  13.880   8.148  14.776  0.0814 -0.0919 -0.3812
 8283W        W24177  12.205   6.268  12.594 -0.2039 -0.2177  0.1431
 8284W        W24178  13.720  13.527  14.180  0.2257 -0.2223 -0.1729
 8285W        W24179  10.130   5.675  15.495  0.2528  0.1701 -0.2745
 8286W        W24180  11.280  16.640  13.989 -0.1343  0.2016  0.2764
 8287W        W24181  12.271   2.869  13.066 -0.0017 -0.1427 -0.4779
 8288W        W24182   2.716   8.626  14.175 -0.0737  0.0251  0.0281
 8289W        W24183  13.145   4.480  12.362 -0.0682  0.0728  0.0122
 8290W        W24184  13.198  14.708   5.256 -0.2798  0.2539  0.2978
 8291W        W24185   6.448  16.440   5.171  0.0384 -0.1523 -0.0185
 8292W        W24186  13.001  14.747   0.407  0.3538 -0.2744 -0.0945
 8293W        W24187   5.595   6.887   0.306 -0.2760 -0.0198  0.3135
 8294W        W24188   6.737   4.174   1.208  0.0553 -0.1565  0.3631
 8295W        W24189   9.184   4.875   2.011  0.0279 -0.1550 -0.0355
 8296W        W24190  10.341   1.836   0.422 -0.1741 -0.1633 -0.4260
 8297W        W24191  16.425   8.059  15.502  0.0741  0.0432 -0.2069
 8298W        W24192  11.705   8.580  11.546  0.2976  0.0998  0.0064
 8299W        W24193   3.507  14.475  12.578  0.3250  0.0548  0.1639
 8300W        W24194  15.356  12.822  11.770 -0.2133 -0.1415 -0.0354
 8301W        W24195   4.076  17.699   5.172 -0.2752 -0.3908 -0.0559
 8302W        W24196  15.774  15.382   4.004  0.1846  0.2034 -0.1114
 8303W        W24197  10.010   3.731  13.873  0.0971  0.0368  0.1976
 8304W        W24198   5.359  17.605   3.587 -0.0346 -0.0535 -0.2196
 8305W        W24199   2.861   2.124   1.821  0.3878  0.0618  0.0620
 8306W        W24200   7.338   4.589   0.081  0.2625 -0.1264 -0.1371
 8307W        W24201   8.416   6.345   4.799  0.1343  0.0273 -0.0140
 8308W        W24202   9.572   9.324   0.558  0.0372  0.1490 -0.1687
 8309W        W24203   7.800   5.565   3.882  0.0783 -0.0310  0.1672
 8310W        W24204   9.579  18.089   3.850  0.2115  0.2165  0.2852
 8311W        W24205   2.462  17.641  12.539  0.1392  0.0345  0.1326
 8312W        W24206  17.344  10.115  13.666  0.1179  0.2976  0.1032
 8313W        W24207   4.666  12.283  16.006 -0.4955  0.1500  0.1001
 8314W        W24208   0.540   7.375   2.735  0.0165 -0.1270  0.3400
 8315W        W24209  15.043  17.164   4.237 -0.0129  0.0579  0.1671
 8316W        W24210  10.682   2.273  15.817  0.0539  0.0034  0.2757
 8317W        W24211  16.185  12.998   3.905 -0.0547 -0.0318  0.0294
 8318W        W24212   4.844  14.738   0.585 -0.1805 -0.3926  0.0979
 8319W        W24213  14.209  13.707   3.089  0.1001  0.0463 -0.3448
 8320W        W24214  13.954   9.473   4.080 -0.0193 -0.0454  0.1311
 8321W        W24215   4.476  14.684  12.478 -0.0112  0.2774 -0.0234
 8322W        W24216   9.189  16.420  13.044  0.1625  0.4416  0.0022
 8323W        W24217  14.676  10.632  11.654 -0.1498  0.3320 -0.0326
 8324W        W24218  15.136   9.276  13.783  0.2232  0.4285  0.1043
 8325W        W24219  10.386   5.725   0.252  0.2774 -0.1130  0.2444
 8326W        W24220   0.091  16.075   2.615 -0.0742 -0.0819 -0.3017
 8327W        W24221  12.679  15.008  13.598 -0.1206  0.2828 -0.2244
 8328W        W24222   3.479  14.230  14.294  0.2432 -0.1144  0.0803
 8329W        W24223  10.971   3.897  14.806  0.1081  0.2430  0.1019
 8330W        W24224  14.238  12.466   3.824  0.1475  0.1603  0.0695
 8331W        W24225  11.694  13.875   2.001 -0.1656 -0.3043  0.0614
 8332W        W24226  15.381  15.654  13.178  0.1856 -0.2548  0.2125
 8333W        W24227  15.709   3.350  11.460 -0.2813  0.1988 -0.2924
 8334W        W24228  10.067   8.024   3.535  0.1151 -0.2968  0.2515
 8335W        W24229  11.588  17.459  13.421 -0.2010 -0.0125 -0.1353
 8336W        W24230   6.395   1.751  11.214 -0.0301 -0.0201 -0.0033
 8337W        W24231   6.933  15.841   4.896 -0.3180  0.2623  0.0982
 8338W        W24232   3.599   8.380   3.338 -0.2292  0.2287 -0.1835
 8339W        W24233   5.102   9.035  15.405  0.0090 -0.0728 -0.0402
 8340W        W24234  11.701   1.754   2.471  0.0375  0.2045 -0.0653
 8341W        W24235   1.520   7.548   4.139 -0.5280  0.1790 -0.1015
 8342W        W24236  11.343  10.384   3.220  0.0379 -0.4076  0.0373
 8343W        W24237  16.100   1.788  11.747 -0.0435 -0.1830 -0.0401
 8344W        W24238  16.409  17.899  13.251  0.1579  0.0775  0.1340
 8345W        W24239   0.556  10.264  12.454 -0.3644 -0.4692  0.1610
 8346W        W24240   4.097   9.940  14.020 -0.1793 -0.1132  0.2086
 8347W        W24241  11.563   4.469  11.867 -0.0948  0.0902 -0.1318
 8348W        W24242   2.647  10.613   5.860  0.4679 -0.0575 -0.3396
 8349W        W24243   7.976  16.363  15.931  0.2220 -0.3632 -0.3754
 8350W        W24244   1.406   6.473   1.765 -0.3153  0.1860  0.3717
 8351W        W24245   5.555   2.622   4.662 -0.1373  0.0105 -0.0503
 8352W        W24246  12.226  15.305  13.989 -0.0273 -0.0636  0.1654
 8353W        W24247  16.801  13.398   4.220 -0.0247  0.0809 -0.4365
 8354W        W24248   2.432  15.831   1.652  0.0992 -0.3630 -0.1036
 8355W        W24249   1.607   5.520   2.582 -0.0701  0.0780  0.0309
 8356W        W24250   5.912  13.451   4.819  0.0606 -0.0130  0.2147
 8357W        W24251   2.371   6.065   4.289  0.1441  0.0959  0.2592
 8358W        W24252  12.489   5.597   4.654 -0.1856  0.0803 -0.2107
 8359W        W24253   4.523   1.060  13.904  0.0052 -0.0325 -0.1153
 8360W        W24254  14.145   7.464  14.152 -0.0067 -0.1983 -0.0967
 8361W        W24255  10.894  13.806  13.929  0.0844  0.0717 -0.2610
 8362W        W24256   2.261  17.802  15.955 -0.1259  0.1070 -0.0498
 8363W        W24257  12.871   9.391   2.999 -0.0173  0.0212  0.0100
 8364W        W24258  13.108   9.961   4.413  0.2854  0.2227  0.0974
 8365W        W24259   9.598  16.340  13.325 -0.0121  0.1193 -0.0753
 8366W        W24260  16.786  10.550   4.750 -0.1602 -0.1586 -0.0799
 8367W        W24261  11.400  17.029   1.268  0.0375 -0.1419 -0.1710
 8368W        W24262  16.355  11.685   0.525 -0.1521  0.1644 -0.1309
 8369W        W24263   4.183   8.869   4.412  0.0563 -0.1741 -0.0013
 8370W        W24264  16.795  16.867   0.383  0.1131 -0.1129  0.0803
 8371W        W24265  11.865   9.544   0.175  0.0466 -0.0514  0.1307
 8372W        W24266  16.177   2.095   1.334 -0.0924  0.0045 -0.1485
 8373W        W24267   6.916  14.661  14.676  0.1338  0.0743 -0.1990
 8374W        W24268  13.110  15.167  16.377  0.4215  0.1477 -0.1167
 8375W        W24269   4.044  11.089  15.789 -0.2155 -0.0735 -0.1456
 8376W        W24270  11.878   0.427   2.471 -0.0736  0.2960 -0.2401
 8377W        W24271  17.955   3.113   3.058 -0.2143  0.0175  0.0396
 8378W        W24272  16.199   6.874  12.553  0.1220 -0.0453 -0.2987
 8379W        W24273   7.617  12.003   2.887 -0.0581 -0.0348 -0.0895
 8380W        W24274   0.952  15.075  11.652  0.0664  0.2006 -0.2554
 8381W        W24275   9.690  11.949   0.242  0.2272 -0.0305  0.0283
 8382W        W24276  13.356  15.353  14.028 -0.0725 -0.0218 -0.1288
 8383W        W24277   8.330   0.809   2.659  0.1339  0.0212  0.2453
 8384W        W24278   4.251  15.685  16.183 -0.0175 -0.3775 -0.1442
 8385W        W24279  16.696   9.566   3.524 -0.3224  0.0040  0.2067
 8386W        W24280  11.516   6.257  13.239 -0.3687 -0.0960  0.1788
 8387W        W24281   5.669   6.115   0.725 -0.3067 -0.3433 -0.0666
 8388W        W24282   2.641   1.632  11.808 -0.0984  0.1743 -0.2544
 8389W        W24283   3.560   3.195   3.021 -0.1759  0.1571  0.1439
 8390W        W24284   8.504   6.625  16.265  0.0923  0.1030  0.0211
 8391W        W24285  10.532   2.259  13.342  0.4146  0.3670  0.0389
 8392W        W24286   2.884   5.110  15.645 -0.1917  0.0609  0.2202
 8393W        W24287  11.696   7.427   4.220  0.1399 -0.2130  0.1284
 8394W        W24288   4.864  16.126  11.761  0.0700 -0.0930 -0.1134
 8395W        W24289   5.616   1.090  13.667  0.0929  0.0627  0.1520
 8396W        W24290   0.982   7.073   0.729  0.0114 -0.1356  0.3316
 8397W        W24291   6.967  15.139  13.215 -0.2623 -0.0543 -0.0665
 8398W        W24292   4.301  15.756  14.579 -0.0536 -0.4355  0.0298
 8399W        W24293   6.268   2.475  15.626  0.2158 -0.0542  0.1517
 8400W        W24294   8.556  17.401   2.680  0.1544 -0.0475 -0.0057
 8401W        W24295   9.563   4.283   3.624  0.0087 -0.1299 -0.2065
 8402W        W24296  11.730  12.684  12.342 -0.0875  0.0747  0.0500
 8403W        W24297   7.890   8.225  11.732  0.0482 -0.0248 -0.2967
 8404W        W24298   4.540  14.782   2.707 -0.2091  0.1690 -0.0981
 8405W        W24299   5.490   3.686   2.980  0.0039 -0.1989 -0.1190
 8406W        W24300   4.810   0.605  16.441  0.2079  0.0946  0.1334
 8407W        W24301  15.052  16.401  14.741  0.2852  0.1246 -0.0105
 8408W        W24302   9.501   4.023  10.279 -0.2611 -0.2497 -0.0308
 8409W        W24303   0.924  10.560   0.068  0.0329  0.0751 -0.1722
 8410W        W24304   7.121  13.895   1.377 -0.2831 -0.0425 -0.2249
 8411W        W24305   6.068  16.647  11.375 -0.2934 -0.1762  0.1343
 8412W        W24306  16.481   4.505  11.865 -0.0423  0.0246 -0.0399
 8413W        W24307  17.315   4.940   2.914  0.4677 -0.2748  0.0468
 8414W        W24308   9.044   1.702  13.972  0.1774  0.2437 -0.1010
 8415W        W24309   2.106   7.274  14.536 -0.2109  0.0070 -0.0659
 8416W        W24310  10.532  16.970   3.288 -0.1038  0.0313 -0.0581
 8417W        W24311  16.100   9.582  14.283 -0.1571  0.4826  0.5710
 8418W        W24312  15.533  14.669  16.244  0.0509  0.2036 -0.0047
 8419W        W24313  13.594   4.784   0.201 -0.1108 -0.2556 -0.1650
 8420W        W24314  10.344  12.980   3.334  0.0466  0.1656 -0.0278
 8421W        W24315   2.898   3.691   1.211  0.3039 -0.0651  0.1435
 8422W        W24316  12.549  17.978   0.332 -0.0488 -0.1868 -0.2990
 8423W        W24317   2.550   5.353  16.143  0.0685  0.3413  0.2120
 8424W        W24318  16.061  16.650  16.219  0.3535 -0.1082 -0.0567
 8425W        W24319   7.226   6.117  11.261  0.1029 -0.0842  0.0606
 8426W        W24320   7.693  17.185   2.979 -0.0556 -0.1358  0.1395
 8427W        W24321  15.883   5.593   0.110 -0.1659 -0.3696  0.0896
 8428W        W24322   2.266   7.433   1.937 -0.0130  0.0068  0.1844
 8429W        W24323   8.831   5.043   3.908 -0.1157  0.0065  0.1664
 8430W        W24324   0.110   6.637  11.761  0.0315  0.0142 -0.0079
 8431W        W24325   5.188  10.349   5.783 -0.2011  0.1957 -0.2380
 8432W        W24326   3.641   7.005  15.301 -0.0856  0.2777 -0.1326
 8433W        W24327   4.926  16.832   2.263 -0.0126  0.0180 -0.0143
 8434W        W24328   2.693   3.449  11.360  0.0225  0.3591 -0.2187
 8435W        W24329   5.532  14.963  14.216  0.1115  0.0876 -0.1983
 8436W        W24330  14.373  10.992  12.635  0.0383  0.1507  0.2665
 8437W        W24331   2.094  15.275  14.775  0.5940  0.1106 -0.1396
 8438W        W24332   6.989  12.282  16.153 -0.0111  0.1965 -0.0298
 8439W        W24333   0.452   9.254   5.790 -0.2394  0.1828 -0.2272
 8440W        W24334  18.030   9.831  14.001  0.3469  0.0672 -0.4525
 8441W        W24335   4.897   6.969   2.151  0.3678 -0.2233 -0.0064
 8442W        W24336  11.592  13.050  12.043  0.3893  0.1285  0.2518
 8443W        W24337  12.809   1.422   1.336 -0.1213 -0.1666 -0.0236
 8444W        W24338   6.755   9.082   2.877 -0.1236  0.2264 -0.0063
 8445W        W24339   4.215   6.055  16.129  0.1756  0.0010 -0.2999
 8446W        W24340  14.843   2.415  15.716 -0.1610  0.1072  0.0476
 8447W        W24341  13.047  16.812  15.822  0.1298  0.2296 -0.1789
 8448W        W24342  11.803   3.819  11.086  0.2762  0.2476 -0.1136
 8449W        W24343   2.376   2.082   3.741  0.1639  0.1861 -0.0407
 8450W        W24344  11.952  13.200   3.125  0.1391  0.0269 -0.1159
 8451W        W24345   3.097  10.137   0.895 -0.0380 -0.0329 -0.1238
 8452W        W24346  12.310  11.861  16.138 -0.1551  0.0500  0.3646
 8453W        W24347   5.387   6.774   2.134  0.1788 -0.2339 -0.1060
 8454W        W24348   9.646   8.535   5.317  0.1995  0.1324 -0.1631
 8455W        W24349   8.531   1.376  16.180 -0.0656 -0.0467 -0.1259
 8456W        W24350   3.681   8.899   1.103 -0.1555  0.1054 -0.1206
 8457W        W24351  12.630   2.869   2.263  0.0939 -0.1416  0.0910
 8458W        W24352   7.092  10.217  12.141  0.0545 -0.0496  0.1235
 8459W        W24353   0.753  14.483   3.730  0.2150  0.3070  0.0010
 8460W        W24354   1.425  10.595  16.309 -0.2256  0.0231  0.0019
 8461W        W24355   7.528   4.272  11.673 -0.0841  0.0809  0.1220
 8462W        W24356   8.714   1.139   2.541  0.0627 -0.2098  0.0287
 8463W        W24357  16.428   2.512   1.661 -0.1143  0.1219  0.3394
 8464W        W24358  18.091   4.429   0.966 -0.1050  0.0593 -0.2620
 8465W        W24359   1.758  11.197  15.060 -0.0860  0.0008  0.0532
 8466W        W24360   5.339  11.864  16.088 -0.2639 -0.4737 -0.1877
 8467W        W24361  17.803  14.910   4.212  0.1874 -0.0076 -0.3937
 8468W        W24362   6.842   7.362  12.193  0.1916 -0.2088  0.1428
 8469W        W24363  17.043  10.152   2.292  0.1761 -0.2594  0.2511
 8470W        W24364   2.404  10.567   0.168 -0.1353  0.0151  0.0091
 8471W        W24365   6.583  12.997  12.559 -0.1183 -0.3311  0.2016
 8472W        W24366   8.097   9.318  13.573 -0.0912  0.0119 -0.3288
 8473W        W24367  11.403  15.059   2.632 -0.1579 -0.0268 -0.2415
 8474W        W24368   5.284   7.071   2.550  0.0376 -0.3837 -0.0295
 8475W        W24369  18.078  10.810  15.103 -0.0137  0.1814  0.1501
 8476W        W24370   4.793   6.665   0.118  0.0219 -0.0162  0.0696
 8477W        W24371   0.320   6.039  12.499  0.4009  0.1697 -0.1416
 8478W        W24372   2.010   9.460   4.737 -0.1690 -0.0691  0.0671
 8479W        W24373   6.215  10.140  16.409 -0.0916  0.1109  0.3395
 8480W        W24374   1.222  12.537   4.595 -0.2325  0.0462  0.1188
 8481W        W24375   5.176  16.241  14.549  0.0077 -0.3151  0.0042
 8482W        W24376   3.067  13.940  11.219  0.0294 -0.0005 -0.1154
 8483W        W24377  17.582   3.570  13.356  0.1434  0.5445  0.1019
 8484W        W24378  17.064  14.901   2.654 -0.4585  0.0002  0.0061
 8485W        W24379   8.841   5.753   1.927 -0.2382  0.1949  0.2035
 8486W        W24380  10.225  17.168   1.894 -0.0849  0.4425  0.2887
 8487W        W24381   2.056   3.599  14.723  0.3802 -0.1463  0.0454
 8488W        W24382   5.438   0.097   4.787 -0.0264  0.1396  0.1911
 8489W        W24383  17.204  10.660   2.415 -0.0763 -0.2529  0.0363
 8490W        W24384   6.638   2.999  14.311  0.1946 -0.0974  0.2828
 8491W        W24385  14.543  12.279  15.262  0.0036 -0.3909 -0.1006
 8492W        W24386   0.354   7.651   3.792 -0.0729  0.3871  0.1797
 8493W        W24387   2.053   0.469   4.428 -0.0916 -0.1291  0.2792
 8494W        W24388  13.241  11.236  11.937  0.1482  0.1257  0.1232
 8495W        W24389  13.942  12.783   0.731 -0.0788 -0.0863  0.0496
 8496W        W24390  16.856   5.430   1.897  0.0300 -0.0331 -0.1875
 8497W        W24391   3.899   4.452   1.770  0.1136 -0.1275  0.0158
 8498W        W24392   4.244  15.593   5.820 -0.0625 -0.1880  0.0715
 8499W        W24393   7.801   7.724   0.763  0.0311  0.0466  0.1130
 8500W        W24394  10.902   2.109   0.720 -0.0375  0.2175  0.0827
 8501W        W24395   5.579  16.537   2.378 -0.0647  0.1465  0.3156
 8502W        W24396  10.601   3.181   1.782  0.2237  0.1101  0.4237
 8503W        W24397  15.382   2.885  12.326 -0.2620 -0.1615 -0.0141
 8504W        W24398   2.790   6.750   4.998 -0.0710  0.1451 -0.3923
 8505W        W24399   4.052  10.045  13.525 -0.0288  0.2313  0.1978
 8506W        W24400  15.098  13.185   3.688 -0.1796  0.1166 -0.3465
 8507W        W24401  15.036   1.117  12.150 -0.0184 -0.0023  0.2514
 8508W        W24402  16.030  15.003   2.797  0.2169  0.0084 -0.2541
 8509W        W24403   4.025   1.873   1.111 -0.0435 -0.0043 -0.0194
 8510W        W24404   0.622  13.370   5.824  0.1587 -0.1535  0.1344
 8511W        W24405  15.618   9.648   2.652 -0.0450  0.0834 -0.0127
 8512W        W24406   6.428  14.098  16.275  0.1664  0.1907  0.1870
 8513W        W24407   8.836  16.520   3.708  0.1081 -0.0826 -0.0717
 8514W        W24408   0.560   3.307  12.963 -0.0616  0.0415  0.3010
 8515W        W24409  15.114  16.359  16.378 -0.0573  0.1929  0.1709
 8516W        W24410  17.377   6.420  14.373 -0.0330 -0.0210  0.1582
 8517W        W24411   3.660  12.609   1.440  0.0030 -0.1087 -0.0399
 8518W        W24412  11.906  12.177  12.295  0.0244 -0.0553 -0.2304
 8519W        W24413   9.650   7.770  13.445  0.2023 -0.0181  0.2466
 8520W        W24414   3.232   0.054  12.930 -0.1406 -0.2366  0.2781
 8521W        W24415  11.541  11.781  12.432  0.0489 -0.1673 -0.4495
 8522W        W24416   3.294   0.752  12.148  0.2457 -0.3258 -0.2009
 8523W        W24417  12.574   7.078   0.297  0.1830 -0.0130  0.0976
 8524W        W24418   8.632  16.423   0.128  0.0113 -0.1749  0.2760
 8525W        W24419  16.963  14.565  14.632 -0.2230 -0.3871  0.0823
 8526W        W24420  16.559  17.907   5.061 -0.0002  0.0409 -0.2478
 8527W        W24421  13.904  10.498  15.252  0.0308 -0.0135 -0.1077
 8528W        W24422  15.273   5.349   1.486  0.1753 -0.0430 -0.0849
 8529W        W24423   6.550   0.448   4.215  0.2938  0.4694 -0.0822
 8530W        W24424   1.467   1.978   5.338 -0.1602 -0.2818  0.0530
 8531W        W24425  13.712  16.586   2.227  0.2988 -0.1781  0.1392
 8532W        W24426   4.393  16.547   4.234  0.2983 -0.3437 -0.4892
 8533W        W24427   0.803   4.027  11.702  0.1529 -0.1352  0.0731
 8534W        W24428   6.867   9.211  14.823 -0.0130 -0.1641  0.2039
 8535W        W24429   3.080  13.215  15.119 -0.0167  0.0675 -0.1406
 8536W        W24430   2.603  16.936  11.977  0.1961 -0.1250  0.2534
 8537W        W24431   3.607  10.036  11.313  0.1804 -0.1215 -0.1420
 8538W        W24432   1.544   4.302  11.861 -0.3066  0.3156 -0.2138
 8539W        W24433  14.581   7.552   5.092 -0.0125 -0.0583  0.3226
 8540W        W24434  13.125   2.369  12.223 -0.0355 -0.3621  0.0509
 8541W        W24435  15.536   5.751   3.035  0.0676 -0.0272  0.2934
 8542W        W24436  13.717   1.806  15.819 -0.0398  0.0087 -0.0986
 8543W        W24437   8.116   3.018   3.116  0.0273 -0.0060  0.3733
 8544W        W24438  12.253  16.140   2.374 -0.1556  0.0829  0.3369
 8545W        W24439   8.064  16.643  15.154  0.2433 -0.2196 -0.4323
 8546W        W24440   0.892  13.054   4.564  0.1190  0.2601 -0.1409
 8547W        W24441   5.189  15.079  14.504  0.2675 -0.0178 -0.0282
 8548W        W24442   3.937   5.564   0.415  0.3511  0.0056  0.0872
 8549W        W24443  15.368  18.045   4.736  0.2078 -0.1850  0.0927
 8550W        W24444  15.033   2.477   0.110  0.1141  0.2104 -0.5008
 8551W        W24445  15.694   9.732   5.222  0.0677  0.0163  0.1365
 8552W        W24446  15.396  10.160   3.777  0.2659 -0.2753 -0.2274
 8553W        W24447   2.482   7.302   0.147  0.0034  0.5230  0.0204
 8554W        W24448   7.627  15.634  11.404  0.0756 -0.1312 -0.0088
 8555W        W24449   2.568  15.427   0.393  0.1108  0.0566  0.2553
 8556W        W24450   5.421   8.269   3.069  0.1157 -0.0693  0.2162
 8557W        W24451   1.619   7.994  15.750 -0.1730  0.1605 -0.0907
 8558W        W24452   4.503   7.304  15.367 -0.0337  0.2405 -0.0193
 8559W        W24453  15.771  16.275  16.010 -0.1954  0.4856 -0.1524
 8560W        W24454   4.579   3.821  15.059  0.1170  0.1729  0.1523
 8561W        W24455   3.981   0.598  16.177 -0.2680  0.0716  0.0225
 8562W        W24456  14.865  16.413   3.077  0.1063 -0.2020 -0.0372
 8563W        W24457   4.990   4.482   1.097 -0.0357  0.4809  0.0344
 8564W        W24458   1.299   9.004   2.791 -0.2384 -0.3906  0.2393
 8565W        W24459  12.776  12.241  13.837  0.0971 -0.2300  0.0238
 8566W        W24460   1.317   8.031  13.518 -0.1853 -0.0645  0.1719
 8567W        W24461   4.197  13.739  12.778  0.0620 -0.0499 -0.0580
 8568W        W24462   7.671  16.427   2.179  0.3437 -0.5516  0.0214
 8569W        W24463  15.801   8.208   1.575  0.2168  0.0837 -0.1098
 8570W        W24464   4.377   1.605  14.012  0.1829 -0.1396 -0.0073
 8571W        W24465   3.651   3.952   5.870  0.2819 -0.2833  0.1202
 8572W        W24466  16.567   9.515   2.238  0.0209  0.2748 -0.0728
 8573W        W24467   3.869  14.320   3.928 -0.0128  0.0171 -0.2219
 8574W        W24468   6.863   9.509   1.429 -0.0051  0.1085 -0.1247
 8575W        W24469   5.559   6.800   4.292 -0.1786  0.3684  0.0229
 8576W        W24470   6.603  10.705   2.889  0.2137  0.5515  0.2303
 8577W        W24471  15.006  17.097  13.165  0.1815  0.0976 -0.3730
 8578W        W24472  15.510   3.545  12.646 -0.0341 -0.0829  0.0254
 8579W        W24473   9.179   0.534   2.779  0.0026 -0.0170  0.1977
 8580W        W24474   5.020   1.242   1.784  0.0696 -0.2477  0.2388
 8581W        W24475   2.459   7.674  15.818 -0.2936 -0.0825 -0.2393
 8582W        W24476   9.591   0.989   1.475 -0.2919 -0.0653 -0.0621
 8583W        W24477  11.485   4.017  14.708  0.2560  0.0620 -0.3743
 8584W        W24478   7.105   6.202   3.786 -0.0976  0.2074 -0.0996
 8585W        W24479  11.030   0.848  13.048  0.1911 -0.1663 -0.2223
 8586W        W24480  13.738  15.274  13.046  0.4519 -0.1778 -0.0318
 8587W        W24481  13.150  10.876  13.788  0.1577  0.0674  0.2191
 8588W        W24482   0.182   3.026   3.672 -0.1256 -0.2746 -0.1325
 8589W        W24483  13.709  17.277   2.913 -0.4353 -0.1795  0.1635
 8590W        W24484  14.582   6.626   1.585  0.2079  0.2247 -0.1740
 8591W        W24485  13.012   7.759  16.260  0.2294  0.0950  0.2318
 8592W        W24486   4.705  14.697   4.465  0.0410  0.0956  0.0155
 8593W        W24487   6.733   4.577   0.822 -0.0750 -0.3525 -0.0750
 8594W        W24488  17.114  10.514  14.021 -0.2642  0.0284  0.1719
 8595W        W24489   4.146   4.927  11.799  0.0958 -0.0510 -0.1678
 8596W        W24490   8.691  11.849   1.260  0.1236  0.1569 -0.4462
 8597W        W24491   2.444   1.035   5.223  0.0491  0.5568  0.1973
 8598W        W24492   9.486   9.991   4.154  0.1178  0.0376 -0.0411
 8599W        W24493  14.685  11.307  16.390  0.2167 -0.2211 -0.0720
 8600W        W24494   1.290  17.572   0.645 -0.0988  0.1447 -0.2668
 8601W        W24495  15.611   8.155   1.088  0.0225  0.0117  0.3443
 8602W        W24496   2.731   7.403   4.357  0.0210  0.0905  0.3105
 8603W        W24497   6.378   2.612   1.803  0.0781 -0.2187  0.2790
 8604W        W24498  15.930   3.162  11.886  0.0026  0.0380  0.1517
 8605W        W24499  13.428  17.523   1.757  0.2386  0.0230  0.1623
 8606W        W24500  14.894   6.154   0.083 -0.0344  0.3160  0.2107
 8607W        W24501  13.513   0.938  15.999  0.1281  0.0283  0.2012
 8608W        W24502   1.022  13.285   3.155  0.1894 -0.0474 -0.1865
 8609W        W24503  10.988   1.146  11.360 -0.1116  0.4487 -0.0616
 8610W        W24504   7.764   5.076  11.696  0.4447  0.1278  0.1236
 8611W        W24505  12.462  16.017   3.250  0.1536 -0.1818 -0.0420
 8612W        W24506  11.441  10.953   2.834 -0.0793 -0.1899  0.1827
 8613W        W24507   1.336  15.544  11.758 -0.3833 -0.0225  0.0609
 8614W        W24508   1.550   4.800   3.137 -0.0685  0.0660 -0.0985
 8615W        W24509   2.629   9.770  15.177  0.0503  0.3442 -0.0064
 8616W        W24510   0.873   4.149   5.099 -0.0169 -0.0719  0.1297
 8617W        W24511   4.224  11.595  11.503  0.1244 -0.0591 -0.1485
 8618W        W24512  14.885   5.154  13.702 -0.0361  0.1879  0.0636
 8619W        W24513  12.219  12.655   4.159 -0.0915 -0.2274 -0.0231
 8620W        W24514  13.097  12.514   1.042 -0.1006 -0.2658  0.0891
 8621W        W24515   9.422  15.978   4.300 -0.1865 -0.2892 -0.0465
 8622W        W24516   3.106   9.461   5.991  0.3770  0.0318  0.0100
 8623W        W24517   5.192   0.978  12.674  0.2648 -0.3992  0.2281
 8624W        W24518  16.274   3.343  16.308  0.0550  0.0016  0.4586
 8625W        W24519   7.734   5.881  11.618 -0.1879 -0.0678  0.4452
 8626W        W24520   7.433  15.824  12.687  0.0895  0.3022  0.3320
 8627W        W24521   2.240  18.031   4.503 -0.2225 -0.0099 -0.3226
 8628W        W24522   5.250  10.670   4.590  0.2632  0.4308  0.1345
 8629W        W24523   7.226   8.747   1.638  0.0302 -0.2896  0.2476
 8630W        W24524   7.311  11.494   1.356  0.0824  0.2270 -0.0292
 8631W        W24525   6.564  11.942   0.554  0.1140 -0.0044  0.0635
 8632W        W24526  11.404   6.446   3.701 -0.1817 -0.0396  0.0169
 8633W        W24527  13.392  16.736   1.659  0.2336 -0.2011 -0.1258
 8634W        W24528  11.305  17.949   0.023  0.0767 -0.2814  0.0454
 8635W        W24529   0.118   1.440   1.497 -0.1534  0.1318  0.0011
 8636W        W24530  13.114  10.544   0.675 -0.1776 -0.3251 -0.0717
 8637W        W24531   8.374  11.885   3.631 -0.1732 -0.0084 -0.1416
 8638W        W24532   4.562  15.359   3.836 -0.1029 -0.1867  0.0012
 8639W        W24533  15.418  17.482  15.319 -0.1169  0.0682  0.0467
 8640W        W24534  12.083  14.715   2.256  0.2137  0.0135 -0.1619
 8641W        W24535   4.921   3.118  12.780  0.1300 -0.0272  0.0359
 8642W        W24536   2.925  13.163  12.503  0.2705  0.1653 -0.2367
 8643W        W24537  13.031   6.198   4.284  0.0352 -0.3251  0.2771
 8644W        W24538  11.906   4.340   0.967  0.2945  0.2112  0.0682
 8645W        W24539   4.742  10.030   5.459  0.1390  0.0697 -0.3446
 8646W        W24540   9.689  15.635   4.530 -0.0828 -0.0984 -0.2344
 8647W        W24541  13.165  13.418   5.759 -0.0381 -0.3806  0.3063
 8648W        W24542   4.179  15.407  15.764 -0.6817 -0.2390  0.2286
 8649W        W24543   9.520   0.302  11.914  0.1861  0.1791  0.1046
 8650W        W24544  17.829  14.455  15.107 -0.0396  0.0756  0.0716
 8651W        W24545  16.520  10.259   1.645 -0.0005  0.0162 -0.0053
 8652W        W24546  17.976   6.557   1.920  0.2405 -0.1234 -0.3282
 8653W        W24547  14.998  10.844   6.215  0.2381 -0.0530 -0.1347
 8654W        W24548  12.643  18.195   1.329 -0.1525  0.0652 -0.0853
 8655W        W24549   4.748  12.598  15.091  0.1096 -0.2188  0.2411
 8656W        W24550  11.107  12.961   1.494 -0.0592  0.1173  0.0297
 8657W        W24551  14.417   4.384  13.339  0.0559 -0.1675 -0.0082
 8658W        W24552   2.278   8.678   5.264  0.1581 -0.0506 -0.0150
 8659W        W24553   2.504   5.903   0.811  0.0127 -0.1053  0.2626
 8660W        W24554  17.110  10.407  15.418  0.1199 -0.1166  0.2837
 8661W        W24555  15.072   4.545   3.392  0.2254  0.0803 -0.2423
 8662W        W24556  10.495  15.850   1.096 -0.0235 -0.2582 -0.1679
 8663W        W24557  16.107   9.066  13.352 -0.0269 -0.0473  0.1593
 8664W        W24558   5.006   1.333  11.421 -0.0941 -0.0266  0.0407
 8665W        W24559   3.264  15.906   2.837 -0.0382 -0.2403 -0.0539
 8666W        W24560  11.163   1.762   5.144 -0.1031  0.1221  0.0676
 8667W        W24561  11.693   7.325   4.762 -0.0530 -0.1235 -0.1972
 8668W        W24562   6.105   3.812  12.147  0.0608  0.0630  0.1902
 8669W        W24563  12.554   3.728   5.258  0.3161  0.1372 -0.2178
 8670W        W24564   9.829   6.037  15.732 -0.1479 -0.1514  0.0861
 8671W        W24565  17.401   4.338   2.789 -0.1104  0.2129 -0.3255
 8672W        W24566  16.154   2.519   5.103 -0.1647 -0.1739 -0.1721
 8673W        W24567   0.580   6.806  15.602 -0.1338  0.2721  0.1718
 8674W        W24568  14.823  14.732  12.913 -0.4253 -0.1974  0.2078
 8675W        W24569   5.704  12.899   2.047 -0.2072  0.1894 -0.0267
 8676W        W24570  17.865  12.269  14.906  0.1837  0.0960 -0.1473
 8677W        W24571  10.709  10.720  14.948 -0.0564  0.0949  0.1277
 8678W        W24572  11.282  14.815  16.096 -0.2211 -0.0855  0.4961
 8679W        W24573   6.287  16.211  11.660 -0.0501  0.1282  0.0434
 8680W        W24574  11.702  11.466  14.402 -0.2578  0.0514 -0.1273
 8681W        W24575   8.618  15.044   3.761  0.2136 -0.0184  0.1661
 8682W        W24576   5.972  12.897  13.111  0.1686  0.0914 -0.3167
 8683W        W24577   4.943  16.039   0.144  0.1515  0.3201  0.3120
 8684W        W24578  12.281   4.957  15.591 -0.1006  0.0915  0.2826
 8685W        W24579  11.829  13.349  14.515  0.2264  0.0607 -0.0430
 8686W        W24580   5.381   3.100   2.056  0.2278  0.0806 -0.0468
 8687W        W24581   7.815   2.429   3.711  0.0075 -0.1728 -0.2250
 8688W        W24582   5.285  14.232  11.704  0.0319 -0.2078  0.1797
 8689W        W24583   2.953  11.041  14.863  0.0024  0.0893 -0.0242
 8690W        W24584  13.047   8.711   2.690 -0.0897  0.0400 -0.0102
 8691W        W24585   3.460  13.698   5.245  0.0177  0.0272 -0.0378
 8692W        W24586   3.904  12.299  12.913  0.0370  0.0079 -0.2897
 8693W        W24587   8.465  17.779  16.121  0.0390  0.0858 -0.1698
 8694W        W24588  16.698   7.244  13.816 -0.0227 -0.1357  0.0721
 8695W        W24589   4.412   6.919   0.426 -0.0804 -0.1216 -0.1093
 8696W        W24590   2.920   6.844   0.629  0.0518 -0.0727 -0.3217
 8697W        W24591  13.596   9.976   1.338  0.0347 -0.0997  0.3515
 8698W        W24592  15.612   1.868  12.606  0.1312  0.1666 -0.1320
 8699W        W24593  10.094   0.917   0.150 -0.1356 -0.1114  0.0196
 8700W        W24594  11.756  14.310  12.653 -0.0147 -0.1702 -0.1697
 8701W        W24595   5.302  12.081  14.756 -0.0048 -0.1453 -0.0286
 8702W        W24596  14.828  13.045  15.593 -0.2591  0.0211 -0.1261
 8703W        W24597   2.741  14.415   4.434  0.0608  0.3117 -0.0610
 8704W        W24598  10.006   5.837  14.392  0.0134 -0.4003 -0.2781
 8705W        W24599   7.483   2.969   0.807  0.3063  0.4857  0.2418
 8706W        W24600  11.274   2.014  11.606  0.0162  0.2164  0.1945
 8707W        W24601   2.328   5.889   3.706 -0.1456 -0.0886  0.0933
 8708W        W24602  13.297   9.893  16.376  0.0068  0.0158  0.0400
 8709W        W24603   0.766   2.416  11.973 -0.0563  0.0062 -0.2146
 8710W        W24604  15.569   3.594  15.693  0.0364  0.2044  0.1923
 8711W        W24605   8.831  17.240   6.217  0.0403  0.0101 -0.0546
 8712W        W24606  14.159   5.017   3.250 -0.3036  0.0122 -0.0003
 8713W        W24607   4.163  16.110  12.424  0.1119  0.2987  0.1405
 8714W        W24608  13.132  15.434  10.821 -0.0016 -0.0789 -0.0898
 8715W        W24609   9.643   9.931   4.634  0.2315 -0.2681  0.1141
 8716W        W24610   3.152   3.163  14.241  0.1259 -0.3368 -0.1707
 8717W        W24611   8.103  11.849   2.438  0.1244 -0.1095  0.2142
 8718W        W24612   9.406   2.622  11.922  0.2709 -0.0042 -0.2514
 8719W        W24613  16.896  12.664  11.740 -0.3107 -0.0321  0.1035
 8720W        W24614   4.864   5.485  11.142 -0.0121 -0.1728  0.0724
 8721W        W24615   3.103  18.147  11.455 -0.2079 -0.0593  0.1762
 8722W        W24616   4.831  17.723   1.372 -0.3733 -0.1955  0.0371
 8723W        W24617   7.227   7.134  14.205  0.1908  0.2746  0.0958
 8724W        W24618   0.202   2.857   5.479 -0.1519  0.2080  0.1097
 8725W        W24619   1.675  12.981   5.087  0.2407  0.0481 -0.1028
 8726W        W24620  14.025  18.045  15.306  0.1216  0.1345  0.0177
 8727W        W24621  11.610   8.761   4.702  0.2675 -0.1103  0.1344
 8728W        W24622  11.025  16.618  15.882 -0.1971 -0.0969 -0.0795
 8729W        W24623   7.501   5.916   3.685 -0.0872  0.0196 -0.3479
 8730W        W24624   5.315  10.230  14.984  0.1003 -0.0724 -0.0996
 8731W        W24625  14.471   2.660   2.095 -0.2182  0.0023 -0.0397
 8732W        W24626  11.834   9.520   1.908 -0.2778 -0.2158  0.1503
 8733W        W24627   4.650  13.163  12.432  0.0191  0.0547  0.0364
 8734W        W24628   0.898  10.083  15.976  0.0968  0.0907  0.2963
 8735W        W24629   8.945  13.534   5.537  0.1875  0.2424  0.2035
 8736W        W24630  10.382  14.358   3.627  0.2357  0.1981 -0.3315
 8737W        W24631   4.126  10.593  12.429  0.1675 -0.0446  0.0165
 8738W        W24632  16.694   1.444  15.333  0.1280  0.0932  0.1368
 8739W        W24633   5.486   3.771   4.273  0.0628 -0.0659  0.1994
 8740W        W24634   0.827   8.456  15.531  0.2496 -0.0417  0.0764
 8741W        W24635  12.126  15.033   0.027 -0.0428 -0.2693 -0.0335
 8742W        W24636   1.133   2.520  12.625  0.1201  0.0846  0.4543
 8743W        W24637  10.885   7.479  16.225 -0.0049 -0.2332  0.1169
 8744W        W24638  14.764  17.861  13.566 -0.2504  0.2938 -0.1000
 8745W        W24639  10.646   2.080   4.325  0.1447  0.0209  0.0486
 8746W        W24640  12.322  12.565  14.836  0.2085  0.1546 -0.0328
 8747W        W24641   3.233   1.173   4.487  0.1180  0.0839  0.0132
 8748W        W24642  13.756  12.637  13.689 -0.0778 -0.1904  0.3666
 8749W        W24643   1.862   0.049   4.193 -0.2615 -0.2233  0.2102
 8750W        W24644  10.587   8.351  14.955 -0.1471  0.0240 -0.2228
 8751W        W24645  18.190   7.793   5.125  0.0601 -0.0267 -0.0427
 8752W        W24646  15.634   2.150  16.272  0.2258  0.3569 -0.3214
 8753W        W24647  17.010   4.522  14.223 -0.0224 -0.1820  0.1750
 8754W        W24648   1.049   8.077   3.967  0.0812 -0.0722 -0.4029
 8755W        W24649  11.049   2.245   3.430  0.2168  0.0651 -0.0592
 8756W        W24650   8.106   8.086  12.213  0.1776  0.1366 -0.1069
 8757W        W24651   0.149   6.438  12.728  0.0142  0.1627 -0.1859
 8758W        W24652  17.868   8.258   3.814 -0.3555 -0.0269  0.2178
 8759W        W24653   8.119   5.690  16.458 -0.3276 -0.2180  0.1615
 8760W        W24654   2.615   9.595   3.269 -0.0728 -0.0126 -0.0858
 8761W        W24655  14.111   1.018   4.340 -0.1640  0.1654 -0.0173
 8762W        W24656   2.442   0.586  12.657  0.2787  0.3828  0.3217
 8763W        W24657  11.352   1.277  16.149 -0.1031 -0.0047  0.0427
 8764W        W24658   7.802   4.033  12.122  0.2364  0.0126 -0.0913
 8765W        W24659  15.524  16.907   6.075  0.0969 -0.0730 -0.0757
 8766W        W24660   0.917   1.308  13.996  0.1426  0.1983  0.2019
 8767W        W24661   0.418   8.691  14.870 -0.2012 -0.1401 -0.1931
 8768W        W24662  17.883   9.800  15.641  0.2331  0.2536 -0.2370
 8769W        W24663   5.224   3.881   4.803  0.1090 -0.0387 -0.2801
 8770W        W24664  12.469   7.395   3.708  0.0255  0.1513 -0.0242
 8771W        W24665   7.994   7.947  14.292  0.2865 -0.1163  0.0217
 8772W        W24666   6.288  12.756  14.448  0.1537  0.2599  0.1297
 8773W        W24667   6.692  15.357   0.002 -0.0519  0.1142 -0.1008
 8774W        W24668  15.134  16.942   5.358  0.1113 -0.3208 -0.0433
 8775W        W24669   7.830   6.818   4.853  0.0145 -0.1707  0.0855
 8776W        W24670   4.929  16.693  11.773 -0.2312  0.0061 -0.0420
 8777W        W24671   1.149   5.343  16.428 -0.0931  0.0913  0.0828
 8778W        W24672   6.893   0.796  10.965  0.1121 -0.1385  0.2574
 8779W        W24673   9.546   6.052   2.472  0.3288  0.0613  0.1570
 8780W        W24674  11.665   5.562   1.778 -0.3513 -0.0450  0.0813
 8781W        W24675  13.709  16.690  15.231  0.3326  0.0565 -0.2312
 8782W        W24676  11.047  17.935   3.915  0.1404  0.2597  0.0472
 8783W        W24677   6.951  16.270  16.377 -0.4598  0.4104 -0.2598
 8784W        W24678  15.862  15.635  12.642 -0.2090 -0.1506  0.0289
 8785W        W24679   1.713  15.251   5.435 -0.0957  0.1071 -0.0850
 8786W        W24680  10.933  13.789  12.509  0.1713  0.1901  0.2230
 8787W        W24681  10.602  15.680  12.637  0.1789  0.0355  0.2273
 8788W        W24682   4.445   1.125   1.846 -0.1601  0.0063 -0.1173
 8789W        W24683   2.449  17.444  16.299  0.0910 -0.0840 -0.0321
 8790W        W24684   0.945   6.981  15.183 -0.0477  0.0394  0.0909
 8791W        W24685  15.627   6.632  15.902  0.1114  0.1112 -0.0526
 8792W        W24686   6.542   2.383   5.018 -0.1515  0.1711 -0.0699
 8793W        W24687  14.657   4.646   0.949  0.2186 -0.0942 -0.2893
 8794W        W24688   3.442   9.021   0.254  0.1185 -0.0367  0.1313
 8795W        W24689  15.025  16.801  15.089  0.1081  0.1966  0.0482
 8796W        W24690  11.991  12.242   3.994 -0.0624  0.4849 -0.0836
 8797W        W24691  11.312   3.539   5.033  0.1965 -0.3321 -0.0603
 8798W        W24692  14.483   6.692   2.847  0.2391 -0.0998  0.2062
 8799W        W24693  13.984   1.379   1.656 -0.1673  0.0699  0.0270
 8800W        W24694  15.837   5.068  13.878  0.0931  0.0033  0.3521
 8801W        W24695   6.981  17.940  14.039 -0.2495 -0.0022 -0.1347
 8802W        W24696  15.578   8.202   3.381 -0.2481 -0.1078  0.0586
 8803W        W24697  17.554   9.435   3.409 -0.2871 -0.3902  0.0638
 8804W        W24698  10.697  13.594  16.068 -0.1533 -0.0920  0.1781
 8805W        W24699   7.435   4.966  15.077 -0.0254 -0.0278  0.0019
 8806W        W24700  18.070   1.069   2.524 -0.2101 -0.2333  0.2025
 8807W        W24701   1.170  16.522   4.716 -0.1252 -0.0103  0.3137
 8808W        W24702  10.285  15.057  12.022  0.0476  0.0970  0.1738
 8809W        W24703   0.968  10.615  15.518 -0.2702  0.0550 -0.0740
 8810W        W24704   9.065   9.544  11.592  0.5217 -0.1402 -0.1422
 8811W        W24705   7.479  15.332   2.951  0.2141  0.1386  0.1152
 8812W        W24706   8.677   6.650   1.483  0.0281  0.0687 -0.3017
 8813W        W24707   6.526   3.232   0.608  0.0388 -0.1704 -0.2006
 8814W        W24708   4.318   3.794  14.583 -0.1611  0.1216 -0.0330
 8815W        W24709  14.158   8.742  11.152  0.3282  0.2411  0.1049
 8816W        W24710  18.091  14.311  14.053 -0.1567 -0.1208 -0.0339
 8817W        W24711  12.563   2.573  11.249  0.1074 -0.3392 -0.0067
 8818W        W24712  16.538  13.478  12.690 -0.1048  0.1797 -0.1011
 8819W        W24713  15.681  16.453  12.363 -0.0505  0.1370 -0.3045
 8820W        W24714   0.318   1.857   3.495 -0.0170 -0.0478 -0.2566
 8821W        W24715   3.629   8.599  16.193  0.0130  0.1818  0.2526
 8822W        W24716   6.795  11.183  15.288  0.0910 -0.4183  0.1305
 8823W        W24717   9.414   5.993  11.143 -0.0541  0.2074 -0.0126
 8824W        W24718   4.660  12.091  13.461 -0.3235 -0.4928  0.0432
 8825W        W24719   1.895   7.574  13.839 -0.1854 -0.0065  0.2079
 8826W        W24720  13.952   6.725   2.115 -0.1062  0.0343 -0.2488
 8827W        W24721   1.216  17.895   5.357  0.0366 -0.0529  0.0316
 8828W        W24722   6.215   0.810  10.332 -0.0772 -0.0653 -0.0679
 8829W        W24723   2.133   1.777  16.233 -0.3080 -0.1777  0.1008
 8830W        W24724   6.779   8.470   1.511 -0.0900 -0.2318  0.0130
 8831W        W24725   1.811   2.270  13.194  0.2076  0.0435 -0.1944
 8832W        W24726   2.642  12.832   0.487 -0.1194  0.0771 -0.0673
 8833W        W24727   4.807   0.041  13.078  0.3800  0.1415 -0.3796
 8834W        W24728   0.512  17.775  15.432 -0.0223  0.0515  0.3482
 8835W        W24729   3.881  16.547   0.038 -0.2943 -0.0488 -0.4260
 8836W        W24730  15.438  13.450  13.942 -0.2695 -0.0486  0.1709
 8837W        W24731   8.768  12.785   0.213  0.2975  0.1254  0.2159
 8838W        W24732   2.323  11.411   2.771 -0.2497  0.0644 -0.0448
 8839W        W24733  13.384   7.468   2.654  0.1586 -0.4024  0.0332
 8840W        W24734  16.195  17.905  12.740 -0.0641 -0.0907 -0.2136
 8841W        W24735   4.130   2.431   0.964 -0.0327 -0.2170 -0.0448
 8842W        W24736   7.583   2.395   5.147  0.0855 -0.1060  0.3107
 8843W        W24737   4.582  14.603   4.973 -0.0459  0.1661  0.2592
 8844W        W24738  15.095   4.578   1.158  0.1410 -0.2319  0.2655
 8845W        W24739   0.726   1.332   0.038 -0.3366 -0.0611  0.1920
 8846W        W24740   9.669   1.911  11.065  0.0206  0.0113 -0.2334
 8847W        W24741   3.222  15.861   1.048 -0.3286  0.0188 -0.0931
 8848W        W24742   9.568   3.906   3.997  0.0077  0.1996 -0.0699
 8849W        W24743   3.241  10.307  12.132 -0.2135 -0.3992 -0.1732
 8850W        W24744   8.384   0.004  13.176 -0.0656 -0.1036  0.1292
 8851W        W24745   6.263   2.475  11.857 -0.1259 -0.1599 -0.3855
 8852W        W24746   0.551   0.598   3.571 -0.0127  0.2106  0.2411
 8853W        W24747  12.864  17.927  11.259 -0.2293 -0.4111 -0.0561
 8854W        W24748   9.723  16.904  15.808  0.2163  0.1047  0.0704
 8855W        W24749   3.553   0.075  13.337 -0.1381 -0.1405 -0.2146
 8856W        W24750   6.089  14.959   4.036 -0.0553 -0.0687  0.0594
 8857W        W24751  16.758   2.036  15.881  0.1158  0.1858  0.0705
 8858W        W24752   2.525   6.220  12.122 -0.2535 -0.1755 -0.5084
 8859W        W24753   0.011  15.490  13.371 -0.1324 -0.0862  0.1113
 8860W        W24754  10.940   2.893   2.653  0.1877  0.5004  0.3129
 8861W        W24755   5.809   0.284  15.348 -0.0129  0.1892  0.2960
 8862W        W24756   9.848   3.907   6.193  0.0738  0.0904  0.3966
 8863W        W24757   3.489   8.397   1.198 -0.2979  0.1895 -0.0203
 8864W        W24758   8.359   8.132  15.011  0.0223 -0.1958  0.0630
 8865W        W24759  17.470  17.697  13.086  0.1589 -0.0367 -0.0909
 8866W        W24760   9.618   1.909  16.055 -0.1780 -0.1056  0.2823
 8867W        W24761  13.825   8.011   0.029  0.1933 -0.0801  0.1333
 8868W        W24762   0.342   3.326  13.979 -0.0543  0.0767 -0.1549
 8869W        W24763   6.254   5.021  15.682 -0.1113  0.1102  0.0698
 8870W        W24764  11.818  16.238   4.364 -0.1878  0.3554  0.1455
 8871W        W24765  11.905   9.703   0.613  0.2916  0.1482  0.0274
 8872W        W24766  16.604  12.336   5.357  0.1265 -0.4342 -0.1707
 8873W        W24767   6.306   7.866   2.297 -0.1964 -0.5520  0.0969
 8874W        W24768  10.886  15.274  14.413  0.0630  0.1125 -0.0447
 8875W        W24769  12.672  10.684  12.302 -0.3903  0.1951  0.1594
 8876W        W24770  16.877   0.099   2.913  0.1939  0.1106 -0.0192
 8877W        W24771   2.752  14.558   2.231 -0.0270 -0.3845  0.0758
 8878W        W24772   1.534  15.817   2.111  0.1289  0.1250  0.0863
 8879W        W24773   0.776   1.237   0.552  0.1463  0.0007 -0.0996
 8880W        W24774   1.610   0.231   1.192 -0.0444  0.0767 -0.0859
 8881W        W24775   6.178  15.065  13.063 -0.0276 -0.1142  0.0051
 8882W        W24776  15.539  13.245   2.745 -0.0484 -0.0138  0.1829
 8883W        W24777  12.261   7.610  15.497  0.2053  0.0724 -0.0286
 8884W        W24778  10.282  10.419   3.055 -0.1199  0.0753  0.2863
 8885W        W24779   8.576  11.398   0.593  0.3027  0.2231 -0.2270
 8886W        W24780   6.115   8.485   2.078 -0.0906 -0.0033 -0.2272
 8887W        W24781  13.482   4.739   2.125 -0.3665 -0.0095  0.3705
 8888W        W24782  14.151  15.225  12.366 -0.0060 -0.2346 -0.0412
 8889W        W24783  13.471  11.307  12.440  0.0668  0.0433 -0.2268
 8890W        W24784   2.115   3.733   0.463  0.0379 -0.1307 -0.2624
 8891W        W24785  15.861  18.065   4.716  0.0664  0.3875 -0.1311
 8892W        W24786   7.554  13.003  14.686 -0.2717 -0.3369  0.0828
 8893W        W24787  11.856   4.802  14.217  0.0404  0.0101 -0.0163
 8894W        W24788   6.127  14.774   2.234  0.0237 -0.0032  0.1301
 8895W        W24789  11.990   3.462  15.972  0.2157 -0.0755  0.0321
 8896W        W24790   8.845   8.845  15.573  0.0631  0.1441 -0.3426
 8897W        W24791  13.333   6.162  14.983 -0.3918 -0.1323 -0.2794
 8898W        W24792   6.713   9.282  12.469  0.1439  0.2231 -0.1648
 8899W        W24793   5.888   3.314  13.875  0.0888  0.0296 -0.1669
 8900W        W24794   9.184   6.011   4.630  0.2603 -0.0146  0.0364
 8901W        W24795   0.640   9.241   3.398 -0.1869 -0.1922  0.1619
 8902W        W24796   5.478   5.786   3.154  0.1247 -0.3506 -0.1922
 8903W        W24797   5.833   3.402   0.036  0.0510 -0.0455  0.1452
 8904W        W24798  13.145  11.945  13.635  0.1831 -0.1530  0.0162
 8905W        W24799   3.254  17.029   4.702  0.1395  0.6321  0.1855
 8906W        W24800  11.077   7.275   3.357 -0.0288 -0.0469  0.4353
 8907W        W24801   9.943   3.210  15.218 -0.1044 -0.0088  0.0087
 8908W        W24802   1.089   8.035  14.455  0.0337  0.1350 -0.1813
 8909W        W24803  16.038   6.946   6.000 -0.0589 -0.2532  0.2993
 8910W        W24804   8.792  12.025  15.136  0.2799  0.0297 -0.1846
 8911W        W24805   4.790  10.721  13.575  0.0915 -0.3161  0.0102
 8912W        W24806   7.562   2.165  11.749  0.0767 -0.0197  0.0409
 8913W        W24807   1.687   9.579  15.806  0.1474 -0.1122 -0.3804
 8914W        W24808  17.254  13.583   1.888 -0.2054 -0.1316 -0.1973
 8915W        W24809   6.146   8.176  13.085 -0.1061 -0.0529  0.1721
 8916W        W24810  13.028  12.931   0.692  0.1038  0.1373 -0.1934
 8917W        W24811   6.942   5.124  14.923  0.1276 -0.0572 -0.0173
 8918W        W24812   6.881  15.237  15.556  0.0714  0.0065  0.2460
 8919W        W24813  13.829   1.163  13.225  0.0135 -0.3143 -0.1224
 8920W        W24814   3.211  17.966  14.149 -0.1686  0.1185  0.2849
 8921W        W24815   0.581  15.724   4.794  0.3484  0.2365  0.2053
 8922W        W24816   1.487   4.655  15.731  0.0354  0.0462 -0.0267
 8923W        W24817   4.047  16.635   1.969 -0.1018 -0.1478 -0.1588
 8924W        W24818   5.817  16.798   4.623 -0.2282  0.0206 -0.1331
 8925W        W24819   9.265   9.305  14.910 -0.2554  0.0642 -0.0888
 8926W        W24820   7.320  15.295  11.697  0.0612  0.1907  0.0786
 8927W        W24821   1.248  11.607  12.959 -0.2342 -0.0756  0.0864
 8928W        W24822  16.897   3.590   3.472  0.1446 -0.1519  0.2585
 8929W        W24823   7.224   6.551   4.332  0.2077 -0.0068 -0.1220
 8930W        W24824   7.023  10.545  10.893 -0.3178 -0.1358  0.0183
 8931W        W24825   7.586  10.716  11.509  0.2864  0.2520 -0.1166
 8932W        W24826  15.336  12.476  12.654 -0.2088 -0.3882  0.4644
 8933W        W24827   3.183  16.355   4.551  0.2203  0.0226  0.1238
 8934W        W24828  15.002   6.607   5.423 -0.2691 -0.2149 -0.2989
 8935W        W24829   6.522  12.954   5.363  0.1364  0.3774 -0.1274
 8936W        W24830  16.991  14.394   4.642  0.2228 -0.0623  0.0199
 8937W        W24831   5.642  13.922  14.648  0.1367  0.0440 -0.0921
 8938W        W24832   1.143  16.607  12.570 -0.2391  0.0742 -0.1041
 8939W        W24833   4.896  16.576   1.839 -0.1874  0.0277  0.2799
 8940W        W24834  15.596   0.900  10.880 -0.1690 -0.1535 -0.0461
 8941W        W24835   0.496   0.085  14.175 -0.0542 -0.1929 -0.4850
 8942W        W24836  14.958  12.691   1.776 -0.1710 -0.1003 -0.0253
 8943W        W24837   1.120   8.379   3.594 -0.2352 -0.0268 -0.2148
 8944W        W24838  15.367  15.038   2.687  0.4226 -0.0171 -0.0561
 8945W        W24839  15.614   5.059   5.735  0.1600  0.1449  0.0327
 8946W        W24840  11.004   7.155   1.482 -0.1116  0.2471 -0.1095
 8947W        W24841   9.303   7.173   1.761 -0.1294  0.1353 -0.0829
 8948W        W24842   1.746  10.212  14.310 -0.3021  0.2012  0.0971
 8949W        W24843   1.601  15.964  13.052  0.2420  0.0261 -0.1118
 8950W        W24844  12.510   8.823  12.054  0.0564  0.1123  0.0734
 8951W        W24845  13.856   3.325  12.353  0.1255 -0.0409  0.0159
 8952W        W24846   4.935   7.298   0.845  0.1636 -0.2265 -0.0252
 8953W        W24847   6.045   7.953   1.082  0.0004 -0.2793  0.0300
 8954W        W24848  13.927  12.795   5.949  0.2729  0.1498 -0.0906
 8955W        W24849   2.754  17.019   2.267 -0.0809  0.0287  0.3976
 8956W        W24850   5.656  13.992   1.623  0.0897 -0.0667  0.1566
 8957W        W24851   0.042  16.427   2.219  0.1680  0.1237 -0.0744
 8958W        W24852   2.103   6.231   2.890 -0.0586  0.1177  0.0978
 8959W        W24853  17.321   8.067   3.929 -0.3349 -0.1177 -0.3894
 8960W        W24854   3.268   5.146  13.829 -0.0559 -0.5607 -0.0589
 8961W        W24855   8.298   8.686  13.136  0.0693  0.4306 -0.3596
 8962W        W24856   5.440  13.282   4.941  0.3373  0.0551  0.0856
 8963W        W24857   3.316  12.357   2.259 -0.1383 -0.1703 -0.1464
 8964W        W24858   8.372   2.123   3.474  0.1504  0.1678 -0.1794
 8965W        W24859  17.888   9.618  15.164  0.1186 -0.0380 -0.2176
 8966W        W24860  15.245  10.642   5.734 -0.2134  0.3128  0.1994
 8967W        W24861  15.093   7.874   5.102  0.0931  0.0002  0.1826
 8968W        W24862  10.365  11.966  12.124 -0.1227  0.0928 -0.2545
 8969W        W24863   8.432  12.806   4.861 -0.1031 -0.0263  0.1535
 8970W        W24864   7.953  16.613   0.202 -0.1239  0.0927  0.0185
 8971W        W24865  10.607   0.326  13.738  0.0693 -0.0173  0.2133
 8972W        W24866  12.038  15.854   0.971  0.2527 -0.2845 -0.0947
 8973W        W24867   5.276   5.566   0.808 -0.3328  0.2351  0.1522
 8974W        W24868  16.738   3.137   0.569  0.1536  0.0212 -0.0357
 8975W        W24869   9.296   3.507   4.039  0.4460  0.2550  0.2669
 8976W        W24870   6.022   0.977  15.106 -0.1041 -0.1465  0.1238
 8977W        W24871  14.226   2.208   2.964 -0.0061  0.0816 -0.1034
 8978W        W24872  17.999  10.611   0.600 -0.0026 -0.0637 -0.1439
 8979W        W24873  12.459   0.027   3.126 -0.1378  0.0830 -0.0310
 8980W        W24874  10.196   4.358  15.178 -0.4346 -0.1679 -0.1382
 8981W        W24875   6.073   8.080  14.113  0.2522  0.3063 -0.0586
 8982W        W24876   8.712  12.838   3.263 -0.1068  0.3486 -0.2319
 8983W        W24877   0.962   0.200  13.203  0.0746  0.0253  0.0827
 8984W        W24878   1.475   1.227   3.995  0.0963  0.0451 -0.0359
 8985W        W24879   4.967   7.320   5.471 -0.1125  0.0014  0.0454
 8986W        W24880  15.304  11.305   1.106 -0.0823  0.0416 -0.1396
 8987W        W24881  14.813   9.714   1.017  0.1786  0.1729  0.3496
 8988W        W24882   6.153   2.119   3.660  0.1337 -0.2718  0.2771
 8989W        W24883  10.555   7.632   0.361 -0.2503  0.0357  0.3542
 8990W        W24884  14.082  16.217   4.832 -0.4369  0.0070  0.3209
 8991W        W24885   7.013  17.528   2.138 -0.1569 -0.1460 -0.4114
 8992W        W24886   3.580   5.922   1.696 -0.3654 -0.2447 -0.4445
 8993W        W24887  18.001   9.569  13.578 -0.0511  0.2623 -0.2499
 8994W        W24888   2.030   4.973   3.472  0.1725 -0.4882 -0.0022
 8995W        W24889   0.587  10.377  14.156  0.1035 -0.4392  0.2944
 8996W        W24890  16.854   6.949   5.753 -0.2805 -0.0381 -0.1658
 8997W        W24891   2.162  16.882   2.263 -0.0459 -0.0755  0.4459
 8998W        W24892  14.495   3.938   4.486 -0.0211  0.1628  0.0916
 8999W        W24893  18.190  17.497   2.597  0.0573 -0.3061 -0.0071
 9000W        W24894  16.416   0.006   0.044  0.2625  0.1934 -0.2354
 9001W        W24895  17.805  14.585   2.835 -0.2192  0.4063  0.1723
 9002W        W24896   4.911  10.852   0.603  0.1552  0.2444 -0.2142
 9003W        W24897   5.406  10.401   2.435  0.0127  0.1297  0.1933
 9004W        W24898   7.035   4.949   0.283 -0.1636  0.2128  0.1926
 9005W        W24899   1.937  16.266  12.229 -0.0751 -0.1376 -0.0223
 9006W        W24900  16.328   0.117  14.560  0.0320  0.1466 -0.0601
 9007W        W24901   3.996   1.794   2.450  0.0711  0.1170  0.1347
 9008W        W24902  17.600  16.956  12.004  0.0173  0.0677 -0.1580
 9009W        W24903   2.579   1.110  12.719 -0.1029  0.0578 -0.2180
 9010W        W24904   8.415  16.556  16.095 -0.2214  0.3366 -0.0266
 9011W        W24905   5.938  12.674   2.428  0.0712  0.1042 -0.1995
 9012W        W24906   8.330  16.002  16.031  0.0864 -0.3169  0.0020
 9013W        W24907   0.185   2.209  14.449  0.2736 -0.1960  0.1901
 9014W        W24908   9.170  10.828   3.606 -0.1179 -0.2688 -0.0007
 9015W        W24909   6.224  15.758  12.054  0.1452  0.2447  0.0757
 9016W        W24910   8.512  17.242  15.426 -0.0941  0.0152 -0.2152
 9017W        W24911   6.687  14.251   1.186  0.1257 -0.2143 -0.2366
 9018W        W24912  12.965  11.302  15.448  0.0132  0.0159  0.1692
 9019W        W24913   7.798   9.538   1.816 -0.0906 -0.3075  0.3347
 9020W        W24914   7.018   1.303   1.970 -0.0396 -0.0535  0.0589
 9021W        W24915   6.002  15.656   4.799 -0.1448 -0.2117  0.2953
 9022W        W24916   1.996   1.041  15.089  0.1046  0.0833  0.2028
 9023W        W24917  17.900  16.255   2.847  0.1208 -0.0794 -0.0222
 9024W        W24918  12.132   9.268   3.741 -0.0266 -0.0271 -0.0339
 9025W        W24919   6.386  17.864   1.559  0.0288  0.1347 -0.0853
 9026W        W24920   7.383  18.053   3.490  0.1958  0.0418 -0.2236
 9027W        W24921  15.905   2.913   4.909 -0.0511  0.3010  0.0085
 9028W        W24922  16.705   8.362  13.444  0.0323 -0.0861 -0.1582
 9029W        W24923   6.308  17.964  12.784  0.1411  0.0036  0.0781
 9030W        W24924   1.551  11.756   6.268 -0.0554  0.3704 -0.1308
 9031W        W24925   0.893  11.136   2.413  0.0809 -0.2184 -0.0275
 9032W        W24926   9.548   4.070   4.647  0.0012 -0.2215  0.0990
 9033W        W24927  14.969   4.235   4.778  0.1108 -0.1335  0.0298
 9034W        W24928   7.439  12.802   1.681 -0.0495  0.0798 -0.1240
 9035W        W24929   7.997   5.715   2.997 -0.0750  0.0352  0.1737
 9036W        W24930  13.345  16.946   2.104 -0.2070  0.0316  0.3769
 9037W        W24931   0.512  11.571  15.720  0.2230 -0.0439  0.0499
 9038W        W24932  13.153   1.064  11.477 -0.3453 -0.4498  0.1562
 9039W        W24933  10.905  13.197  12.763  0.4360 -0.0542  0.0441
 9040W        W24934  13.417   9.489  11.311 -0.1219  0.0039  0.1772
 9041W        W24935   9.383   6.477  10.909 -0.0886 -0.1387  0.2349
 9042W        W24936   1.897  15.497   4.825 -0.1475 -0.0220 -0.0679
 9043W        W24937   0.188  13.935   2.232 -0.2783  0.3240 -0.2770
 9044W        W24938   8.677   4.491  15.974 -0.0761 -0.0301 -0.1441
 9045W        W24939   7.267  16.530   2.521 -0.0168 -0.0178  0.1560
 9046W        W24940   1.307  12.337   3.021 -0.2371  0.2144 -0.2919
 9047W        W24941   3.731   4.418  15.902  0.1046 -0.2298  0.3831
 9048W        W24942   5.614   3.593  15.369  0.0516 -0.3659  0.1338
 9049W        W24943  10.649  10.537   2.654  0.0923  0.1318  0.0480
 9050W        W24944  15.201   3.342   2.135 -0.4492  0.0523  0.0018
 9051W        W24945  17.636   3.659  16.309 -0.0264  0.0334  0.1611
 9052W        W24946   5.744  12.866  16.127  0.0081 -0.0584  0.0156
 9053W        W24947  10.190  17.791   1.289 -0.3601 -0.0505  0.0610
 9054W        W24948   6.707   7.811  15.753  0.1158 -0.0833 -0.2123
 9055W        W24949   9.504  14.697   2.688 -0.0149 -0.0341  0.0854
 9056W        W24950   3.202   7.602  14.999 -0.0564  0.1332 -0.0109
 9057W        W24951   7.169  10.678  15.596 -0.0050  0.0138 -0.3980
 9058W        W24952   6.625   2.099  14.137 -0.1082  0.1797  0.0260
 9059W        W24953   7.404   4.176  14.772  0.3031  0.1630 -0.1782
 9060W        W24954   8.516   8.828   2.515 -0.0884  0.0480 -0.1597
 9061W        W24955   7.124   5.711  11.534  0.0817 -0.2629  0.0573
 9062W        W24956  14.384   4.964   0.642 -0.1053 -0.0068  0.0906
 9063W        W24957  12.974   2.975   4.903  0.0463  0.1944 -0.3800
 9064W        W24958   2.985   3.891   0.372 -0.0667 -0.0746 -0.1893
 9065W        W24959   0.471  17.213   1.101  0.1902  0.1691  0.1899
 9066W        W24960   3.440  15.314  16.044 -0.0497 -0.1076  0.0973
 9067W        W24961  10.316  11.009  14.859 -0.0912  0.1730 -0.4465
 9068W        W24962  13.740   3.074  11.760 -0.1074 -0.0015  0.3870
 9069W        W24963  12.834   8.125   4.185 -0.0462  0.0574 -0.0831
 9070W        W24964  17.846  17.864   3.632  0.1066  0.0616 -0.1674
 9071W        W24965  14.723  11.161   2.378  0.1104  0.0558 -0.1015
 9072W        W24966  11.665   0.540   3.521 -0.3623  0.0695 -0.2345
 9073W        W24967   4.370  10.179  14.332  0.1589  0.2250  0.1190
 9074W        W24968   9.866   8.201   2.351 -0.2490 -0.3726  0.1657
 9075W        W24969   8.438   8.062  11.660  0.0145  0.2037 -0.1524
 9076W        W24970   2.317  13.690   4.722  0.0741 -0.0462  0.0803
 9077W        W24971  17.952   1.960  15.737 -0.2203  0.0348 -0.0889
 9078W        W24972  14.977  13.250  12.470 -0.3268 -0.0345  0.0077
 9079W        W24973  11.209  14.928  13.196  0.2604  0.0235 -0.0190
 9080W        W24974   0.789   9.360  12.336  0.0223 -0.0109 -0.0770
 9081W        W24975   1.410  11.392   0.964  0.1949 -0.0531 -0.1427
 9082W        W24976  12.755   9.515  12.616  0.6825 -0.0509 -0.0893
 9083W        W24977   5.251   7.903  12.162 -0.0189  0.2350 -0.2345
 9084W        W24978  14.100   8.641   4.580  0.1868 -0.2882  0.1750
 9085W        W24979   4.422  17.664   2.925  0.0580  0.0924 -0.0734
 9086W        W24980   0.882   8.566   6.233  0.0877  0.2138  0.1102
 9087W        W24981   4.968  15.516   0.927 -0.0654  0.4026 -0.1822
 9088W        W24982   5.835  16.461  13.706 -0.1439  0.0698 -0.0764
 9089W        W24983  14.925  13.103  11.505  0.1980 -0.0084 -0.2850
 9090W        W24984   4.896   5.191  13.041 -0.1031  0.1744 -0.1819
 9091W        W24985   6.033   4.641   5.955 -0.0273 -0.3201 -0.1922
 9092W        W24986   6.932  11.845   1.145  0.0521 -0.0304 -0.0083
 9093W        W24987  10.486   3.531   4.996  0.1073  0.2224 -0.0704
 9094W        W24988  14.108  13.716   1.282  0.0672 -0.0935 -0.0858
 9095W        W24989  11.526   2.458  12.313 -0.0975 -0.1717  0.0680
 9096W        W24990   8.263  12.226   5.554  0.2216 -0.0560 -0.3317
 9097W        W24991  17.967   5.874  13.500  0.1735 -0.1005  0.0048
 9098W        W24992   5.106   5.604   4.938 -0.1443  0.2449 -0.0196
 9099W        W24993  16.428   8.554   3.186  0.1815  0.1304  0.0676
 9100W        W24994  16.961   5.286  16.173 -0.0048 -0.0919 -0.0140
 9101W        W24995  14.323   6.237   4.659  0.2308 -0.0823  0.1781
 9102W        W24996   0.646  15.348  15.570 -0.5093  0.1496 -0.2183
 9103W        W24997   0.807  11.803   0.265 -0.0399  0.0175 -0.0966
 9104W        W24998  16.639  10.283  15.486 -0.1645  0.3149 -0.0402
 9105W        W24999  12.791   7.731   5.063 -0.1206  0.1453  0.3789
 9106W        W25000   9.651  14.678   4.166  0.0340 -0.1468  0.1491
 9107W        W25001   0.925   2.861  12.309 -0.0236 -0.0955  0.0718
 9108W        W25002   0.328  12.266   1.199 -0.5385 -0.2973 -0.2526
 9109W        W25003  10.522  16.093   0.543  0.0397 -0.0575  0.0048
 9110W        W25004  12.370   0.208  13.546  0.0965  0.1465 -0.3643
 9111W        W25005   6.627   6.526   1.931  0.1516  0.1752 -0.1929
 9112W        W25006   9.388  11.437   4.275 -0.1042 -0.1975 -0.0759
 9113W        W25007  13.569  14.513   1.093  0.0091 -0.1717 -0.1210
 9114W        W25008   7.926   4.580  15.799  0.1230 -0.2599 -0.0800
 9115W        W25009  12.212  10.738  12.574 -0.0531  0.0253  0.1179
 9116W        W25010   0.406   1.818  11.708  0.1118 -0.0430 -0.2654
 9117W        W25011   8.871   9.937  13.491  0.0544 -0.1138  0.1188
 9118W        W25012   7.931   7.970   3.020 -0.1322 -0.2926 -0.0370
 9119W        W25013   5.082   5.065  13.458 -0.1436 -0.2945 -0.0699
 9120W        W25014  18.044  15.302   2.647  0.0202  0.0713  0.2284
 9121W        W25015   5.402   1.391  11.861 -0.0804 -0.4607 -0.2134
 9122W        W25016  15.125   5.037   0.217 -0.0323  0.1921  0.2227
 9123W        W25017   7.144   0.004  14.434  0.0886  0.1473  0.0312
 9124W        W25018   3.829  13.120  12.195  0.1948  0.1722 -0.1476
 9125W        W25019  12.598   3.845  11.421 -0.0825  0.1315  0.0592
 9126W        W25020   5.953   6.811  12.064  0.0783  0.0637  0.0496
 9127W        W25021   6.269   0.832   5.018  0.0620 -0.0476 -0.1195
 9128W        W25022  15.591  11.395   4.102  0.2453 -0.1150 -0.4845
 9129W        W25023   9.683   9.339   0.002  0.1258 -0.0171  0.0278
 9130W        W25024  13.624   6.520  15.734  0.4561  0.1623  0.0585
 9131W        W25025   3.076  14.784  14.295 -0.5916 -0.1988 -0.0622
 9132W        W25026  16.811  11.179   1.630  0.0309 -0.0032  0.1434
 9133W        W25027   9.660  17.924   2.407 -0.3334  0.0615  0.1563
 9134W        W25028  11.357   9.326  13.411 -0.0605 -0.1635 -0.2011
 9135W        W25029   9.510  11.457  10.114  0.4309  0.0689 -0.1059
 9136W        W25030   1.788   6.570  11.782  0.2698  0.0164 -0.0103
 9137W        W25031  13.352  13.863  11.795 -0.0466 -0.2723  0.1363
 9138W        W25032   4.400  10.425   3.265  0.1442 -0.1210  0.0002
 9139W        W25033   1.452   8.413   2.780  0.3377  0.1365 -0.0982
 9140W        W25034  14.896   5.510   0.032 -0.1763  0.0841 -0.0817
 9141W        W25035   1.898  14.433  15.923 -0.2114 -0.0143 -0.0170
 9142W        W25036  16.713  15.728   2.621  0.0095  0.0345  0.0768
 9143W        W25037   6.526  12.845  13.024 -0.3399  0.0050  0.1541
 9144W        W25038   5.844   9.894   4.571  0.0710 -0.2083 -0.3296
 9145W        W25039  13.627  17.805  14.619 -0.1054  0.0049  0.3318
 9146W        W25040  10.167  11.405   4.562  0.2656 -0.0509  0.1287
 9147W        W25041  11.943   0.773  16.438  0.1408  0.1672 -0.1568
 9148W        W25042   4.026  12.564   1.101  0.0111  0.2093 -0.2577
 9149W        W25043  15.447   6.953   2.472 -0.0706  0.1112 -0.1621
 9150W        W25044   2.218  17.259   4.828 -0.0887  0.3787 -0.0061
 9151W        W25045   8.556  12.782   1.107 -0.1270 -0.1049  0.5632
 9152W        W25046  15.962  17.875   2.615 -0.1486 -0.0711  0.0234
 9153W        W25047   7.784   9.569   1.329 -0.0653 -0.2084 -0.0933
 9154W        W25048   3.628   8.200  14.212  0.0897  0.1537  0.0612
 9155W        W25049  12.860   7.281  11.234  0.0824  0.2293 -0.3003
 9156W        W25050   0.032  13.391  12.946 -0.0616  0.0719  0.1259
 9157W        W25051   3.266   5.699   2.065 -0.0626  0.1371  0.0609
 9158W        W25052   7.089   1.036  12.756 -0.0368 -0.0377  0.1179
 9159W        W25053  16.251  16.464   5.388  0.1193  0.1672 -0.0294
 9160W        W25054  17.161  17.984   2.493 -0.2088  0.1441 -0.2163
 9161W        W25055  12.937  14.601  14.187  0.1326 -0.1127 -0.3817
 9162W        W25056  17.394   7.448   6.270  0.1166 -0.0770  0.0682
 9163W        W25057  17.896   3.762  13.958  0.1661 -0.2285  0.5089
 9164W        W25058   8.827  13.080   2.139 -0.2374 -0.3553  0.0071
 9165W        W25059   9.894   5.848  14.933  0.2770  0.2541  0.0558
 9166W        W25060   4.116  15.659  11.217  0.3724 -0.2614  0.2638
 9167W        W25061  14.892   7.596   5.575  0.2019 -0.1018  0.2218
 9168W        W25062   9.818   9.664  12.934 -0.1121  0.3853  0.1032
 9169W        W25063  16.245   8.520  13.355  0.1571  0.1948 -0.2420
 9170W        W25064   0.467  12.197  13.319  0.1354  0.2110 -0.3045
 9171W        W25065   6.991  18.029  14.863 -0.1522 -0.3369 -0.0203
 9172W        W25066   5.158   6.011  15.973  0.0428  0.1594 -0.1800
 9173W        W25067  17.587   4.909   5.323  0.0481 -0.1233 -0.0778
 9174W        W25068   8.154   6.713  14.781  0.1196  0.1335  0.1189
 9175W        W25069   4.422   1.259  14.373  0.0370 -0.1205 -0.0872
 9176W        W25070  14.196   3.617   3.390  0.0958  0.0894 -0.1857
 9177W        W25071  14.088   6.306  13.375 -0.1101  0.2089 -0.2931
 9178W        W25072  12.933   5.378  12.075 -0.3374 -0.1985  0.0350
 9179W        W25073   6.743  10.436  11.850  0.2667 -0.1590 -0.0516
 9180W        W25074  16.500  13.188   0.553 -0.0518  0.1898 -0.2713
 9181W        W25075  14.213   9.924  12.837  0.2003 -0.0610  0.1159
 9182W        W25076   5.748  17.866   1.103  0.0408  0.2567 -0.0112
 9183W        W25077   5.462  17.450  12.306  0.0872  0.2622 -0.4691
 9184W        W25078   5.756   2.255  12.979 -0.1697 -0.0865  0.0014
 9185W        W25079  15.091  12.091   1.985 -0.2257 -0.0466  0.0495
 9186W        W25080   4.261  15.155  12.414  0.0805  0.1036 -0.1614
 9187W        W25081  17.141  10.190   4.790  0.1079  0.4830  0.2342
 9188W        W25082  15.734  14.103  12.456 -0.0508 -0.2011  0.1308
 9189W        W25083   8.390   2.369   2.629 -0.2743 -0.0428 -0.0362
 9190W        W25084  11.276   3.370   1.852  0.0629 -0.0166 -0.1332
 9191W        W25085   1.862  15.539   1.041  0.2670 -0.1412 -0.0459
 9192W        W25086   4.638   2.720   2.633 -0.1026 -0.2096 -0.0614
 9193W        W25087   6.850  13.481  12.237 -0.1316  0.2482 -0.1916
 9194W        W25088   4.713   2.587   5.127  0.2276 -0.2010  0.2002
 9195W        W25089  11.615   5.404  12.278 -0.0775 -0.1194 -0.0470
 9196W        W25090  10.713   2.814  12.562  0.1152  0.1108  0.2280
 9197W        W25091  14.974  15.341   0.476 -0.0403  0.4001 -0.1364
 9198W        W25092  17.889   1.503   3.965  0.2429 -0.0489  0.3170
 9199W        W25093   0.553  14.259   2.363 -0.0024  0.2860  0.2784
 9200W        W25094   4.778   4.117  11.549  0.2068  0.1112 -0.0894
 9201W        W25095   3.978   2.725  13.053  0.0262 -0.0719 -0.1771
 9202W        W25096  15.231   5.382  16.121  0.2650  0.1994  0.0796
 9203W        W25097  13.999  14.570  13.748 -0.0186  0.1253  0.1801
 9204W        W25098  11.400   5.545   4.828  0.0218 -0.2074  0.1630
 9205W        W25099  12.051   1.073  14.680 -0.2726 -0.0581  0.0637
 9206W        W25100   2.578  11.542  13.678  0.1243 -0.1228 -0.0959
 9207W        W25101   1.168   0.908  12.509  0.0975 -0.0751 -0.4631
 9208W        W25102  18.182   9.295  14.448 -0.2091 -0.2712 -0.0669
 9209W        W25103  14.793  15.946  16.217  0.1372  0.2221  0.0043
 9210W        W25104  17.639   2.786  11.916  0.3187  0.0484  0.1715
 9211W        W25105   1.950  12.085   5.360 -0.2061  0.0095 -0.2011
 9212W        W25106   6.950   1.610   5.768 -0.1671 -0.0754 -0.0069
 9213W        W25107  10.036   5.253  10.791 -0.0676  0.1005  0.1445
 9214W        W25108  13.000  14.905  14.825  0.2586  0.1187  0.0730
 9215W        W25109  13.389  17.682   1.270  0.1453  0.0826 -0.2111
 9216W        W25110   6.621  16.920  10.806 -0.3955  0.3672 -0.1422
 9217W        W25111   6.787   6.267   2.312 -0.1805 -0.1086 -0.1695
 9218W        W25112  14.459   6.817  13.091 -0.0384 -0.1105  0.0970
 9219W        W25113   1.932   0.998   3.210  0.1094  0.0516 -0.1544
 9220W        W25114   5.278   9.445   1.066  0.2299 -0.1945 -0.2154
 9221W        W25115  15.979   8.912   3.265 -0.0542  0.0411  0.0574
 9222W        W25116   6.422   0.480   5.887 -0.2570 -0.0833 -0.1606
 9223W        W25117   6.329  14.080   2.805  0.1707  0.2703 -0.3064
 9224W        W25118  17.317   1.772   3.716 -0.0810  0.2065 -0.1856
 9225W        W25119   7.191  15.393  14.306  0.2364 -0.3477  0.1374
 9226W        W25120   5.003   5.047   1.582  0.0256 -0.0692  0.0424
 9227W        W25121   8.782   3.498   4.588 -0.0716  0.1555  0.0502
 9228W        W25122  13.987   1.018   0.683 -0.2655 -0.1458  0.0439
 9229W        W25123   0.566   4.691   4.157 -0.0992 -0.0584 -0.1339
 9230W        W25124   9.320   3.081  13.198  0.2365 -0.0463 -0.0546
 9231W        W25125  17.606  10.086   6.589  0.0844 -0.0419  0.0027
 9232W        W25126   6.430  16.642  11.905  0.1578  0.1397 -0.2270
 9233W        W25127  12.161  14.746  11.526 -0.1070  0.1840 -0.0928
 9234W        W25128  13.482   8.648   2.961  0.0495  0.1433 -0.0339
 9235W        W25129  17.998   2.408   4.235  0.1289 -0.0431 -0.1832
 9236W        W25130  16.323  14.818   5.725 -0.0328  0.1645 -0.3912
 9237W        W25131   2.597   4.544   2.929  0.1099  0.1034  0.0569
 9238W        W25132   8.983   6.719  12.969  0.0951 -0.1676 -0.2846
 9239W        W25133  11.989  12.993   3.864 -0.0939 -0.0730 -0.0099
 9240W        W25134  13.517  13.005  15.206  0.1362 -0.0544 -0.0474
 9241W        W25135   5.602   0.571   2.106  0.1318  0.0734  0.0401
 9242W        W25136   3.632   9.975  12.679  0.0265  0.2387 -0.0180
 9243W        W25137   6.173   1.913  15.737 -0.1854 -0.0048  0.0852
 9244W        W25138  17.704   1.546   3.510 -0.1678  0.1360  0.0714
 9245W        W25139  14.857  11.686  16.115  0.0715 -0.0268  0.1288
 9246W        W25140  17.222   0.768  15.222  0.0740 -0.0519  0.2363
 9247W        W25141   9.146  15.841   5.678 -0.0328 -0.2936 -0.1307
 9248W        W25142   3.417  12.325  12.814 -0.1254 -0.0404 -0.0416
 9249W        W25143   7.487   2.073  14.598 -0.2399  0.1252 -0.2139
 9250W        W25144   2.839   3.392   3.431  0.2513  0.1343  0.2450
 9251W        W25145  11.850   0.037   3.384  0.2287 -0.2600 -0.2877
 9252W        W25146   2.735  11.527  16.432 -0.1021 -0.0990  0.0203
 9253W        W25147  18.157   2.169  12.599  0.0967 -0.0373  0.5071
 9254W        W25148  14.948  15.219  15.604 -0.1330 -0.1063 -0.1400
 9255W        W25149  11.628  11.272  12.184 -0.2993 -0.0643  0.2168
 9256W        W25150  17.549   7.723   3.539  0.0971  0.0341  0.2094
 9257W        W25151  17.551   5.121  12.263 -0.0822 -0.0415  0.1245
 9258W        W25152  12.745   4.455  14.257 -0.0949 -0.3901 -0.0892
 9259W        W25153   1.958   9.329  14.007  0.1145  0.0026 -0.2138
 9260W        W25154   1.021  16.078   2.554 -0.0206 -0.1191 -0.1824
 9261W        W25155  10.360  11.235   2.076 -0.2673 -0.0143 -0.3024
 9262W        W25156  18.175   2.415   2.898 -0.0265  0.4243  0.0707
 9263W        W25157   7.914  11.581  15.197  0.1348  0.1857  0.1117
 9264W        W25158   1.862   8.502  15.719  0.1645 -0.0408 -0.1920
 9265W        W25159   3.672   7.421   1.445  0.2058  0.4495  0.1361
 9266W        W25160   5.367  17.802   5.547  0.0793 -0.0068 -0.0263
 9267W        W25161  15.710   9.854   3.560 -0.1400 -0.3970  0.1956
 9268W        W25162   5.162  15.138   1.428  0.5900 -0.2209 -0.0937
 9269W        W25163  13.809  16.254   3.144  0.0409  0.0654  0.0771
 9270W        W25164  15.025   0.018  14.810 -0.3212  0.2944 -0.5017
 9271W        W25165   8.331  11.878  14.222  0.0521  0.2154 -0.0547
 9272W        W25166   8.797  10.334   1.130  0.1283 -0.1106  0.0993
 9273W        W25167  11.927   5.036   0.285 -0.1072 -0.0159 -0.1087
 9274W        W25168   9.963   6.880  15.670 -0.0620 -0.0054 -0.1721
 9275W        W25169  13.560  13.000   4.469 -0.0157 -0.1452  0.0595
 9276W        W25170   3.980  17.650   0.656  0.1585  0.3069 -0.0021
 9277W        W25171  17.205   1.916  10.881  0.3128  0.3129 -0.0665
 9278W        W25172   6.012  16.609  14.764  0.1786  0.1582  0.1430
 9279W        W25173  14.371  10.873   1.411  0.1895  0.1759 -0.2590
 9280W        W25174  14.379   3.385   3.805 -0.0655 -0.0878  0.1318
 9281W        W25175  14.529  13.936   3.993 -0.0187  0.3023  0.1838
 9282W        W25176   6.991   7.928   4.239 -0.0666  0.1949  0.0519
 9283W        W25177  13.822  17.656   1.450 -0.0898  0.1482 -0.2749
 9284W        W25178  15.320   4.414   2.096 -0.2484 -0.0462 -0.0273
 9285W        W25179  15.385   3.313   0.720  0.1036 -0.0157  0.0028
 9286W        W25180   4.072  13.656  11.135  0.2348  0.0768 -0.0127
 9287W        W25181  15.071  17.867   2.212 -0.0443 -0.1138 -0.0102
 9288W        W25182   0.042  10.408  12.534 -0.1162 -0.4326 -0.1360
 9289W        W25183   1.851   9.741   3.670 -0.1778 -0.0032  0.1751
 9290W        W25184  13.063   1.000   4.047 -0.1477 -0.0819  0.2962
 9291W        W25185   8.049  10.959   2.675  0.3098 -0.1659  0.2450
 9292W        W25186   7.443   2.021   3.864 -0.0925 -0.0535  0.0849
 9293W        W25187   6.674   0.723  15.936  0.1269  0.0651 -0.0345
 9294W        W25188  10.707   6.312  13.765  0.1691  0.2982  0.2963
 9295W        W25189   9.130   4.117  16.211  0.0123  0.1856 -0.1924
 9296W        W25190   1.414   8.337   4.259 -0.2432  0.0704  0.0831
 9297W        W25191   2.757   1.709   1.297 -0.0839 -0.3941 -0.2425
 9298W        W25192   1.420   2.724   3.203  0.3348 -0.3139 -0.2078
 9299W        W25193  15.412  16.467   1.536  0.2765  0.0035  0.3131
 9300W        W25194  14.882   2.524   1.645 -0.1914  0.1921  0.2804
 9301W        W25195   0.834  11.480   3.005 -0.3168  0.4667  0.1194
 9302W        W25196   1.343  10.808   6.583 -0.2200  0.1543  0.1597
 9303W        W25197   1.871  13.667   3.474  0.0806 -0.1086  0.0404
 9304W        W25198   5.221   7.559   1.127 -0.2223 -0.1179 -0.3375
 9305W        W25199   2.530  14.633  14.353 -0.0697 -0.0332  0.3639
 9306W        W25200   1.014   0.007   4.607 -0.0732 -0.0160  0.0914
 9307W        W25201   5.785  12.216  13.237 -0.3708  0.0750  0.1110
 9308W        W25202   5.366  18.198   0.581  0.0178  0.1013 -0.1367
 9309W        W25203   1.464  11.816   3.493 -0.3676 -0.1525  0.2014
 9310W        W25204  15.811   4.497   4.598 -0.1494 -0.0466  0.0469
 9311W        W25205  13.872   5.165  15.867 -0.0771 -0.0359  0.1772
 9312W        W25206   1.915   1.864   1.565  0.1743 -0.0565  0.0115
 9313W        W25207   4.831   1.702   3.793  0.2244 -0.0267  0.4575
 9314W        W25208  13.847  13.361   1.590 -0.2466  0.2904 -0.0730
 9315W        W25209   4.241   9.127   3.330  0.1372 -0.2750  0.0445
 9316W        W25210   9.793   6.217  11.275  0.1030  0.1715 -0.0737
 9317W        W25211   8.184   8.966  11.331  0.0233 -0.3069  0.2685
 9318W        W25212   9.231  10.315   3.393 -0.2357  0.0294  0.0923
 9319W        W25213   8.133   6.070  10.154  0.0833  0.0635 -0.0175
 9320W        W25214   7.724  13.876   1.012 -0.0915  0.0140 -0.0798
 9321W        W25215  10.789   0.316   2.637  0.1331 -0.0670 -0.1503
 9322W        W25216  16.179  15.437  13.013 -0.0149  0.3488 -0.2644
 9323W        W25217  11.675   1.119  11.336  0.0264  0.0041 -0.3401
 9324W        W25218   3.675  17.977  13.784 -0.2490 -0.1410  0.1812
 9325W        W25219   9.288  10.790  16.228  0.1768  0.1777 -0.2183
 9326W        W25220  12.928   6.660  12.643  0.0993  0.0997 -0.2180
 9327W        W25221  13.460  18.115   1.779 -0.0159  0.1059 -0.0993
 9328W        W25222  17.004  11.861   3.954 -0.1096 -0.1397  0.4041
 9329W        W25223   2.011   1.152  14.098 -0.3468  0.3484 -0.0811
 9330W        W25224   4.040  15.044   0.560 -0.0916 -0.0119 -0.2292
 9331W        W25225  14.328  15.761  14.144 -0.2208 -0.0008  0.0520
 9332W        W25226  15.991  14.399   5.128  0.0714 -0.0415 -0.1496
 9333W        W25227   3.477  10.711   3.575 -0.1336 -0.0206 -0.0231
 9334W        W25228   8.753   9.877   2.223 -0.2421 -0.0919  0.2190
 9335W        W25229  12.257   6.162   1.299 -0.1073 -0.0015 -0.0708
 9336W        W25230  16.653   1.194  11.682  0.0799  0.2633 -0.0257
 9337W        W25231   4.879   5.807  13.817 -0.1410  0.1444 -0.0029
 9338W        W25232   4.961   1.153  16.436  0.1586 -0.0074 -0.0542
 9339W        W25233   5.066  10.701  12.696  0.1000  0.0923 -0.0138
 9340W        W25234  15.571  13.859   2.316  0.1845 -0.0751 -0.1268
 9341W        W25235  11.663   8.900  13.366 -0.0718 -0.2478  0.0138
 9342W        W25236  11.776   2.647  14.642  0.0677 -0.2163  0.1545
 9343W        W25237  14.800  17.619   1.055 -0.0037  0.0078  0.0640
 9344W        W25238  12.261   5.339   1.001  0.2207 -0.3133 -0.1453
 9345W        W25239  15.152   9.672   1.783 -0.1211  0.0756  0.0099
 9346W        W25240   1.823  17.084   3.865  0.0037  0.0999  0.1065
 9347W        W25241   2.136   4.986  13.541  0.0329  0.2698 -0.2019
 9348W        W25242  13.885   4.484  12.923 -0.0705 -0.2059  0.4514
 9349W        W25243   6.831  11.603   4.024 -0.1298  0.1492  0.2395
 9350W        W25244   2.559  14.235  15.599  0.2488 -0.1991  0.1052
 9351W        W25245   3.029  18.150   5.386  0.1183  0.2267 -0.0018
 9352W        W25246   6.385   5.548   0.072  0.2712 -0.1257  0.0201
 9353W        W25247   1.775   8.106  15.270 -0.0267  0.0838  0.2645
 9354W        W25248   9.411   8.311  12.644 -0.2877  0.1202  0.0372
 9355W        W25249   9.110   2.330  14.442 -0.1414  0.3182 -0.2823
 9356W        W25250   3.050   8.339   3.418  0.0193 -0.2835  0.3360
 9357W        W25251  13.191   9.935  15.009  0.0015  0.0907 -0.3549
 9358W        W25252   0.576   7.995   4.291 -0.0111  0.2614  0.0619
 9359W        W25253   4.865  14.201  12.275  0.2527 -0.1187  0.2914
 9360W        W25254  16.287   0.324   5.559  0.3703  0.1810  0.2184
 9361W        W25255   2.217   5.900  14.679 -0.2128  0.1230 -0.3615
 9362W        W25256  11.351  16.295   5.400 -0.2799 -0.4217  0.1071
 9363W        W25257  15.530  10.852  14.594  0.0932  0.0053 -0.1737
 9364W        W25258   0.878  10.775   1.407  0.0598  0.2860 -0.1015
 9365W        W25259  12.281   9.998  13.582  0.0752  0.1450 -0.1686
 9366W        W25260   9.111  10.497  12.925 -0.0096  0.1439  0.1013
 9367W        W25261  11.684  14.198   4.126  0.0893 -0.0686  0.0192
 9368W        W25262   5.092   7.739   0.626  0.0221 -0.0032  0.1710
 9369W        W25263  15.917   6.640   3.177 -0.2378  0.2495  0.2429
 9370W        W25264   8.668  12.253  12.377  0.0047 -0.1935 -0.1238
 9371W        W25265  14.273  14.630  11.394  0.1283 -0.0635 -0.0265
 9372W        W25266   5.125   9.771   4.100 -0.1251  0.1895  0.1544
 9373W        W25267   5.138   8.263  14.412 -0.1301  0.1721  0.0358
 9374W        W25268   4.061   6.736   3.889 -0.3079  0.0476 -0.2180
 9375W        W25269  15.185   8.658  15.871 -0.0299 -0.0597  0.2637
 9376W        W25270  12.018   1.570  13.255  0.0877 -0.1606  0.3696
 9377W        W25271   5.057  12.019   3.527 -0.0785 -0.1615 -0.0466
 9378W        W25272  10.733  13.486  14.256  0.0825  0.2943 -0.1457
 9379W        W25273  15.413  16.606   2.952  0.3631 -0.0921 -0.1636
 9380W        W25274   7.805  16.720   5.043  0.3347  0.1886  0.0786
 9381W        W25275   0.010   3.859   1.119  0.3651  0.0501 -0.0420
 9382W        W25276  12.548  14.751  12.403 -0.0882 -0.0908 -0.3022
 9383W        W25277   5.028  12.247   1.686 -0.0761  0.1379  0.0274
 9384W        W25278  14.629   8.030   0.229  0.1760  0.1370 -0.0686
 9385W        W25279  13.432  16.395  15.551 -0.1570 -0.0673 -0.2291
 9386W        W25280  14.474  12.010  13.161  0.2780 -0.0954 -0.0734
 9387W        W25281  17.655   8.444  14.024  0.1127 -0.2991  0.1027
 9388W        W25282   0.891  17.191   5.074 -0.0757  0.1876 -0.1381
 9389W        W25283   5.604  12.883   4.168  0.0945 -0.1264  0.1147
 9390W        W25284   9.207  12.651   0.404  0.1000 -0.0600  0.2658
 9391W        W25285  12.345   7.718  12.092 -0.0565  0.0358  0.1148
 9392W        W25286  10.446   5.119  13.749 -0.0147 -0.0157 -0.0300
 9393W        W25287   5.645  17.158   3.768  0.1924 -0.3017  0.0964
 9394W        W25288   8.640   0.650  12.698 -0.1051 -0.0211  0.0779
 9395W        W25289   3.210   3.053  11.940 -0.0504 -0.1776 -0.0096
 9396W        W25290   8.285  10.892  10.998 -0.0132  0.2326  0.1215
 9397W        W25291   9.212   3.563   2.523  0.4815  0.2065 -0.2097
 9398W        W25292   7.909   8.357   4.946  0.0044  0.6523 -0.1468
 9399W        W25293  12.991  13.718   4.114 -0.2813  0.0010  0.1561
 9400W        W25294   0.816  16.602   0.455 -0.1371 -0.0405 -0.2198
 9401W        W25295   6.141   4.579   1.576 -0.1465 -0.0498 -0.0935
 9402W        W25296  16.114   7.759   2.508 -0.0301  0.2264 -0.4574
 9403W        W25297   7.597   3.285   1.467 -0.3571  0.3058  0.1974
 9404W        W25298  11.637   9.233  15.799 -0.0621  0.1147  0.1835
 9405W        W25299  11.153  12.117  13.409 -0.1644  0.2005  0.1485
 9406W        W25300   6.047  12.113  11.982  0.2627  0.0521 -0.0699
 9407W        W25301   4.140  11.131  12.679  0.2117 -0.0118  0.1021
 9408W        W25302  14.666   1.682   0.874  0.0652 -0.1598 -0.1689
 9409W        W25303   8.200  13.103  12.533  0.0489  0.4558  0.3691
 9410W        W25304   7.055  13.124  11.137 -0.0661  0.1798 -0.0209
 9411W        W25305   9.690   0.647  14.029 -0.1271  0.0915 -0.1099
 9412W        W25306   4.757   3.933   0.303  0.2312  0.3286 -0.0997
 9413W        W25307   2.101  11.857   6.273  0.1463  0.0874 -0.0249
 9414W        W25308   6.410  10.371   2.108 -0.0061  0.1168  0.0804
 9415W        W25309   9.899   5.271   1.722  0.2054  0.2814  0.0106
 9416W        W25310   4.474   8.990  12.073  0.0728 -0.0812  0.2823
 9417W        W25311  10.143   3.501  15.566  0.2014 -0.2622 -0.0744
 9418W        W25312  12.270  12.208  11.946 -0.0369  0.1826  0.3192
 9419W        W25313  13.124  17.846   3.900 -0.0336 -0.3263  0.1478
 9420W        W25314  14.058  10.768  15.838  0.0174 -0.1329 -0.3207
 9421W        W25315   6.822   3.330   5.613 -0.0438 -0.1200 -0.0615
 9422W        W25316   2.528  14.743   5.082 -0.4314  0.1340  0.3303
 9423W        W25317  13.145   5.126   3.930 -0.3300  0.0341 -0.2714
 9424W        W25318   5.636   7.110   3.883  0.0547 -0.1862 -0.0040
 9425W        W25319  13.594  17.236   1.372  0.1004 -0.0496 -0.1238
 9426W        W25320   9.088  15.533  14.913  0.0530  0.0058  0.2859
 9427W        W25321  13.158  12.145   0.512 -0.0969  0.1015 -0.1535
 9428W        W25322   0.016   9.412   6.138  0.0641 -0.0139 -0.1772
 9429W        W25323  10.566  11.946  11.227 -0.1925  0.2041  0.3279
 9430W        W25324   8.583  17.214  14.028  0.1169 -0.1175 -0.0517
 9431W        W25325   7.673   7.612   3.725 -0.2308  0.1954  0.0754
 9432W        W25326  15.319  16.165   1.144 -0.3535 -0.2562  0.0872
 9433W        W25327  17.422   4.155   3.571  0.1259 -0.0105  0.0305
 9434W        W25328  16.373  13.778   5.763  0.1239  0.1676 -0.1738
 9435W        W25329   5.714  14.591   5.679 -0.4119  0.1836 -0.1366
 9436W        W25330   1.877  10.583   3.510  0.4923 -0.0304 -0.2422
 9437W        W25331  10.655   5.204  14.947  0.2611  0.1001  0.0014
 9438W        W25332  14.790  12.304  16.182  0.0099  0.3391 -0.0539
 9439W        W25333   6.497   1.095  11.105  0.0072 -0.1967  0.2993
 9440W        W25334   1.579   8.632   0.783 -0.2081 -0.3776 -0.0553
 9441W        W25335  17.433   5.650  13.524  0.2559  0.2552 -0.1829
 9442W        W25336   7.278  15.442  13.530  0.1734 -0.3538 -0.3454
 9443W        W25337  10.708   4.769   0.180 -0.0518  0.1171 -0.1306
 9444W        W25338   4.139   5.477   1.568 -0.0288 -0.1493  0.4210
 9445W        W25339   3.293  15.740   0.543  0.4241  0.0395 -0.0391
 9446W        W25340   0.103   0.723   2.311  0.0544  0.1773  0.1604
 9447W        W25341  12.773  17.576   3.569  0.1791 -0.0648  0.1206
 9448W        W25342  16.933  13.714  15.943  0.3645  0.2092 -0.1827
 9449W        W25343  16.769   2.222   4.049  0.1659 -0.1515 -0.4009
 9450W        W25344   8.859   0.501  11.170  0.1011 -0.1033  0.0080
 9451W        W25345   7.190  13.037  15.655  0.1234  0.2168 -0.1151
 9452W        W25346   3.986   8.284  15.975 -0.2238  0.4132 -0.0931
 9453W        W25347   8.641  11.812   1.768 -0.0655 -0.3719  0.2365
 9454W        W25348  13.307  17.467   3.588  0.1140  0.1173  0.3047
 9455W        W25349   2.158  13.756   1.680  0.1535  0.2091  0.1717
 9456W        W25350   1.279  17.582  14.126  0.1717 -0.0521  0.0668
 9457W        W25351  14.143  17.244   1.461 -0.0941  0.0119  0.0747
 9458W        W25352   5.070   3.669  15.091  0.0880  0.3886 -0.1028
 9459W        W25353  15.096  17.229   0.171 -0.0033  0.1666 -0.2510
 9460W        W25354   6.723  10.727  15.274  0.1025 -0.1261  0.0899
 9461W        W25355   7.269  12.417  15.048 -0.0961 -0.1083  0.0928
 9462W        W25356   6.423   2.775  11.467  0.0340 -0.1616  0.2240
 9463W        W25357  12.763  16.456   0.099  0.1779  0.1437 -0.1240
 9464W        W25358   7.155  15.883   2.908 -0.2039 -0.2498 -0.0311
 9465W        W25359   0.468   2.218   0.010  0.1156 -0.1430 -0.1911
 9466W        W25360   0.894   6.433  15.724 -0.3589  0.0009 -0.2065
 9467W        W25361   4.296   4.838  14.758  0.1099  0.0557 -0.0902
 9468W        W25362  17.192   2.831   2.892  0.1317 -0.3535  0.2451
 9469W        W25363   6.541   9.219  13.404 -0.2494  0.0059  0.1092
 9470W        W25364   7.651   8.106   3.381  0.0285  0.0856  0.1321
 9471W        W25365  12.504  16.777  15.710  0.3543  0.0448 -0.2886
 9472W        W25366   1.075  14.555   5.601 -0.5312  0.2043  0.0955
 9473W        W25367  15.988   5.284   2.730 -0.1601 -0.2682 -0.1064
 9474W        W25368  11.124   8.074   5.143 -0.0809  0.1323 -0.1733
 9475W        W25369   2.125  12.913   1.848 -0.1248 -0.0239 -0.1166
 9476W        W25370  10.899   6.991  12.806  0.0840 -0.2211 -0.0073
 9477W        W25371  14.399   2.653   4.918  0.0550 -0.0969  0.3909
 9478W        W25372  17.208   7.550  13.826 -0.1632  0.3069 -0.4907
 9479W        W25373  10.448  17.354   4.333 -0.1374  0.2329  0.0112
 9480W        W25374  18.140   5.717   3.724  0.1874 -0.1071  0.0346
 9481W        W25375  13.086   9.752   2.572 -0.0546 -0.0705 -0.1356
 9482W        W25376  10.021   1.029  13.910 -0.2643  0.0830 -0.2089
 9483W        W25377  17.901   0.514   2.502 -0.2331  0.2583  0.0034
 9484W        W25378  15.729  13.057  10.625 -0.1180 -0.2507 -0.0053
 9485W        W25379   7.391  11.922   5.074 -0.1344  0.2031 -0.2535
 9486W        W25380   2.285   3.646  12.187  0.3992  0.3171 -0.2057
 9487W        W25381  17.049   8.530   3.812 -0.0766  0.1055  0.2033
 9488W        W25382  15.939   3.927  14.693 -0.2616 -0.0699  0.1178
 9489W        W25383  11.812  10.372   1.379  0.3128  0.1073  0.0932
 9490W        W25384  16.129  12.905  15.193  0.2146  0.1030  0.3140
 9491W        W25385   8.696   7.470  14.632  0.0140  0.0981  0.1473
 9492W        W25386   0.356   9.150  14.631  0.0870  0.0307 -0.0046
 9493W        W25387   1.416  16.503  15.978  0.2451 -0.1775  0.0186
 9494W        W25388   2.575   0.474   4.155  0.1054  0.3096  0.3677
 9495W        W25389   6.396  10.737   4.915 -0.1338  0.0981 -0.0697
 9496W        W25390   6.992  10.680   4.809  0.3125 -0.1398  0.0116
 9497W        W25391   7.841  12.476  11.994  0.1502  0.1959 -0.0954
 9498W        W25392   6.333  10.460  15.482 -0.0772 -0.1410  0.2018
 9499W        W25393   3.902   5.137   0.669  0.1494  0.2154  0.2052
 9500W        W25394   1.398   5.681  15.413  0.4781 -0.0954  0.2296
 9501W        W25395   4.657   5.665  15.633 -0.1206  0.2762  0.1155
 9502W        W25396   2.165  12.047   2.375  0.0388  0.2896 -0.2425
 9503W        W25397   3.854  16.497  12.370  0.0739 -0.0270 -0.2305
 9504W        W25398  14.683  17.145   2.960 -0.0136 -0.1218 -0.1474
 9505W        W25399  16.094  15.950   5.511 -0.3401 -0.0028  0.0629
 9506W        W25400   8.061  11.594   5.435 -0.1025  0.1220 -0.1195
 9507W        W25401   5.135   1.795   1.790  0.1930  0.1897 -0.2334
 9508W        W25402   9.393   6.000   1.341 -0.1699  0.0794 -0.0865
 9509W        W25403   5.539  16.088  13.405  0.4466  0.0669 -0.0166
 9510W        W25404  13.056  16.735  14.918 -0.2552 -0.0599 -0.1442
 9511W        W25405  15.416   0.216  15.107  0.1610  0.3478 -0.6188
 9512W        W25406   7.947  15.158   5.707 -0.0646 -0.0811 -0.0249
 9513W        W25407   4.058   8.513  14.711  0.3262  0.3585 -0.1703
 9514W        W25408  10.072  10.353   3.851 -0.0203  0.0243  0.1064
 9515W        W25409  14.223  10.497  13.496 -0.3284  0.1611 -0.1683
 9516W        W25410   8.935  10.440  14.359  0.1095 -0.0559 -0.1360
 9517W        W25411   9.440   0.620   4.539  0.0075  0.2844 -0.0523
 9518W        W25412   6.398  17.870   4.003  0.1463 -0.0897 -0.0247
 9519W        W25413   6.930   4.047   1.666 -0.0721 -0.2126  0.1251
 9520W        W25414  17.877  15.402  12.099 -0.0835  0.1912  0.0185
 9521W        W25415   7.231   4.693  14.702  0.1825  0.1548 -0.0457
 9522W        W25416  11.074  10.430   0.806  0.0499  0.1537 -0.3750
 9523W        W25417  10.932  15.465   5.342  0.1986  0.2542  0.1631
 9524W        W25418   3.006  16.521  13.113  0.0628 -0.0039 -0.1083
 9525W        W25419   4.197   3.114  13.810 -0.0405  0.1708  0.0938
 9526W        W25420   7.593  16.028  15.639 -0.1455 -0.0250  0.0747
 9527W        W25421  10.438  10.853  11.074  0.0652  0.2816 -0.0740
 9528W        W25422   4.499   5.831  11.261  0.0869  0.3366  0.0237
 9529W        W25423  15.573   6.304   1.326 -0.0972 -0.0811 -0.3243
 9530W        W25424  15.338  11.717  15.807 -0.2848  0.0437 -0.2393
 9531W        W25425  17.439  10.398   3.644 -0.0756 -0.2968 -0.1996
 9532W        W25426  17.918  14.918   3.628 -0.2662 -0.2808 -0.3790
 9533W        W25427   5.161  17.397  16.402  0.1621 -0.3429  0.4998
 9534W        W25428   6.561   6.523  12.590  0.2047 -0.2432  0.1596
 9535W        W25429  17.785  13.320   1.770  0.5309 -0.0224  0.0892
 9536W        W25430   6.306   7.142   5.502  0.2561  0.0660 -0.4258
 9537W        W25431  15.313  17.009  13.572 -0.2598  0.2151  0.1820
 9538W        W25432  10.132  14.016   2.886 -0.2368  0.1054  0.0690
 9539W        W25433  15.680  16.388   0.029 -0.2402 -0.1133  0.0065
 9540W        W25434  10.032  16.253   1.789 -0.1128 -0.0090 -0.1269
 9541W        W25435  16.976   1.569   2.988  0.1186  0.1348 -0.3649
 9542W        W25436   8.140  14.716  12.851 -0.3624  0.0747  0.1649
 9543W        W25437   1.963  11.278   5.035  0.3072  0.2088 -0.2800
 9544W        W25438   7.716  13.864  15.709  0.1699 -0.0014  0.1013
 9545W        W25439   3.331   0.379  14.701  0.0472 -0.1471  0.0429
 9546W        W25440  16.642  15.281  16.332  0.2638  0.1947  0.2965
 9547W        W25441  14.761   9.313  15.656  0.4600  0.1009 -0.0326
 9548W        W25442  12.595   2.395  12.155  0.4319  0.0493  0.0955
 9549W        W25443   9.846   6.169   1.544  0.1584  0.0068  0.1987
 9550W        W25444  18.233  18.020   1.558  0.1434  0.1653  0.0217
 9551W        W25445  11.845  12.520  11.896 -0.0291  0.2682 -0.1350
 9552W        W25446  16.374   6.700  14.134 -0.0671 -0.0493  0.0976
 9553W        W25447   7.588  17.652   3.791  0.1151 -0.3542  0.3347
 9554W        W25448  16.268  17.252   2.222 -0.2422  0.3028 -0.3944
 9555W        W25449   9.596   0.952   0.926 -0.5189  0.2773 -0.0824
 9556W        W25450  17.375  13.223   6.811 -0.0042  0.1299 -0.1767
 9557W        W25451  13.509   0.566   2.272 -0.0902  0.1530  0.2137
 9558W        W25452  10.596   5.581  15.803 -0.0565 -0.1885 -0.0452
 9559W        W25453  10.860   7.743   2.092  0.2419 -0.0593 -0.1310
 9560W        W25454  13.969   2.759   2.404  0.0915 -0.1994 -0.1925
 9561W        W25455  14.405   9.414   1.199 -0.0840 -0.2354 -0.0716
 9562W        W25456  11.977   6.873  15.484  0.1732  0.2735  0.1254
 9563W        W25457  17.930   7.187   3.307  0.0465 -0.0750  0.0616
 9564W        W25458   1.259   5.969  15.841  0.0009 -0.0497  0.4475
 9565W        W25459  18.100   7.491  15.798 -0.0123  0.3228  0.2141
 9566W        W25460  13.201   7.119  12.757  0.0894  0.0941 -0.0817
 9567W        W25461   1.238   4.141   3.649  0.1203 -0.2106 -0.0134
 9568W        W25462   7.301   0.498  12.851 -0.2644 -0.3744 -0.2602
 9569W        W25463   2.226   3.642   4.588  0.1067 -0.1790 -0.0638
 9570W        W25464   6.014  11.411   0.116 -0.2596  0.1550 -0.1222
 9571W        W25465  12.631  10.150   4.702 -0.0875  0.1165  0.0105
 9572W        W25466   0.550  12.883  14.526 -0.1945  0.0157 -0.0415
 9573W        W25467   7.856  13.384   3.367  0.0730  0.0398 -0.2288
 9574W        W25468   1.853  14.184   5.416  0.0624 -0.0865 -0.0114
 9575W        W25469  10.587   0.840  11.380  0.0392  0.1931  0.0701
 9576W        W25470  14.975  12.847   5.480  0.1582 -0.2377  0.2213
 9577W        W25471  17.319  16.353   4.080  0.1731 -0.0916  0.1528
 9578W        W25472   2.605   8.224  15.925 -0.2528 -0.0631  0.0438
 9579W        W25473  16.144  12.967   0.992 -0.2899 -0.1767 -0.1825
 9580W        W25474  11.627   0.236   0.762 -0.0702 -0.2604 -0.1960
 9581W        W25475   8.690  11.557   3.818  0.1391 -0.0079  0.0253
 9582W        W25476   4.214   6.228  13.610  0.0275 -0.1571  0.1539
 9583W        W25477   6.466  10.950  13.738 -0.2651  0.0381 -0.1107
 9584W        W25478   9.580   7.013  14.216  0.1149  0.2136 -0.1015
 9585W        W25479   3.664  16.044  12.294  0.0617  0.1343  0.0813
 9586W        W25480  10.496   2.648   1.821  0.3005 -0.0849 -0.4738
 9587W        W25481   6.421   0.973  16.275 -0.0195 -0.1733 -0.0330
 9588W        W25482   9.312  15.965  13.243 -0.1230  0.1411  0.1713
 9589W        W25483   2.082  16.479  15.169  0.2396  0.3155  0.0387
 9590W        W25484   8.218   3.950   0.179 -0.1566  0.0465  0.1371
 9591W        W25485  12.432  10.897   5.202  0.0560  0.2639 -0.4325
 9592W        W25486  12.868   1.615   5.011  0.0498  0.1818  0.1795
 9593W        W25487  13.489  12.904   2.313  0.3186 -0.2394 -0.1326
 9594W        W25488   3.022  16.959   6.104  0.0304 -0.2999 -0.0455
 9595W        W25489   6.945   6.863   2.272 -0.3252  0.1648 -0.0217
 9596W        W25490  12.362   9.589  14.075 -0.0590  0.0463 -0.0033
 9597W        W25491  14.224   0.110   2.192 -0.1095 -0.4995 -0.0715
 9598W        W25492  15.375  16.162  15.043 -0.0958 -0.2253 -0.2295
 9599W        W25493  16.480   6.895   0.193 -0.3056  0.1686 -0.0688
 9600W        W25494  11.033   0.661   2.348 -0.0429 -0.0247  0.0283
 9601W        W25495  12.938  11.464  12.791  0.0919 -0.1488 -0.0805
 9602W        W25496   2.940  10.591  13.886  0.4073 -0.3563 -0.1346
 9603W        W25497   5.032   0.710  14.070 -0.1522  0.0424  0.1162
 9604W        W25498  11.931  12.454  14.524  0.2474  0.0972  0.3228
 9605W        W25499   0.511   1.056  14.941  0.1828 -0.0703 -0.3146
 9606W        W25500  10.760  13.665   5.468  0.1855  0.3186  0.2360
 9607W        W25501   5.300  17.838  15.136  0.0554 -0.0782 -0.1404
 9608W        W25502  13.812  10.171   0.909  0.2176 -0.1446  0.2090
 9609W        W25503  11.313   7.204   4.423 -0.1727  0.0567  0.3041
 9610W        W25504  17.952   9.070  12.275 -0.0109  0.0302  0.0275
 9611W        W25505   4.647  16.393   0.603 -0.0303  0.0502  0.2100
 9612W        W25506   6.556   2.100   1.594  0.1041  0.3008 -0.0504
 9613W        W25507   5.822   1.623   3.769  0.3275 -0.2150  0.0311
 9614W        W25508   8.375  10.637   4.262  0.2271 -0.1086  0.2002
 9615W        W25509  14.780   2.034   3.793  0.1446  0.0173  0.3138
 9616W        W25510   2.468   2.088   1.464 -0.2857  0.3795  0.1467
 9617W        W25511  11.280   0.202   1.698 -0.0848  0.5551 -0.1421
 9618W        W25512   5.416   4.866  12.461 -0.0646 -0.1260 -0.0504
 9619W        W25513   7.876  14.182  14.215 -0.0510  0.2467 -0.1120
 9620W        W25514  16.271   6.393   6.379 -0.0508 -0.1419 -0.0003
 9621W        W25515   1.525  10.827  12.466 -0.2434  0.0189  0.0661
 9622W        W25516  12.161   1.670   2.937 -0.0464 -0.2518  0.0016
 9623W        W25517  14.363  16.271  14.149 -0.0261 -0.1241 -0.1315
 9624W        W25518  16.077   0.677   3.097  0.0143  0.5504  0.0316
 9625W        W25519   4.573   0.955   3.014 -0.0823  0.2099  0.1802
 9626W        W25520   9.032   3.779  15.631  0.0248 -0.1599  0.0377
 9627W        W25521  12.206  14.217  14.483 -0.0939 -0.0737  0.0489
 9628W        W25522  14.575  15.169   1.970  0.2651 -0.0737  0.2156
 9629W        W25523   2.906  13.491  16.058  0.1051  0.1614 -0.0734
 9630W        W25524  14.209   5.877   4.353 -0.2384  0.0712 -0.2301
 9631W        W25525   7.304   1.926   5.459 -0.0991 -0.1231 -0.0738
 9632W        W25526   8.611  14.198   3.604 -0.1674  0.4481  0.0587
 9633W        W25527  12.036  16.849   3.654 -0.2634  0.2620  0.0797
 9634W        W25528   9.274  11.501   3.091  0.3307 -0.2453 -0.1790
 9635W        W25529   0.248   9.787   2.157 -0.1752  0.1118 -0.2479
 9636W        W25530  11.013  13.179   6.283 -0.0432  0.2012  0.2103
 9637W        W25531   6.779   0.229  10.856 -0.0481  0.1766  0.2398
 9638W        W25532   4.718  11.172   0.098 -0.1209  0.3477  0.1097
 9639W        W25533   2.338   5.256  15.658  0.0387 -0.2735 -0.0771
 9640W        W25534  12.858  14.018   2.725 -0.2247  0.3309  0.0735
 9641W        W25535  12.515   2.978  14.718  0.0240  0.0252  0.3006
 9642W        W25536   5.855   5.473  11.242  0.0625  0.1509  0.4557
 9643W        W25537   7.321   2.410   5.608  0.0377 -0.1622  0.4179
 9644W        W25538   2.484   5.607  10.025  0.1596  0.0711  0.0332
 9645W        W25539  10.116   2.943   1.937 -0.3160  0.2810  0.0161
 9646W        W25540   7.731   8.123  15.366 -0.0103 -0.2566 -0.0634
 9647W        W25541   6.158  11.002   1.569  0.1939 -0.0260  0.1051
 9648W        W25542   0.124   0.618  11.354 -0.3511 -0.0774 -0.0930
 9649W        W25543  18.160   4.597  13.927  0.0752  0.0870 -0.1731
 9650W        W25544   2.333  11.519   1.071 -0.0751 -0.1070  0.0826
 9651W        W25545   6.159   8.578  11.767  0.3309  0.1171 -0.3158
 9652W        W25546  15.970   0.480  15.734  0.2331 -0.1299  0.0498
 9653W        W25547  15.689   0.345   3.242 -0.2459 -0.0200  0.1807
 9654W        W25548   1.647   1.723   0.175 -0.1452 -0.0477 -0.2166
 9655W        W25549  15.085   8.603  15.081 -0.2529 -0.1252  0.2008
 9656W        W25550  15.897   0.369  14.795  0.0952 -0.1543 -0.0491
 9657W        W25551  16.543  15.578  15.880  0.0883 -0.1683  0.2994
 9658W        W25552  17.989   6.315   2.362 -0.2316  0.3187 -0.4623
 9659W        W25553  14.029   7.449  15.664  0.1152  0.0189  0.0137
 9660W        W25554   1.477  17.835  11.749 -0.0533 -0.0551 -0.1696
 9661W        W25555   8.878   7.487   2.114 -0.0497  0.0752 -0.2126
 9662W        W25556   6.787  15.907   2.011  0.0827 -0.1166 -0.0999
 9663W        W25557  16.821   8.827   5.448  0.0637  0.0818  0.3878
 9664W        W25558   6.018  16.529   2.133 -0.1487 -0.2090 -0.0262
 9665W        W25559  12.615  14.655   1.231  0.0285 -0.0481 -0.1735
 9666W        W25560   7.778  18.119  13.357  0.0113 -0.2542  0.1045
 9667W        W25561  12.652   4.970   1.088 -0.1854 -0.0420 -0.0038
 9668W        W25562   1.409   1.098   5.494  0.2074  0.0201  0.1121
 9669W        W25563   9.110   6.384  11.303  0.0202  0.5851  0.3012
 9670W        W25564   7.203   5.279  14.133  0.1051  0.1062  0.2201
 9671W        W25565  15.679   2.939  14.644 -0.0507 -0.4894  0.2323
 9672W        W25566   0.048  17.298  13.266 -0.1930  0.1049  0.1203
 9673W        W25567   4.419   2.318   1.375  0.2374  0.0139  0.1229
 9674W        W25568   6.037   6.216  11.052  0.1752  0.4141  0.1405
 9675W        W25569   4.019  16.012   5.976 -0.0500  0.1717 -0.1004
 9676W        W25570  11.008   7.410  14.124 -0.0722 -0.1618  0.2195
 9677W        W25571  14.216  14.189   1.701 -0.1633 -0.1519  0.2765
 9678W        W25572   3.516   4.327  12.284  0.1091  0.1658  0.2872
 9679W        W25573   4.397   8.147  14.681  0.3849  0.0302  0.3801
 9680W        W25574  10.783  15.179  14.979  0.0491 -0.3893 -0.2066
 9681W        W25575  12.917   5.652  11.095  0.0324  0.1999 -0.0549
 9682W        W25576   5.017  14.962  15.828 -0.0816  0.0623  0.3443
 9683W        W25577   9.557   2.498   3.883 -0.1243 -0.3140  0.4904
 9684W        W25578  16.148   7.127   2.454 -0.2251  0.2820  0.0840
 9685W        W25579   0.172   5.535  14.687 -0.0721 -0.0814  0.4163
 9686W        W25580  14.368  14.741   2.978  0.2529 -0.5646 -0.1418
 9687W        W25581  11.408   4.790  14.593  0.3252 -0.0173  0.1653
 9688W        W25582   3.035  15.716   0.089 -0.1380  0.0083  0.0206
 9689W        W25583  12.350   9.142  13.821  0.0552 -0.0260 -0.0477
 9690W        W25584   1.607   6.005  14.845  0.2516  0.3634  0.1253
 9691W        W25585  14.623  15.413   0.040  0.1178  0.2071  0.1022
 9692W        W25586   2.377   4.574  13.693  0.1847  0.2103 -0.3153
 9693W        W25587   6.385   8.304  16.258 -0.2180 -0.1121  0.0272
 9694W        W25588  16.614   4.843  14.166 -0.3551 -0.0352  0.1405
 9695W        W25589  13.547  13.840   0.519 -0.0765  0.0172 -0.0404
 9696W        W25590  12.469   0.647   5.968  0.1597 -0.0401  0.3317
 9697W        W25591  10.766   2.740  16.036  0.3063 -0.0070 -0.0975
 9698W        W25592  11.889   7.439   0.751 -0.0136 -0.0594  0.0416
 9699W        W25593   2.828  15.876  13.933  0.2160 -0.0800  0.2897
 9700W        W25594  10.888   0.051  15.540  0.0807 -0.3854  0.0783
 9701W        W25595   5.310  11.027   4.235  0.3337 -0.2629  0.2937
 9702W        W25596  11.574   1.183   5.922  0.3634  0.1749 -0.2829
 9703W        W25597   4.973   4.696  14.111  0.1330 -0.2090  0.0734
 9704W        W25598   0.213   6.226   3.904 -0.0241  0.0162 -0.3395
 9705W        W25599  12.147  14.860   4.067 -0.0222  0.0454 -0.1834
 9706W        W25600   8.304   9.988   2.589  0.1237 -0.1172 -0.1321
 9707W        W25601  10.305   6.240   2.035 -0.2150  0.0450  0.2365
 9708W        W25602   4.922   8.465   1.322 -0.3357 -0.0322  0.0260
 9709W        W25603   5.400   4.881   4.296  0.0120  0.1353  0.1041
 9710W        W25604   3.796   1.286  14.625  0.1318 -0.3457  0.0548
 9711W        W25605  12.386  10.394  14.008 -0.1007  0.1390  0.1487
 9712W        W25606  10.433   6.035   3.481 -0.0054  0.1438  0.1623
 9713W        W25607  12.107  18.095   4.716  0.1957  0.0633 -0.2519
 9714W        W25608   6.195  15.094   3.256  0.0421 -0.2760 -0.0747
 9715W        W25609  11.240   3.700  10.950 -0.1471 -0.2502 -0.0896
 9716W        W25610   1.359   4.368  14.527  0.1087 -0.1475  0.0659
 9717W        W25611   5.161   6.594   0.438 -0.1186 -0.1350  0.0633
 9718W        W25612  16.792   0.853   3.767 -0.0501  0.0122  0.0693
 9719W        W25613   6.959  15.078  10.421 -0.0476  0.0182 -0.5261
 9720W        W25614  17.746  17.979   0.040  0.1284 -0.3999 -0.0479
 9721W        W25615   4.704  15.199   4.469  0.3081 -0.2733  0.3028
 9722W        W25616   4.084  13.567   0.954 -0.0267  0.2653 -0.3676
 9723W        W25617   7.536   6.714  12.734  0.1148  0.0799 -0.1967
 9724W        W25618  10.508   5.364   1.626 -0.2794 -0.1607  0.1205
 9725W        W25619   3.388   5.914   0.383  0.0108 -0.0585  0.0215
 9726W        W25620   7.208  11.177   4.918 -0.0141  0.1322 -0.1078
 9727W        W25621   3.985  13.953  11.583  0.3318  0.0899  0.0952
 9728W        W25622  15.876  14.297   1.412 -0.1090 -0.2703  0.2280
 9729W        W25623  12.813  12.602  14.941 -0.0418 -0.2143 -0.0482
 9730W        W25624  13.584  11.902   5.698 -0.0272 -0.1799 -0.1765
 9731W        W25625   5.540   0.842   4.901 -0.2455  0.0354 -0.3860
 9732W        W25626  11.440  16.548   1.840  0.1039  0.1759  0.0859
 9733W        W25627   7.258   2.464   3.742  0.0784  0.1467  0.0413
 9734W        W25628   5.191   4.403  10.279  0.0043  0.2407  0.0963
 9735W        W25629   0.517  14.491  15.511  0.1756  0.0683 -0.2775
 9736W        W25630   0.947   1.121   5.247 -0.1196 -0.3768  0.0332
 9737W        W25631  11.522  17.159  12.492  0.0911  0.0058 -0.2538
 9738W        W25632   5.216  11.996   2.087  0.3303  0.4171  0.1081
 9739W        W25633  10.038   8.694   2.644  0.0266  0.3374  0.2244
 9740W        W25634  14.871  18.226   1.890 -0.0052  0.0313 -0.0135
 9741W        W25635   2.466  16.246   2.853  0.0158  0.1691  0.0509
 9742W        W25636  16.029  15.810   4.005  0.2584 -0.1092 -0.0028
 9743W        W25637   6.485   8.968  13.850 -0.1653  0.1953  0.0990
 9744W        W25638   2.284   4.208   0.594  0.0913  0.1388  0.0450
 9745W        W25639  10.901   6.828   3.059 -0.0874 -0.0081 -0.1221
 9746W        W25640   1.410   8.611  13.150  0.0249 -0.0228  0.1061
 9747W        W25641  11.226  14.205  15.361  0.2139  0.1463 -0.0354
 9748W        W25642   2.043  15.316   6.090  0.0966  0.0515 -0.0232
 9749W        W25643  12.255  11.399   2.258 -0.2441 -0.1013  0.0779
 9750W        W25644   7.261  14.065  11.887  0.3433  0.0367  0.0552
 9751W        W25645  11.826  15.243  11.876  0.0293 -0.0913  0.0822
 9752W        W25646  15.665  12.335  13.061  0.0315 -0.0751 -0.1029
 9753W        W25647  17.301  15.261   1.762  0.1130 -0.0058 -0.1160
 9754W        W25648   7.676   3.804  14.463  0.1080  0.2766 -0.2650
 9755W        W25649   9.531   6.601   3.509 -0.2657  0.1233  0.2104
 9756W        W25650   4.605   1.615   3.132 -0.2040 -0.0590 -0.1615
 9757W        W25651   2.555   7.193   0.641  0.0897  0.0791  0.3539
 9758W        W25652  16.293  15.675  13.836 -0.3324 -0.0913 -0.2201
 9759W        W25653  11.654   8.630   1.997  0.0031  0.2557  0.1402
 9760W        W25654   3.575  12.565   4.990  0.0880  0.0246  0.2341
 9761W        W25655   7.359   2.672  14.804  0.1534 -0.2379  0.0888
 9762W        W25656   3.276   4.329  12.736 -0.3340 -0.2818  0.3032
 9763W        W25657  15.475   1.586  16.433 -0.0402  0.0823 -0.0956
 9764W        W25658   3.482   1.659   4.246 -0.2634  0.3248  0.2533
 9765W        W25659  10.199   1.380  13.103 -0.0440  0.3310 -0.3406
 9766W        W25660   2.243  12.112  11.848  0.0467 -0.3537 -0.0874
 9767W        W25661  13.792  14.675  13.222  0.1517  0.2184 -0.1242
 9768W        W25662  13.650   0.983   3.193  0.1065 -0.0326  0.0863
 9769W        W25663  12.015   7.446  10.788 -0.0302  0.2877 -0.0045
 9770W        W25664  12.358  10.344  12.114 -0.0236  0.2131  0.0597
 9771W        W25665  11.262   7.251  12.461 -0.0793  0.3248 -0.0285
 9772W        W25666   7.847  11.877   0.613 -0.1293  0.0382  0.1577
 9773W        W25667  12.980   6.314   5.541 -0.0042 -0.0499  0.2748
 9774W        W25668   1.090  18.219   3.756 -0.2742  0.0321 -0.0511
 9775W        W25669  10.227  11.371  15.504 -0.1039  0.1510  0.1873
 9776W        W25670  17.315   8.669  13.683  0.2159  0.0474 -0.0657
 9777W        W25671   4.320  10.891  13.568  0.0861 -0.4974 -0.1125
 9778W        W25672   5.852   4.401  16.310 -0.1317  0.0346 -0.1302
 9779W        W25673   5.341  12.075   1.317 -0.2280  0.2078 -0.2184
 9780W        W25674   9.005  11.063   4.525 -0.3490 -0.2510  0.0497
 9781W        W25675  10.614   3.659  11.690  0.1718  0.1576 -0.0784
 9782W        W25676   8.869   1.223  15.711 -0.1309  0.1005 -0.0119
 9783W        W25677   5.673  18.202   5.862 -0.0172 -0.1662 -0.0714
 9784W        W25678  14.661  15.325   6.093 -0.2314 -0.1581 -0.2604
 9785W        W25679  17.816   5.655  13.957  0.0809  0.3594 -0.0537
 9786W        W25680   5.655   9.361   1.821 -0.0641  0.3141 -0.1400
 9787W        W25681   6.415  18.045  15.014  0.4608  0.1869  0.0336
 9788W        W25682  10.316   3.771   5.899  0.1385  0.0618  0.1610
 9789W        W25683   7.141  11.948   3.142 -0.1302 -0.0862  0.0909
 9790W        W25684   5.444   7.131  11.947 -0.0286  0.4012 -0.4083
 9791W        W25685   9.956   6.698  15.093  0.0990 -0.0553  0.4525
 9792W        W25686  16.189   0.427  12.428  0.0042  0.2444 -0.1753
 9793W        W25687  15.825  13.468  14.845  0.0367  0.3297 -0.3024
 9794W        W25688   6.078   3.301  15.354 -0.0367 -0.2880 -0.0893
 9795W        W25689   0.456  16.292   1.818  0.0189  0.1783 -0.4389
 9796W        W25690  14.907   5.314   1.838  0.1049  0.3497 -0.2727
 9797W        W25691   8.076  15.476  14.696  0.3104  0.0040  0.3083
 9798W        W25692  15.886   9.265   4.961  0.0420  0.0146  0.1561
 9799W        W25693  15.919  16.373  13.420  0.0102  0.2158  0.0782
 9800W        W25694  11.395   9.147  10.783 -0.1093  0.0488  0.1053
 9801W        W25695   8.822  18.038  15.289 -0.0526 -0.1127 -0.0170
 9802W        W25696   4.466  15.229  11.979  0.0380 -0.1815  0.0710
 9803W        W25697  11.437   7.273   0.371  0.1150  0.1525 -0.0815
 9804W        W25698   1.183  15.236   3.613  0.1647  0.0641 -0.0129
 9805W        W25699   8.750  10.145  13.062 -0.4233  0.1005  0.1993
 9806W        W25700   6.590   8.800  14.632 -0.0656 -0.0020  0.2448
 9807W        W25701  12.626  17.261  11.896 -0.0861 -0.0152  0.0255
 9808W        W25702  15.872   4.127   3.946 -0.2754 -0.4179  0.1280
 9809W        W25703   5.350   8.369   4.575  0.0333  0.1361 -0.3642
 9810W        W25704   1.794   0.653   0.924 -0.1747  0.4530  0.1455
 9811W        W25705  16.916   3.179  13.137  0.1647  0.0500 -0.3236
 9812W        W25706   8.060   1.714  12.866 -0.0550 -0.1807  0.1340
 9813W        W25707   0.607   5.692   0.860 -0.0786 -0.4928 -0.0176
 9814W        W25708  15.972   5.024  14.827 -0.0541 -0.3255 -0.2335
 9815W        W25709  17.068   6.569  13.566 -0.0757 -0.0265  0.2807
 9816W        W25710  16.627  11.990   2.513  0.2005 -0.2611 -0.2368
 9817W        W25711  12.531  14.118   0.469 -0.4417 -0.1482  0.3570
 9818W        W25712   3.818   9.053  11.841  0.0694 -0.1801 -0.1618
 9819W        W25713  15.860   9.156  12.538  0.1767  0.0964 -0.0554
 9820W        W25714  15.949   5.686  11.451  0.3370  0.1669 -0.0507
 9821W        W25715   8.863  15.283   5.514 -0.1360  0.2272  0.1281
 9822W        W25716  17.539   2.788  15.973 -0.1347  0.1472  0.0579
 9823W        W25717  10.936   0.595   1.109  0.1802  0.1070 -0.2890
 9824W        W25718   3.789   8.385   2.770  0.4704  0.0173  0.0513
 9825W        W25719  16.832  16.878  14.003 -0.1119 -0.1124 -0.0420
 9826W        W25720  15.790  16.092   0.902 -0.2014  0.3290 -0.0085
 9827W        W25721   8.113  13.834  14.783  0.3704 -0.1796 -0.0965
 9828W        W25722  17.893  17.119   0.002  0.1194  0.1229  0.0028
 9829W        W25723  17.026   2.043  12.399  0.1220 -0.1748  0.0553
 9830W        W25724   7.066   0.637   0.594  0.0895 -0.1229  0.0931
 9831W        W25725  14.477  14.443   4.468  0.2076 -0.1438  0.3280
 9832W        W25726   9.897  10.605  12.546 -0.0682  0.1772  0.2393
 9833W        W25727   2.517  13.198  15.854 -0.2530  0.0665 -0.0249
 9834W        W25728   8.082   5.707  12.518  0.2836  0.3646 -0.2790
 9835W        W25729   9.447   7.786  12.593 -0.0806 -0.3188  0.2421
 9836W        W25730   8.712   8.926  11.435 -0.0817 -0.3042 -0.0008
 9837W        W25731  16.342  11.544   4.342 -0.1318 -0.0302  0.1152
 9838W        W25732   1.568  16.640  12.236  0.1410  0.0197  0.0176
 9839W        W25733   9.356  12.008   5.451 -0.2804 -0.0224 -0.1665
 9840W        W25734   8.531   4.134  13.184  0.2731  0.0343  0.1844
 9841W        W25735  16.372   5.156  15.471  0.0232  0.0167  0.0131
 9842W        W25736  10.338  12.862   1.022  0.0335 -0.1212  0.0959
 9843W        W25737   9.492  16.730   4.538  0.1584  0.2177 -0.3053
 9844W        W25738   2.336  11.774  11.440 -0.0576 -0.1567  0.0622
 9845W        W25739   5.111   3.487  13.599  0.0926 -0.0654  0.0991
 9846W        W25740   5.547  13.351   4.431 -0.2645 -0.2734  0.0546
 9847W        W25741  17.954   6.000   1.952 -0.1026  0.1315  0.1865
 9848W        W25742  15.688   3.181   4.137  0.2605  0.3396  0.2072
 9849W        W25743  17.084   9.229   5.179  0.0695  0.0971 -0.1467
 9850W        W25744   1.261   5.763  11.261 -0.3040  0.1023 -0.3412
 9851W        W25745  15.396  17.736  10.896 -0.2084 -0.3475  0.0197
 9852W        W25746  15.071  13.116   4.664  0.1731 -0.0405  0.1737
 9853W        W25747  16.185   2.823  14.356 -0.2641 -0.4033  0.2273
 9854W        W25748  13.317  12.469  14.489  0.0205  0.0220  0.0572
 9855W        W25749   0.425   9.282   5.244 -0.0378  0.1082 -0.0104
 9856W        W25750   6.802   7.971  15.265 -0.1255  0.1493  0.1790
 9857W        W25751   9.547   3.992  13.153 -0.3249  0.0842 -0.2918
 9858W        W25752  12.447   9.952  11.300  0.3338 -0.1115  0.1582
 9859W        W25753  10.005  11.917   3.113  0.2467  0.0081 -0.0793
 9860W        W25754   1.776   9.468   4.256  0.1939 -0.1526 -0.0761
 9861W        W25755   2.197  17.226  12.853  0.0348 -0.4628  0.0137
 9862W        W25756   8.401   5.984   4.418 -0.2052 -0.0040  0.1578
 9863W        W25757   3.786  12.895   1.993 -0.0264  0.2034  0.0103
 9864W        W25758  11.299   9.705  14.261  0.3774 -0.3019 -0.2202
 9865W        W25759   5.349   8.497   3.618 -0.0034 -0.1417  0.0091
 9866W        W25760  12.434   3.289   3.972  0.0850  0.0805  0.2098
 9867W        W25761  11.200   9.793  11.245  0.1781 -0.1955 -0.2304
 9868W        W25762   5.779  12.924   1.526 -0.4546 -0.1001 -0.0541
 9869W        W25763  11.519   0.785   4.513  0.0868 -0.3020 -0.1478
 9870W        W25764   8.217  12.812  14.772  0.0719 -0.4534  0.4117
 9871W        W25765  16.747  10.722   4.189 -0.1958  0.0653 -0.0306
 9872W        W25766   1.350  14.288   5.273  0.0342 -0.1486  0.1817
 9873W        W25767  16.357  13.598  12.225 -0.0366  0.5979  0.3336
 9874W        W25768   6.751   8.421   3.371  0.0264  0.0225 -0.2153
 9875W        W25769   2.741   5.609  10.429 -0.0457  0.0671 -0.1054
 9876W        W25770   8.175  14.088   2.668  0.0625  0.0250  0.2256
 9877W        W25771  15.207   2.230  11.224 -0.1252 -0.0135  0.3147
 9878W        W25772  13.444   5.099   5.265  0.1331 -0.2330 -0.0644
 9879W        W25773  15.196  13.383  12.892  0.1168 -0.0544 -0.1839
 9880W        W25774  16.559   5.842  14.689  0.0934  0.0433 -0.1136
 9881W        W25775   5.246   3.991  15.472 -0.1185  0.0204  0.0691
 9882W        W25776   1.091   3.563   0.312  0.1267 -0.4226  0.4940
 9883W        W25777  10.018  11.208   2.460 -0.1843  0.1670 -0.1576
 9884W        W25778  15.815  13.473   5.664 -0.1812 -0.2245 -0.0149
 9885W        W25779   4.340  14.224   1.175  0.0576  0.0704 -0.1696
 9886W        W25780  10.898   4.045   5.352 -0.0876  0.1876  0.2188
 9887W        W25781   6.644  17.046   0.578  0.1440 -0.1514  0.4374
 9888W        W25782  13.101  14.036   0.859  0.1886 -0.0495  0.5679
 9889W        W25783  10.034  17.755  11.796 -0.0151 -0.1252 -0.3675
 9890W        W25784   6.934  14.377  15.234  0.2794 -0.0439 -0.0107
 9891W        W25785   4.818   7.364  14.555  0.0003 -0.1421 -0.0500
 9892W        W25786   8.388  17.572   1.641  0.3240 -0.3320  0.2775
 9893W        W25787   5.133   3.953  12.353  0.0890 -0.0539  0.4002
 9894W        W25788  14.911  11.974  13.466  0.2732 -0.1003 -0.0323
 9895W        W25789  14.269   1.003  12.440  0.1590  0.3307 -0.0015
 9896W        W25790  13.512  12.310   3.193 -0.1892  0.0343  0.3524
 9897W        W25791   8.569  17.257   3.173 -0.0295 -0.1741  0.1669
 9898W        W25792  15.747   6.448   0.341 -0.0737  0.1133 -0.2129
 9899W        W25793   7.963  14.782  14.788 -0.1350 -0.0710 -0.1778
 9900W        W25794   3.886  15.270  16.198  0.0918 -0.0210  0.3183
 9901W        W25795   5.612   9.561  14.450 -0.0889 -0.0267  0.1653
 9902W        W25796   6.326  15.397   0.935  0.0384  0.2282  0.1263
 9903W        W25797   7.052   7.811   2.033  0.0021  0.1885  0.1823
 9904W        W25798   4.918  10.559   2.320  0.0313  0.3690  0.2555
 9905W        W25799  16.443  10.696  14.705  0.1043  0.1632  0.1316
 9906W        W25800  17.217   0.488   0.127 -0.0346 -0.1919  0.0760
 9907W        W25801   4.798  10.476   1.672  0.0055  0.2048 -0.1188
 9908W        W25802   1.851   6.924  13.184  0.2128  0.1467  0.0876
 9909W        W25803   8.198   7.142  12.764 -0.1422 -0.1364  0.0290
 9910W        W25804   0.218  12.457   5.787  0.0397 -0.0857  0.1538
 9911W        W25805   9.778   2.375   4.873  0.1117 -0.1137  0.3455
 9912W        W25806   3.404  10.856   5.444 -0.0325  0.0571  0.0501
 9913W        W25807  13.863   1.465  15.480 -0.0315  0.2582 -0.1356
 9914W        W25808   1.207  13.132  14.952  0.0281 -0.0875  0.0676
 9915W        W25809   8.251  11.530  16.362 -0.0106  0.1348 -0.1203
 9916W        W25810   8.480   0.611  15.014 -0.1115 -0.3174  0.0927
 9917W        W25811  11.301  18.237  12.098  0.3675  0.2160  0.1169
 9918W        W25812   5.721   3.634   3.382  0.0512 -0.1561  0.0597
 9919W        W25813   1.991  13.051  13.904  0.0432  0.2789  0.2200
 9920W        W25814   6.757  15.503   0.563  0.0732 -0.2156 -0.1764
 9921W        W25815   6.257  11.343  12.060 -0.3360  0.1681 -0.2884
 9922W        W25816   6.616   9.781   3.586 -0.0014 -0.1820  0.1795
 9923W        W25817   3.426   5.221   2.402 -0.1047 -0.1097  0.0459
 9924W        W25818   6.401   0.780  15.434 -0.0358  0.2129  0.5510
 9925W        W25819   8.476   1.883   4.028 -0.1572 -0.0569 -0.2495
 9926W        W25820  15.899  16.751  13.810 -0.0044 -0.0738 -0.2477
 9927W        W25821  12.292   4.317   0.225  0.0309 -0.0838 -0.0664
 9928W        W25822  11.635  15.028  12.288 -0.0124  0.0302  0.1822
 9929W        W25823  13.748   4.416  16.272  0.1076  0.3143  0.1712
 9930W        W25824  15.128   0.000   0.087 -0.1397  0.1255 -0.3204
 9931W        W25825   9.772   5.608   5.065 -0.1845 -0.1161  0.2463
 9932W        W25826  10.472   6.504   4.304  0.0937  0.3513  0.0250
 9933W        W25827   8.755   6.615   3.816  0.0176 -0.0095  0.0534
 9934W        W25828  17.752   8.613  12.946 -0.2085  0.1003 -0.1165
 9935W        W25829   3.928   9.665   4.995  0.0649  0.0586  0.1035
 9936W        W25830  14.870  16.929   4.865 -0.2068  0.1057 -0.0887
 9937W        W25831  13.977   0.395   2.520 -0.0430 -0.1529  0.1705
 9938W        W25832  12.890  10.873  14.226  0.2965 -0.1659 -0.0944
 9939W        W25833   7.766   4.537  14.798 -0.1234  0.0132 -0.0551
 9940W        W25834  12.169  15.411   4.844  0.1168  0.1854 -0.1265
 9941W        W25835   6.436   4.589  12.448  0.0236 -0.4044 -0.0683
 9942W        W25836  14.040   6.190   0.554 -0.3346  0.0675  0.1549
 9943W        W25837   4.839  15.157   1.980  0.0805  0.3349 -0.1174
 9944W        W25838   1.191   3.610  15.993 -0.0024  0.3158 -0.1792
 9945W        W25839   3.612   1.505  13.265  0.0601  0.0952 -0.0773
 9946W        W25840  18.231  14.102  15.034 -0.1207 -0.0265 -0.0562
 9947W        W25841  10.392   4.182   9.919 -0.0249 -0.3641 -0.0649
 9948W        W25842   7.657  18.212   4.910  0.0295 -0.1545 -0.0168
 9949W        W25843  12.556   5.248  13.711 -0.0983  0.2726  0.2918
 9950W        W25844  17.466  17.235  11.591  0.0545  0.0602  0.1984
 9951W        W25845  13.271   3.272  15.155  0.2349  0.2250  0.1778
 9952W        W25846   3.711   1.067   3.426 -0.3735  0.2564 -0.2621
 9953W        W25847   1.404  16.936   2.034  0.2363 -0.4060 -0.0729
 9954W        W25848   2.904  11.209  13.222 -0.5712 -0.2869 -0.1418
 9955W        W25849  17.009  14.618  11.746 -0.1369 -0.2650 -0.3144
 9956W        W25850  16.033   6.153   1.233  0.3878 -0.0269 -0.1273
 9957W        W25851  11.002  12.433  12.616  0.1038 -0.0011  0.3499
 9958W        W25852   1.916   3.961   3.562 -0.1586 -0.1961  0.1405
 9959W        W25853   3.988  11.848   2.488  0.2373  0.0079  0.2746
 9960W        W25854  12.745  11.575   1.143  0.3526  0.1376  0.0543
 9961W        W25855  13.897   8.175  13.039 -0.1762 -0.2274 -0.1007
 9962W        W25856  14.801   5.601  14.078 -0.0173  0.0020  0.2148
 9963W        W25857  14.296   0.975   3.866  0.0014 -0.0297  0.0909
 9964W        W25858  17.068   8.184   2.466  0.1416 -0.1855 -0.1616
 9965W        W25859  15.575  10.578   2.218  0.2342  0.2726  0.3241
 9966W        W25860  14.707  10.634   5.873  0.0521  0.0404  0.0480
 9967W        W25861   7.524   4.882   0.999 -0.0118  0.2075 -0.3573
 9968W        W25862   9.141  15.972   6.197  0.0889 -0.2230 -0.2325
 9969W        W25863  11.457   9.733  15.674 -0.0684 -0.0191 -0.1426
 9970W        W25864  14.494   3.377  11.471  0.1438  0.1066 -0.1883
 9971W        W25865   9.446  16.785  15.353  0.1750  0.2564 -0.0360
 9972W        W25866  17.250  11.140   1.887 -0.1768 -0.2087 -0.0266
 9973W        W25867   3.105   2.696  14.509  0.0296  0.1232 -0.0215
 9974W        W25868   1.076   2.735   4.148  0.2358 -0.0277  0.2810
 9975W        W25869  12.198   2.857  11.183  0.0715  0.0679  0.3828
 9976W        W25870  11.320  11.597  13.604  0.2353  0.0435  0.2127
 9977W        W25871   9.759   1.722   3.935 -0.0744 -0.0663 -0.3370
 9978W        W25872   8.581  15.634  15.988  0.1475  0.1259 -0.0626
 9979W        W25873  17.992  15.535  13.788  0.0548 -0.1295 -0.0161
 9980W        W25874  17.793   2.428  12.245  0.1089  0.2211 -0.0940
 9981W        W25875  11.121   3.769  11.877 -0.0619  0.0769 -0.2005
 9982W        W25876  17.302  15.989  15.224  0.0382 -0.0680 -0.1607
 9983W        W25877   9.818   4.195   3.085 -0.2284 -0.3344  0.2625
 9984W        W25878  14.170  11.106   4.271  0.1103  0.2550  0.1441
 9985W        W25879   0.081  12.063  15.805  0.1046 -0.0382  0.1286
 9986W        W25880   6.060  10.118  14.631 -0.0405 -0.0224 -0.3064
 9987W        W25881   8.546   9.499  16.345 -0.1523  0.0403  0.0611
 9988W        W25882  10.495  17.831  14.266  0.0822 -0.1697  0.1483
 9989W        W25883  10.236   5.007   5.410  0.0727 -0.3077 -0.0627
 9990W        W25884   2.291   0.704   3.427  0.1042  0.1069  0.2824
 9991W        W25885   6.345   2.336   1.184  0.0706  0.2257 -0.0800
 9992W        W25886  12.335   0.025   4.070  0.0754  0.0972 -0.0568
 9993W        W25887  16.296   0.556  15.323 -0.2099 -0.0146  0.2614
 9994W        W25888   5.259   4.878   0.271 -0.0168  0.1486  0.0239
 9995W        W25889  14.474   4.326   2.632 -0.2537  0.2456  0.1013
 9996W        W25890  13.606   1.329  14.357  0.2811  0.0340 -0.2199
 9997W        W25891   9.654   8.745  12.465  0.1627 -0.0957 -0.1516
 9998W        W25892  12.195   6.542  13.766  0.0553 -0.2012  0.4054
 9999W        W25893  17.460   5.725   3.385 -0.0833 -0.0001  0.3194
10000W        W25894  17.834  10.673  12.607 -0.2553  0.0318  0.0995
10001W        W25895   3.924   6.801   2.905 -0.0801 -0.2149 -0.2999
10002W        W25896   4.744  10.890  11.191  0.1946 -0.2214 -0.0178
10003W        W25897   5.758   4.099  13.054  0.0212  0.1586 -0.0800
10004W        W25898  15.709   7.687  12.729 -0.2404 -0.0364  0.2426
10005W        W25899   5.548   0.258  13.612 -0.0832  0.3555  0.0405
10006W        W25900   3.375   3.289  15.213  0.5345  0.2458  0.1098
10007W        W25901  11.405  10.142   1.058 -0.0813  0.0150 -0.0105
10008W        W25902  12.886  13.382   1.464  0.1245 -0.0521 -0.0918
10009W        W25903   9.099  15.030   2.602 -0.0361  0.0750  0.0028
10010W        W25904   9.529   7.306  10.400 -0.1094  0.1387  0.1738
10011W        W25905   1.590  13.828   5.157 -0.0842  0.1067  0.2131
10012W        W25906   7.250   0.329   3.192 -0.4241 -0.1285 -0.1131
10013W        W25907  12.704   5.093   2.744  0.5920  0.0253 -0.2067
10014W        W25908   8.830   5.090  11.057  0.1083 -0.1358  0.1300
10015W        W25909   4.953  12.670   0.544  0.2985  0.5670 -0.3622
10016W        W25910   6.153   8.329   4.273  0.1453 -0.2218  0.3275
10017W        W25911   5.624   4.518  12.745 -0.2183  0.0402 -0.0234
10018W        W25912  16.514   4.474  11.390  0.0433  0.1028 -0.2594
10019W        W25913  12.440   6.519   5.646  0.2333 -0.0298  0.3399
10020W        W25914   2.746  13.247   2.783 -0.2107 -0.1048 -0.1495
10021W        W25915   5.671   6.648  15.919  0.1594  0.2069  0.0584
10022W        W25916  12.464   1.349   5.172  0.0930  0.0172  0.4734
10023W        W25917  17.128   6.132   5.451  0.1042  0.1604 -0.1646
10024W        W25918  12.115   1.021   5.994 -0.0384  0.1782  0.2657
10025W        W25919  10.388   6.882   0.512  0.0794  0.2891 -0.0621
10026W        W25920  11.606  17.047  14.302  0.0103  0.0566 -0.3072
10027W        W25921   2.721   1.387   5.493  0.4644 -0.3048  0.1571
10028W        W25922  13.122  16.511  13.146  0.0591  0.0223 -0.0313
10029W        W25923  13.420   9.136  11.931  0.1101  0.1827  0.0663
10030W        W25924   5.900   2.721  12.185  0.4684  0.2407 -0.1721
10031W        W25925   5.887   0.494   9.994  0.1456  0.0536  0.2100
10032W        W25926  15.785   4.408   3.153  0.0368  0.1214 -0.0467
10033W        W25927  12.509  14.355  13.186  0.2066 -0.1865 -0.0047
10034W        W25928  17.675   9.432  15.902 -0.0625  0.0089  0.1158
10035W        W25929   7.156  11.201  15.658  0.0215  0.3682  0.4109
10036W        W25930  17.341  17.560   1.005 -0.0137  0.0676 -0.0283
10037W        W25931  14.997   4.207  11.500  0.0961  0.0305 -0.4655
10038W        W25932  14.202   4.252  10.024 -0.1168 -0.4746 -0.1462
10039W        W25933  10.454  10.332   3.571  0.1440 -0.1551  0.0880
10040W        W25934  12.722  16.029  13.768 -0.0829 -0.0394 -0.4134
10041W        W25935  13.323  17.010  16.194 -0.0596 -0.2221  0.1093
10042W        W25936   1.090  14.447   0.122 -0.0560 -0.2143  0.0621
10043W        W25937   9.166  14.595   4.218 -0.4451 -0.3794  0.1725
10044W        W25938  12.531   0.928   0.274 -0.0555 -0.1723 -0.2660
10045W        W25939   6.261   3.911   0.769 -0.2421 -0.0173  0.2924
10046W        W25940  13.226  12.525   3.640 -0.0029 -0.0588 -0.2997
10047W        W25941  10.592   9.970  13.198 -0.0664  0.3073  0.2292
10048W        W25942  16.735  11.008   5.025 -0.0656  0.1383  0.0955
10049W        W25943  17.353  10.301   6.197 -0.0256 -0.1094  0.4352
10050W        W25944  12.964  12.529  12.011 -0.0853 -0.0981  0.1554
10051W        W25945  10.162  15.675   0.724  0.0500 -0.0102  0.0144
10052W        W25946  10.292   8.110  12.905  0.0509  0.0925 -0.1908
10053W        W25947  12.639   3.541   1.278  0.3556 -0.0011 -0.3059
10054W        W25948   9.692  14.379   3.101  0.3105  0.2450  0.2710
10055W        W25949   5.854   4.990   4.149  0.5721 -0.0009 -0.2281
10056W        W25950  11.791  13.533   0.961  0.0017 -0.1232 -0.1050
10057W        W25951   2.388   1.659  15.357  0.1960 -0.1073 -0.0439
10058W        W25952   0.885  18.069  14.308 -0.4389 -0.3077  0.0519
10059W        W25953  11.144   4.369   3.106  0.1228  0.0445  0.1819
10060W        W25954  12.479  13.245   5.362 -0.0379  0.0577  0.3358
10061W        W25955   4.017   9.437  14.062  0.0631  0.0533  0.1547
10062W        W25956   9.417  14.689  13.136  0.1806  0.1450  0.2250
10063W        W25957  14.926   2.324   2.830  0.0397 -0.0547  0.0963
10064W        W25958   1.442  13.916  14.847  0.1113  0.0019 -0.2357
10065W        W25959  17.306  13.958   0.261  0.0669  0.1303  0.1289
10066W        W25960   8.918   8.870   2.137  0.1888  0.4743 -0.0405
10067W        W25961   5.537   6.350   5.588 -0.1014 -0.0440  0.2069
10068W        W25962  15.145   7.863   2.273  0.0846  0.0397  0.1592
10069W        W25963   9.753   9.647  16.087  0.1493 -0.2199 -0.2079
10070W        W25964  11.327   4.135  11.548  0.0169  0.1827 -0.2544
10071W        W25965  17.141   0.801   4.168  0.1032 -0.1513  0.2262
10072W        W25966   2.166   4.572   5.052  0.1504  0.0055  0.1204
10073W        W25967  13.722   4.237   0.279  0.1438 -0.5171  0.2521
10074W        W25968   4.820  14.870   1.087 -0.1011 -0.2086  0.1248
10075W        W25969  16.439   7.575  12.365  0.1464 -0.0849 -0.0642
10076W        W25970  12.039   1.295  13.745  0.0633 -0.1350 -0.1453
10077W        W25971   4.272   5.697  10.244 -0.1371 -0.2007  0.2345
10078W        W25972   7.062   9.498  11.842  0.2513  0.4506  0.2017
10079W        W25973   7.367   3.287  14.432 -0.2618 -0.3602 -0.0816
10080W        W25974  12.338  12.378   5.695 -0.0023 -0.1976 -0.1674
10081W        W25975   2.569   6.407   0.655  0.0875 -0.1061 -0.0746
10082W        W25976  15.452   2.168   3.167 -0.3109 -0.1057  0.0980
10083W        W25977  12.208  16.526   3.973  0.2350 -0.0769 -0.1761
10084W        W25978   2.376   1.976   1.974  0.3760  0.1755  0.0854
10085W        W25979   8.704   0.101   1.471 -0.1316 -0.0601  0.0454
10086W        W25980  14.640   3.677  15.260 -0.0636  0.1160  0.0868
10087W        W25981  13.116   5.599   1.925  0.2157 -0.1400  0.0750
10088W        W25982   2.402   3.971   3.313  0.2549  0.1102 -0.2828
10089W        W25983  14.917   2.888  12.132 -0.3637 -0.0072 -0.1746
10090W        W25984   8.208   9.074  14.456  0.0025 -0.0950  0.0142
10091W        W25985  15.388  16.735  12.846  0.0469 -0.2057 -0.1972
10092W        W25986  15.120   4.734  12.295 -0.1840 -0.1631  0.1094
10093W        W25987  15.589   0.863   1.002  0.0109 -0.1482  0.0332
10094W        W25988  13.950  15.947   1.316  0.1524 -0.0705  0.0924
10095W        W25989   2.516   8.163  12.054  0.1074 -0.0219 -0.0236
10096W        W25990   5.213   6.709   3.779  0.1056  0.1900 -0.0290
10097W        W25991  16.461   3.923  11.187 -0.0363  0.2323  0.0274
10098W        W25992   1.204   8.039  15.370 -0.0276 -0.2456  0.0396
10099W        W25993   0.053   4.944  13.577 -0.0085  0.3057  0.1184
10100W        W25994  15.256  12.125   4.722 -0.2408  0.1510 -0.1427
10101W        W25995  17.140   5.643   0.482  0.0175 -0.0557  0.1484
10102W        W25996   2.705   0.215   1.012 -0.0973  0.2179 -0.0054
10103W        W25997   7.213   5.206  15.759  0.0391  0.4722 -0.0551
10104W        W25998  16.455  11.098   4.534  0.1066  0.1372  0.0032
10105W        W25999   3.960  11.264  16.282 -0.1623  0.0146  0.3634
10106W        W26000  11.883   1.217   3.359 -0.1643  0.0656 -0.1481
10107W        W26001  11.933  11.286   0.390 -0.3499  0.0627 -0.2739
10108W        W26002  13.554  10.463   1.571  0.0040 -0.0402 -0.2961
10109W        W26003  15.771  17.643  12.693  0.0086  0.0871 -0.0644
10110W        W26004   4.893   8.422  10.052  0.0281  0.0854  0.0960
10111W        W26005   1.468  13.681  12.528  0.2167 -0.1923 -0.2312
10112W        W26006   7.522   3.390  10.899  0.0945  0.0915  0.1894
10113W        W26007   9.344   7.979   5.541  0.0667  0.1065  0.0489
10114W        W26008  16.558  13.388  15.275 -0.3268 -0.1371 -0.1531
10115W        W26009   4.800  14.535  13.673  0.4411 -0.2934 -0.4355
10116W        W26010  12.019  16.425  15.643  0.1515  0.1078 -0.1602
10117W        W26011  17.630  17.828  14.107  0.1559  0.3156 -0.1958
10118W        W26012   7.990   5.213   0.054 -0.0870 -0.1196  0.1759
10119W        W26013  16.098   4.348   5.436 -0.0909  0.0865  0.0021
10120W        W26014   1.880  12.919   0.730 -0.0419 -0.0339 -0.2216
10121W        W26015  13.914   9.294   4.967  0.0898 -0.0013 -0.0358
10122W        W26016  15.779  16.086  13.044 -0.0396 -0.0647 -0.2913
10123W        W26017   9.294   2.195  13.839  0.0338  0.2256  0.1616
10124W        W26018  16.527   6.137  16.120 -0.0086  0.0378  0.2809
10125W        W26019   8.134  14.066  16.108  0.0659 -0.3297  0.1265
10126W        W26020  13.441  13.711   5.166  0.0676 -0.0438  0.0290
10127W        W26021  16.816  15.265   1.421 -0.2971 -0.1249 -0.1497
10128W        W26022   5.696  16.058   4.972 -0.2376  0.4083 -0.1426
10129W        W26023  15.528  16.956   1.419 -0.1838  0.2358  0.3748
10130W        W26024   9.272  11.011  15.722  0.1564 -0.1010 -0.2524
10131W        W26025  13.443   5.664   2.339 -0.0467  0.0154 -0.3066
10132W        W26026   8.652   8.398   2.815 -0.3167  0.0633 -0.1314
10133W        W26027   9.633  15.408   2.180 -0.0392  0.0321  0.1369
10134W        W26028   5.974  14.414  11.347  0.1710  0.0054 -0.3035
10135W        W26029   0.465  13.420   1.775  0.1050  0.2450  0.0027
10136W        W26030  17.614   2.560   6.429 -0.1236 -0.0967 -0.0287
10137W        W26031  17.641   1.255   2.236  0.0337  0.1628  0.1126
10138W        W26032  16.993  17.358  13.908  0.0279  0.0677  0.2339
10139W        W26033  10.933   0.761   0.573 -0.2837 -0.0682 -0.1673
10140W        W26034   2.227  12.492   2.662  0.1887 -0.1417 -0.0759
10141W        W26035   9.574   6.468   1.201  0.2423 -0.5884 -0.1295
10142W        W26036   3.259   4.737  12.419  0.0238  0.0604  0.3288
10143W        W26037  16.849   9.009  16.049  0.0259  0.0469 -0.2572
10144W        W26038   4.525   4.594  14.378  0.0839 -0.1430  0.0447
10145W        W26039  16.483   9.832   5.328  0.0428  0.0610  0.0043
10146W        W26040  15.186   2.946   0.356  0.0689  0.0586 -0.1384
10147W        W26041   3.602   2.011  14.126  0.1346  0.0550  0.2250
10148W        W26042  14.746   0.925  15.582 -0.3037 -0.2271 -0.1545
10149W        W26043   5.574   7.391   2.897  0.2999  0.0227  0.0096
10150W        W26044   9.519  14.297   2.412  0.1003 -0.0400 -0.1653
10151W        W26045  13.433   6.824   0.823  0.0248 -0.0227 -0.2716
10152W        W26046   6.290   4.435   0.640  0.1111  0.0242  0.1758
10153W        W26047  10.561  16.843  12.545  0.0860 -0.1594 -0.0033
10154W        W26048  15.221   7.331   3.754  0.5389 -0.0086 -0.2701
10155W        W26049   6.450   3.638  10.947  0.0046 -0.0718  0.0965
10156W        W26050   7.237  10.484   3.397 -0.0619  0.2484 -0.1148
10157W        W26051  16.102   5.374   3.633  0.3780 -0.0625 -0.0659
10158W        W26052   9.183   1.121   2.811 -0.0456 -0.1711  0.1896
10159W        W26053  13.561  13.320  12.419  0.1289 -0.1683  0.1164
10160W        W26054   7.912   3.317  14.252  0.0998 -0.3071  0.0297
10161W        W26055   5.847   8.070  15.219 -0.0997 -0.0594  0.1182
10162W        W26056   1.325  17.116  14.856 -0.1186 -0.0790 -0.1761
10163W        W26057  11.803   9.750  15.222  0.1463  0.0424  0.1933
10164W        W26058  13.590   4.587   1.260 -0.1068  0.3688  0.4925
10165W        W26059  17.804  16.676  15.845  0.2665  0.0534 -0.1280
10166W        W26060   2.951  10.534  15.273  0.1720  0.0268 -0.0274
10167W        W26061   5.719  15.467  14.543 -0.0375  0.1881 -0.0232
10168W        W26062   3.577  13.630  11.983 -0.1916 -0.0686 -0.0891
10169W        W26063   4.049  16.925  16.183 -0.0840 -0.1705  0.1086
10170W        W26064   0.472  15.010  15.927 -0.0440 -0.0979  0.0389
10171W        W26065   2.820  14.948   4.637  0.2142  0.1881 -0.2585
10172W        W26066  15.844   1.550   1.885  0.0182 -0.1112 -0.1357
10173W        W26067   3.605  16.610   4.568 -0.0874  0.1405  0.2122
10174W        W26068  11.373   2.685   2.570  0.2062  0.1010 -0.0584
10175W        W26069   4.629  13.004  13.851 -0.0052  0.0746 -0.2865
10176W        W26070   2.587   6.318   2.882  0.1977 -0.0951 -0.1244
10177W        W26071   7.769   5.090  15.842 -0.0472 -0.1044  0.0284
10178W        W26072  17.693  17.827   4.631  0.0050 -0.1301 -0.1721
10179W        W26073  11.774  17.241  15.743 -0.1241 -0.1352  0.5382
10180W        W26074  16.307  10.917   6.136  0.1074 -0.0335 -0.0438
10181W        W26075   0.915  10.220   0.495 -0.1487 -0.1839 -0.0667
10182W        W26076   9.092  14.960   3.507  0.1296 -0.1404 -0.1250
10183W        W26077  11.740   9.799  14.712 -0.1837 -0.0375  0.3415
10184W        W26078   1.671   7.983   3.992 -0.1155  0.0774  0.1540
10185W        W26079   3.978   7.049   3.459  0.1496  0.1234  0.0088
10186W        W26080   3.261   7.313   5.089  0.2806  0.1922  0.2144
10187W        W26081   1.652  14.721   5.365 -0.4244  0.3579 -0.1533
10188W        W26082  12.939   4.944   5.266  0.0374 -0.1751  0.3927
10189W        W26083   4.407  14.009  15.440 -0.0164 -0.1974 -0.0576
10190W        W26084   5.281   0.235  15.608  0.0871 -0.1132  0.0187
10191W        W26085  16.311   7.252  11.760 -0.1587 -0.1801  0.0248
10192W        W26086  14.606   5.425  10.836  0.1017  0.0164  0.0823
10193W        W26087   5.427  15.904   1.806  0.0455  0.0054  0.1414
10194W        W26088   7.420   0.721  11.044 -0.1554 -0.1378  0.0639
10195W        W26089  13.564  15.764  14.896 -0.3270  0.2217  0.1072
10196W        W26090  16.500   8.876  13.734 -0.0827  0.1260  0.0962
10197W        W26091   5.425   4.740   3.278 -0.0779  0.0061  0.1443
10198W        W26092   3.548   5.462   0.159  0.2204  0.0047 -0.0242
10199W        W26093   7.858  13.344   0.159 -0.0659  0.1897  0.0786
10200W        W26094   2.010  13.365   0.919  0.0076  0.2710  0.2736
10201W        W26095   0.686  13.732   1.466  0.1968 -0.0061 -0.1830
10202W        W26096  13.700  12.385   5.490 -0.0545 -0.1405 -0.0913
10203W        W26097   5.872   6.039  15.294  0.1501  0.2269  0.2193
10204W        W26098  12.307   7.091  13.755  0.0433 -0.0512 -0.2828
10205W        W26099  12.852   8.740   4.035  0.0570 -0.4394 -0.0301
10206W        W26100   5.081   8.615   5.325  0.0367  0.0628  0.1546
10207W        W26101  16.923   1.836  12.833  0.0407  0.0632  0.0151
10208W        W26102   3.216  12.715   3.492 -0.0561  0.3463  0.3801
10209W        W26103   9.206  17.156   4.232  0.2422  0.0565  0.0405
10210W        W26104   4.084   3.287   0.082 -0.0116 -0.2062  0.0686
10211W        W26105   8.097  16.317  13.589  0.0215  0.2240 -0.2005
10212W        W26106  14.156  16.464   3.453  0.2602 -0.1976  0.1965
10213W        W26107  17.929  13.648  13.282 -0.4032  0.4412 -0.0920
10214W        W26108  16.404  16.178  12.115  0.1216 -0.0402  0.1887
10215W        W26109  12.240   5.997  14.627  0.2547  0.2814  0.3639
10216W        W26110   7.086  14.534   5.398  0.0408 -0.0376 -0.0268
10217W        W26111   3.605   0.196  13.892 -0.0332 -0.0165 -0.0432
10218W        W26112  13.115  10.901   3.563 -0.0316 -0.3464 -0.0497
10219W        W26113   4.612  12.586  11.505 -0.3244 -0.0286 -0.2803
10220W        W26114  16.504   0.979   2.201  0.0996 -0.1179  0.3552
10221W        W26115   3.551  16.651   2.037 -0.0095 -0.0914  0.0418
10222W        W26116   1.985  12.080   3.579  0.2184 -0.0780 -0.0127
10223W        W26117  12.583   8.086   4.687 -0.2463  0.0512 -0.0601
10224W        W26118   2.637  18.196  16.016  0.0857  0.2326 -0.4161
10225W        W26119  14.655  14.209   2.113  0.0795  0.0505 -0.0666
10226W        W26120  16.353   0.052   2.541 -0.0514  0.0150 -0.0265
10227W        W26121  14.306  17.086  14.621 -0.2368  0.2000  0.1298
10228W        W26122   0.140   7.642  13.503 -0.4567 -0.1657 -0.0599
10229W        W26123   3.372   3.771   1.492 -0.0269  0.0568 -0.0266
10230W        W26124  11.578   1.477   3.729  0.0339 -0.0879  0.2789
10231W        W26125   4.251   5.847   0.132 -0.0523  0.2690 -0.0410
10232W        W26126   6.546   6.345  13.811 -0.0944  0.0667  0.1028
10233W        W26127   7.395  16.683   4.660 -0.0173 -0.0675  0.1146
10234W        W26128   6.884  14.461   0.020 -0.1635 -0.4094 -0.2154
10235W        W26129   8.768   6.131  15.556 -0.1151 -0.2739  0.1956
10236W        W26130   8.465   4.497   5.435  0.1015 -0.0353  0.2463
10237W        W26131   5.436  15.339   2.648 -0.1314 -0.0995  0.0344
10238W        W26132   0.952   2.556  14.491  0.2300  0.0976 -0.0476
10239W        W26133   1.091  15.137   4.821  0.3147 -0.1819 -0.1780
10240W        W26134   9.410  15.331   4.218  0.0875 -0.0720  0.0478
10241W        W26135   5.449  15.675   2.247 -0.1034  0.1313  0.0022
10242W        W26136   7.243  15.399   4.691  0.1298 -0.1756  0.1120
10243W        W26137   4.711  16.702   6.405 -0.3374  0.1654  0.2649
10244W        W26138  12.185   6.993   1.567 -0.2073 -0.1282  0.3486
10245W        W26139   4.943  14.027  12.817 -0.3695  0.1499  0.0923
10246W        W26140  11.116   8.414  14.083 -0.1171  0.1099 -0.0011
10247W        W26141  15.273   6.165   2.718  0.0083  0.3142 -0.1607
10248W        W26142  18.173  13.612   3.598 -0.2224 -0.2677 -0.0685
10249W        W26143   5.615   2.340  14.897 -0.3302 -0.2789  0.0102
10250W        W26144  16.825   2.217   5.525 -0.1601 -0.1005  0.1161
10251W        W26145  13.820  17.194   4.090  0.3085  0.0823  0.3156
10252W        W26146   8.711  12.621   5.864  0.2163 -0.2140  0.1208
10253W        W26147  14.103  10.617  14.070  0.0007 -0.4911 -0.1590
10254W        W26148   9.669   2.760   0.593  0.2774  0.0939 -0.1613
10255W        W26149  17.306  17.674  13.733  0.0355  0.1892 -0.1492
10256W        W26150   4.689  13.284  16.026 -0.0360  0.2162 -0.1321
10257W        W26151   8.005  12.266   3.659 -0.1116 -0.2874 -0.1041
10258W        W26152  11.067  18.177   4.401  0.0202  0.0014  0.0708
10259W        W26153  12.381   2.624   1.546  0.3409 -0.2797  0.0773
10260W        W26154   4.571  17.069   2.625  0.0170  0.0583 -0.0246
10261W        W26155  14.723   6.902  12.317 -0.0862 -0.1804  0.2536
10262W        W26156  10.406  10.656   0.268 -0.0223 -0.0629 -0.2146
10263W        W26157   2.654   5.614   3.457  0.3242 -0.1338  0.1489
10264W        W26158   3.680   8.426  12.594 -0.0580  0.1738  0.0055
10265W        W26159   5.950   6.248   3.532  0.3166  0.4137  0.0500
10266W        W26160   1.937   6.773   4.234 -0.0941  0.1189 -0.4527
10267W        W26161  11.331  13.569  12.765  0.2872 -0.1390  0.2977
10268W        W26162   2.220  12.741  14.903 -0.1163  0.4980  0.3586
10269W        W26163   8.346   7.418  14.179  0.0820 -0.0464 -0.0400
10270W        W26164  11.858  18.117  14.660  0.0441 -0.1327 -0.0638
10271W        W26165   5.694   8.716   1.838 -0.0075 -0.3147  0.0356
10272W        W26166   0.200  13.860   1.707  0.3096  0.1639 -0.0159
10273W        W26167   5.606  11.882  13.852 -0.1061  0.0926 -0.0218
10274W        W26168  17.379  12.346  14.730 -0.3546 -0.1289  0.0429
10275W        W26169   9.160  14.570   0.251  0.0874 -0.1738  0.0610
10276W        W26170   9.800  16.067  11.493  0.1458 -0.1465  0.4210
10277W        W26171  10.405  15.972  10.885 -0.1404  0.0751 -0.0153
10278W        W26172  16.786   1.376  12.926  0.1610 -0.4438 -0.3615
10279W        W26173  14.777   9.832  13.862 -0.1359 -0.0174  0.0663
10280W        W26174  12.601  10.742   0.598  0.0085  0.1334  0.2269
10281W        W26175  14.069   0.635  15.908 -0.0697  0.0443 -0.0767
10282W        W26176   1.465  11.439   3.112  0.0122 -0.0538  0.0067
10283W        W26177  12.511   5.912  12.375 -0.0028 -0.2051 -0.1564
10284W        W26178  17.068   7.687   3.676 -0.1473 -0.2379  0.1578
10285W        W26179   6.695  10.813   0.831 -0.1841 -0.0892 -0.1925
10286W        W26180  18.216   4.357  11.855  0.2833  0.0351 -0.1102
10287W        W26181   7.898   7.211   0.533 -0.0640  0.2054  0.3490
10288W        W26182  16.686   3.834  13.500  0.1559 -0.0700  0.5040
10289W        W26183   9.086  14.288   3.370 -0.1994  0.0377 -0.0760
10290W        W26184   5.353   0.183   1.797  0.1696 -0.0280  0.1383
10291W        W26185   3.470   3.613   5.580  0.0438 -0.1583 -0.1341
10292W        W26186   1.722   9.198  16.375 -0.1714 -0.3643  0.0102
10293W        W26187  15.573  14.539  15.541 -0.3067 -0.2812  0.0906
10294W        W26188  13.548  17.433  12.552 -0.0305  0.0832  0.1363
10295W        W26189  15.896  10.277   2.714  0.0959  0.2631 -0.0645
10296W        W26190   0.032   4.761   2.274 -0.0856 -0.3690  0.0231
10297W        W26191   8.166   0.881   3.098 -0.3431  0.1650  0.1323
10298W        W26192   3.037   4.642  16.450 -0.2523  0.0946  0.2192
10299W        W26193   3.515  10.213  15.465  0.2802  0.1256  0.0240
10300W        W26194   9.431  11.914  13.342 -0.0295  0.0022  0.0859
10301W        W26195   2.266  15.801  13.932 -0.0375  0.2868 -0.2126
10302W        W26196  12.936  17.700  14.737 -0.1234 -0.1419 -0.1163
10303W        W26197   3.920  10.115   4.568 -0.1410  0.0301  0.6162
10304W        W26198  14.320  13.101   2.208 -0.0882  0.0096  0.0535
10305W        W26199  17.783   6.445   0.529 -0.1366  0.3525 -0.1969
10306W        W26200  11.743   0.152  14.308  0.3104 -0.0619 -0.0123
10307W        W26201  17.497  12.652  16.154 -0.0657  0.1230  0.0621
10308W        W26202  13.691   5.475   4.866  0.1034 -0.1939  0.0259
10309W        W26203   6.972  11.247   5.358 -0.3217 -0.1109 -0.0973
10310W        W26204   9.626  18.234   0.556  0.0762  0.1065  0.0048
10311W        W26205   7.444   0.741   3.771  0.0350  0.3895  0.0810
10312W        W26206   8.694   3.693  13.317  0.0365  0.0037  0.2107
10313W        W26207  17.229   1.881   1.582 -0.2207 -0.3487 -0.0328
10314W        W26208   3.057   7.882   2.615  0.2834 -0.1634 -0.0243
10315W        W26209   2.131  10.580  11.579  0.1988 -0.3056 -0.2496
10316W        W26210   4.304  16.014  13.713 -0.0455  0.3328  0.1784
10317W        W26211  15.734   0.455   5.539 -0.1193  0.2182  0.2390
10318W        W26212   4.288  17.237  11.914  0.2185  0.0121 -0.0569
10319W        W26213  12.096  10.791   2.165  0.3931  0.0963  0.1480
10320W        W26214   3.508   9.209  13.971 -0.2477  0.2958  0.0803
10321W        W26215  13.490   4.138   4.848 -0.0206 -0.0852 -0.1052
10322W        W26216   2.053   5.310   2.453  0.2988 -0.1252  0.0608
10323W        W26217  16.799   1.693   4.029  0.2095 -0.0609 -0.3873
10324W        W26218   9.709  17.200   3.663  0.1709 -0.0178 -0.3796
10325W        W26219   7.588   9.664  12.563 -0.2298  0.2803 -0.2857
10326W        W26220   4.496   5.785  13.508 -0.1435 -0.0735 -0.1649
10327W        W26221  10.303   7.107   0.918  0.0525 -0.1670 -0.5443
10328W        W26222   5.576  12.876  13.901  0.1187  0.0016  0.2823
10329W        W26223   1.683   6.597   2.766 -0.1435 -0.0011 -0.2667
10330W        W26224   4.557  16.819   1.355  0.3520 -0.1245  0.1547
10331W        W26225  17.307   0.669   5.926  0.2125 -0.1490 -0.2666
10332W        W26226   1.623   2.901  15.307  0.1575  0.2249 -0.1807
10333W        W26227   0.002   9.887   6.057  0.1061  0.1337  0.0953
10334W        W26228   9.389  17.465   2.188  0.2867  0.0004  0.0823
10335W        W26229   7.236   0.858  14.889  0.0605 -0.3757 -0.1058
10336W        W26230  12.388   2.317   3.686 -0.1524 -0.0616  0.0946
10337W        W26231  14.318  13.942   5.556  0.2673  0.0551  0.3566
10338W        W26232   6.003  11.238   4.279 -0.0640 -0.3187 -0.2143
10339W        W26233  12.817  10.281   5.512  0.0336 -0.0021 -0.0147
10340W        W26234  14.960   1.056   5.490  0.0991  0.0894  0.0206
10341W        W26235   5.102  14.649   4.865 -0.3095  0.0235 -0.1653
10342W        W26236  14.660   6.199  15.255  0.0371  0.2903 -0.1940
10343W        W26237   0.109  13.683  15.391 -0.4560  0.2612 -0.0611
10344W        W26238  14.698  16.734  15.472  0.0026 -0.0161 -0.0403
10345W        W26239  11.158  10.847   1.024  0.1606 -0.2047 -0.2246
10346W        W26240  10.013   4.195   5.808 -0.2642  0.0151 -0.2746
10347W        W26241   5.388  10.795   2.109  0.0126 -0.1552 -0.0420
10348W        W26242  12.501   6.382   4.304  0.0576 -0.0787 -0.0535
10349W        W26243   7.042   6.160   2.767 -0.1751 -0.1447  0.2130
10350W        W26244   4.337   0.115   4.241  0.1062 -0.0083 -0.0268
10351W        W26245   1.543   3.517   4.364 -0.0630  0.3416 -0.2365
10352W        W26246  14.059  17.639   6.083 -0.0991  0.0115 -0.0194
10353W        W26247   7.706  17.025  12.027  0.0982 -0.0685 -0.3762
10354W        W26248  13.420   6.337   3.400  0.2421 -0.0578  0.0305
10355W        W26249   2.242  12.891   3.096  0.0115  0.3850 -0.2254
10356W        W26250   7.488  13.466   5.175  0.4070 -0.2130  0.5586
10357W        W26251   8.185  13.750   0.906 -0.1839 -0.0884 -0.0499
10358W        W26252   1.518   5.442   3.927 -0.1467 -0.0308  0.1306
10359W        W26253   3.049  12.891   5.022 -0.1825 -0.1129  0.0262
10360W        W26254  18.041  17.739   4.246 -0.0976  0.0516 -0.0117
10361W        W26255   3.010  13.375   5.278  0.2193  0.0763  0.0469
10362W        W26256  11.832  11.236   3.083 -0.3081 -0.1504 -0.0120
10363W        W26257   5.376   9.340  15.697  0.0336 -0.1023  0.0673
10364W        W26258   0.193   2.150  15.182  0.1718 -0.1531 -0.2285
10365W        W26259   0.580   7.158   4.783 -0.3042 -0.2575 -0.1443
10366W        W26260  16.265  17.010   2.709  0.0715 -0.2015 -0.2351
10367W        W26261   5.439   8.987  12.161  0.2515 -0.1382  0.0566
10368W        W26262   5.176   0.267   0.881  0.0746 -0.1038 -0.0873
10369W        W26263  17.209  10.774  14.809 -0.0703  0.1770 -0.3353
10370W        W26264  13.004   5.707   4.673 -0.3097  0.3408  0.0916
10371W        W26265  10.547   0.312  15.802 -0.1360 -0.4580  0.0385
10372W        W26266  17.383   3.232  15.754 -0.1061  0.0063 -0.1638
10373W        W26267  17.268  17.000  13.734  0.1704  0.1262 -0.0384
10374W        W26268   3.263   4.887   1.421 -0.1182 -0.0192 -0.1622
10375W        W26269   9.813   9.456  14.814  0.0121 -0.2948 -0.0509
10376W        W26270   1.029  17.824  15.322  0.3138 -0.2671 -0.1438
10377W        W26271  14.569   6.443   4.313  0.0621 -0.0702  0.0012
10378W        W26272  11.944   1.155  16.104  0.0993  0.1438  0.2740
10379W        W26273  14.250   0.444   3.862  0.1734 -0.3579  0.0484
10380W        W26274   8.951   1.336  14.655  0.3006 -0.0671 -0.1311
10381W        W26275   4.569  11.381  15.509  0.1234 -0.0873 -0.2272
10382W        W26276   1.558   7.540   1.902 -0.0219  0.3529  0.1194
10383W        W26277  13.110   4.873   2.884 -0.3013 -0.3098 -0.0479
10384W        W26278  10.655   1.375   4.837 -0.0077 -0.1659 -0.0096
10385W        W26279  16.001   5.100  12.501 -0.0085  0.1944 -0.1630
10386W        W26280  12.632   6.064   5.856  0.1117  0.1794  0.1177
10387W        W26281  10.426   7.911   1.300  0.0607  0.3873  0.0585
10388W        W26282   8.426   0.252   1.816 -0.0711  0.0224  0.1151
10389W        W26283   5.763  11.469  13.875  0.1685 -0.1010  0.2069
10390W        W26284   5.398   1.973   1.157  0.1626  0.1904  0.1108
10391W        W26285   3.020  16.743  16.088 -0.1756 -0.0178 -0.1057
10392W        W26286   6.770  17.011  12.201  0.1948  0.0182  0.1386
10393W        W26287   7.542   6.893  15.622 -0.1025 -0.4935  0.0132
10394W        W26288   1.018  15.794  14.155 -0.1522  0.2874  0.1444
10395W        W26289  14.529  10.184   2.712 -0.0329 -0.0191  0.2962
10396W        W26290   5.555  16.525   5.753 -0.3358 -0.0719  0.3778
10397W        W26291  11.136   2.368  15.535  0.0503 -0.0874  0.0122
10398W        W26292   6.884   2.799   1.887  0.0334  0.3828 -0.2494
10399W        W26293   1.298   9.953  14.482  0.2395 -0.0073 -0.0321
10400W        W26294  17.519   8.721  15.230  0.1513 -0.0574 -0.4796
10401W        W26295   2.924   3.498  12.324  0.1528  0.0889 -0.2538
10402W        W26296   9.275  15.905  12.266 -0.1548  0.2771  0.0309
10403W        W26297  10.488  15.813   6.227 -0.1682 -0.3192 -0.1512
10404W        W26298   9.635  15.988  16.085 -0.1281  0.2202  0.2569
10405W        W26299  12.959  12.659  14.055 -0.1151 -0.1093 -0.1799
10406W        W26300   1.418  13.168  14.047 -0.1388 -0.3621 -0.2105
10407W        W26301   1.577   3.597   0.135 -0.1256  0.2314 -0.0884
10408W        W26302   8.215   9.773   1.536 -0.4591  0.1835 -0.1440
10409W        W26303  17.594   1.762   1.990 -0.0952  0.0504 -0.0289
10410W        W26304   9.276   7.970  11.540  0.3170 -0.0082  0.1150
10411W        W26305   2.327   8.083   0.347  0.2618 -0.3351 -0.3487
10412W        W26306   7.005   6.482  14.518  0.0783 -0.1358 -0.0410
10413W        W26307   1.400   3.488   1.259 -0.0691  0.2996  0.2974
10414W        W26308  14.396  14.522   1.399 -0.1079  0.0696 -0.1762
10415W        W26309  13.268   6.648  14.745  0.4019 -0.0126  0.0239
10416W        W26310   0.039   1.400  14.860  0.1223 -0.0391  0.0053
10417W        W26311   4.326   8.711  15.583 -0.1170 -0.3112 -0.1710
10418W        W26312  17.123   9.978   2.784 -0.0366 -0.0018  0.1278
10419W        W26313  10.810   6.201  11.547 -0.1068  0.1206 -0.3230
10420W        W26314   8.971   0.452   4.390 -0.0086  0.1077 -0.2244
10421W        W26315   7.180   8.904   0.098 -0.0253 -0.3867  0.2174
10422W        W26316  15.485  11.704   2.945  0.2570  0.1104 -0.0967
10423W        W26317   8.859   5.159  12.873 -0.1722  0.0940 -0.2882
10424W        W26318   4.498  11.545  14.723 -0.3404 -0.1383 -0.1546
10425W        W26319   1.354  15.069  12.045  0.2512 -0.0502 -0.0196
10426W        W26320  14.904  13.706  14.716 -0.1340  0.1296 -0.2012
10427W        W26321   0.277   1.733   6.261  0.2162  0.2466  0.1396
10428W        W26322   2.988  15.188   0.542  0.0278  0.2031 -0.2130
10429W        W26323  12.834  11.760   2.171 -0.1779 -0.1250 -0.2728
10430W        W26324   3.806   4.829  14.969  0.3439  0.3072  0.1083
10431W        W26325   0.977   1.982   5.319 -0.0233 -0.1259 -0.2523
10432W        W26326  10.947  16.546  14.355 -0.0521  0.0903  0.2804
10433W        W26327  13.980  14.631   2.079 -0.2131 -0.0275  0.2179
10434W        W26328   8.073  12.498  13.956 -0.1043  0.0411  0.2158
10435W        W26329  11.226   7.424   1.845  0.0778  0.1499  0.3245
10436W        W26330  10.429   7.117  13.687 -0.1227  0.3060 -0.1660
10437W        W26331  12.020   4.360   1.519 -0.4027  0.2069  0.0738
10438W        W26332  11.009   4.524  15.798  0.0397  0.0891  0.0843
10439W        W26333   6.322   4.762  11.980 -0.0492  0.1123  0.0604
10440W        W26334   3.121  12.703   1.276  0.2734  0.2464 -0.2217
10441W        W26335   6.643   7.868  11.452  0.1354  0.0525  0.1850
10442W        W26336  17.613   5.193  14.583  0.0810  0.0669 -0.1981
10443W        W26337   7.359   1.714  12.627 -0.5534 -0.1804 -0.2250
10444W        W26338   8.840   8.924   3.973 -0.1438 -0.1161 -0.0080
10445W        W26339   3.012   3.077  15.509 -0.0272  0.1758 -0.1907
10446W        W26340   3.285   7.707   3.815  0.1050  0.0555  0.1903
10447W        W26341   1.344   6.850  14.884  0.2578  0.1227  0.1627
10448W        W26342  11.308   9.549  12.307 -0.0560  0.3895  0.0677
10449W        W26343   3.299   9.454   2.313  0.2663 -0.1632  0.1719
10450W        W26344   5.542   0.893  14.120 -0.2681 -0.2083  0.1321
10451W        W26345   8.787   1.059   3.822  0.0733  0.1717 -0.1910
10452W        W26346   4.056   3.280  15.620 -0.0608 -0.1406 -0.0942
10453W        W26347  10.984   4.677  13.798 -0.2553  0.2737 -0.1873
10454W        W26348   3.127   1.424   4.035  0.2369 -0.2687 -0.1589
10455W        W26349   0.420  13.489   2.264  0.0571 -0.2955 -0.1571
10456W        W26350   1.252  14.926   5.866 -0.0800  0.1348 -0.2029
10457W        W26351   8.364   2.746   5.235 -0.1209 -0.0950 -0.0119
10458W        W26352  14.063   8.511   1.518  0.0352  0.1792  0.0789
10459W        W26353   6.324   0.681  14.829  0.3034  0.1283 -0.0487
10460W        W26354  10.719   3.460   2.824  0.0907 -0.0067  0.4624
10461W        W26355   4.269   3.440   5.371 -0.1454  0.3386  0.2946
10462W        W26356   0.618  15.878  13.859 -0.3226 -0.2845 -0.2564
10463W        W26357  13.150   2.960   1.862  0.0236  0.0005  0.3073
10464W        W26358   4.532  13.826   2.453  0.0076 -0.0740 -0.0529
10465W        W26359   3.854   8.942   0.606  0.1813  0.1106 -0.3560
10466W        W26360   2.913   5.945   2.617  0.1357 -0.1908  0.1296
10467W        W26361  13.890   0.904  14.243 -0.2084 -0.0513  0.0593
10468W        W26362   1.047  15.514   5.571  0.0136 -0.0670  0.0423
10469W        W26363  11.824  10.303  13.805 -0.4186 -0.0728 -0.1091
10470W        W26364  17.637  14.742   0.606  0.1415 -0.0343  0.0746
10471W        W26365   2.409   3.715   1.078  0.0223  0.1206 -0.1567
10472W        W26366   9.467  10.900   1.675 -0.1283 -0.1651  0.1054
10473W        W26367   8.473  16.648   1.977  0.1724  0.1084 -0.1305
10474W        W26368   1.700  12.367   0.367 -0.2604  0.1003  0.0747
10475W        W26369   9.529   0.406   1.685  0.1874  0.0100 -0.3948
10476W        W26370  16.666  15.250  15.445 -0.0868  0.1478  0.0654
10477W        W26371  11.799   1.690   1.140 -0.0595  0.0068  0.1484
10478W        W26372   3.994  13.197   1.398  0.0197 -0.3344  0.0731
10479W        W26373   5.890  15.517   1.996  0.2841 -0.0278 -0.1744
10480W        W26374  10.354   9.555  14.244  0.1309  0.1442 -0.0473
10481W        W26375   8.508  15.176  16.142 -0.0628  0.1516 -0.2163
10482W        W26376  15.023  16.982  14.105 -0.0878 -0.1482 -0.0768
10483W        W26377   1.667  17.638   5.410  0.2044 -0.0647 -0.0815
10484W        W26378   8.066   6.088   1.760  0.3194  0.2188 -0.2518
10485W        W26379   7.196  14.883  14.241 -0.2192 -0.0303 -0.1410
10486W        W26380  15.965  17.434  14.679  0.0427 -0.1000  0.0553
10487W        W26381   8.501   0.850   4.716  0.4452  0.1831  0.0256
10488W        W26382  13.353   7.058  15.133  0.0346  0.0898  0.1218
10489W        W26383   8.489   5.482   2.408 -0.1521  0.0116 -0.1647
10490W        W26384   7.155   8.256   2.354  0.2256  0.1720 -0.2467
10491W        W26385  10.316   6.155  15.152  0.1252  0.1963 -0.1076
10492W        W26386   1.564  15.556   1.498 -0.0309 -0.1420  0.1201
10493W        W26387   7.938   6.528  13.912 -0.0654  0.0273 -0.0428
10494W        W26388   7.625   9.253   5.224  0.3037 -0.1144 -0.3277
10495W        W26389  14.571   1.389  13.706  0.0224  0.0323  0.1418
10496W        W26390  17.110   4.107   0.480 -0.0148  0.2699 -0.0139
10497W        W26391   0.054  12.697  12.239  0.1523  0.0668 -0.3061
10498W        W26392   4.283   4.803  11.299  0.1474  0.1948  0.3707
10499W        W26393  14.634  17.638  12.051  0.1497  0.3290 -0.3237
10500W        W26394  14.085  11.854  14.100 -0.2917  0.0827 -0.0348
10501W        W26395  13.077  13.049   1.161 -0.1841  0.1646  0.1510
10502W        W26396   9.273  13.221  13.946 -0.1735  0.1636  0.3345
10503W        W26397  11.447   6.647  10.899  0.4543  0.0847 -0.1544
10504W        W26398  13.505   8.552   0.151  0.3608 -0.0454 -0.2015
10505W        W26399   2.175   3.520  12.952 -0.1315 -0.1798  0.0614
10506W        W26400   6.067   5.592  11.715 -0.2736 -0.1783 -0.0708
10507W        W26401   4.967   0.695   1.054  0.3462  0.0915 -0.2476
10508W        W26402  12.471   3.229  12.749 -0.0217 -0.1842 -0.2509
10509W        W26403  17.490   1.423  14.073  0.0553 -0.0154 -0.1477
10510W        W26404   8.442  15.570  12.958 -0.2690 -0.1013 -0.0595
10511W        W26405   7.739  13.477  13.732  0.1837  0.2092  0.1751
10512W        W26406   9.603  11.473   0.388 -0.0204  0.0340 -0.2225
10513W        W26407   8.950   1.248   3.320 -0.4148 -0.0384 -0.1960
10514W        W26408  14.448  17.497   4.343 -0.0196 -0.4526  0.3345
10515W        W26409  18.180   0.559   4.234 -0.2839  0.1402 -0.3296
10516W        W26410   4.277   2.658   4.922 -0.0708 -0.3362 -0.0159
10517W        W26411  11.343   7.946  14.481  0.1526  0.0640 -0.1663
10518W        W26412   2.885   1.761   3.114 -0.0644  0.1319 -0.1424
10519W        W26413   8.491   9.198   1.252 -0.2459  0.2471 -0.0856
10520W        W26414   0.281   3.920  11.428  0.0337 -0.0820  0.3714
10521W        W26415   4.468  13.300   4.908 -0.0049 -0.3738 -0.3040
10522W        W26416  11.248   6.599  14.567  0.1014 -0.1188 -0.0113
10523W        W26417  12.368   1.154   0.734  0.3240 -0.0724 -0.2444
10524W        W26418  11.203  17.631  14.863  0.0507 -0.0182 -0.1965
10525W        W26419   6.246  14.615   3.211  0.0135  0.3385 -0.2451
10526W        W26420   8.873   1.502   2.873 -0.1972 -0.6269  0.1204
10527W        W26421   9.462  10.038  11.017 -0.3161  0.8229  0.1722
10528W        W26422   3.772   7.902  11.103 -0.0209  0.0701 -0.0594
10529W        W26423   4.188   0.797  12.452 -0.0702  0.1911 -0.1810
10530W        W26424  11.862  12.595   2.497 -0.0829 -0.4055  0.0329
10531W        W26425  11.883  12.769  14.120 -0.2913 -0.2508 -0.0781
10532W        W26426   6.656   8.308   2.153 -0.0717  0.1041 -0.1294
10533W        W26427   5.270  15.879   2.825 -0.0038  0.0969  0.2595
10534W        W26428   4.807   3.834  10.920  0.2459 -0.0387 -0.1941
10535W        W26429   2.026   5.636   0.870  0.2859 -0.1654 -0.0435
10536W        W26430   4.212   0.439   5.119  0.1042  0.0369  0.3211
10537W        W26431  13.955  13.772   5.152 -0.1922  0.0284  0.1662
10538W        W26432   5.485   5.414   3.525 -0.1337  0.0009 -0.0673
10539W        W26433  14.658   0.272   0.867 -0.1407  0.0758 -0.1200
10540W        W26434  16.178   6.285  15.350 -0.0989  0.1654  0.3152
10541W        W26435  16.787  17.823  14.471  0.0099  0.2418 -0.2007
10542W        W26436  15.672  18.097   1.173  0.3324  0.0822  0.4501
10543W        W26437  10.558   8.634   1.932  0.2303  0.3174  0.0813
10544W        W26438   9.683   4.097  16.153  0.1840  0.0218 -0.2625
10545W        W26439  11.968   2.072  11.641 -0.3998  0.1599 -0.0248
10546W        W26440   6.542  16.758  11.341 -0.0722 -0.2102 -0.2285
10547W        W26441  15.120   3.720  13.749 -0.1675 -0.2446  0.1443
10548W        W26442   1.463   1.354  12.580 -0.1779 -0.0071 -0.1495
10549W        W26443  17.502   6.686   0.902 -0.2124 -0.1496 -0.1148
10550W        W26444   3.391   9.331   3.193  0.1215 -0.1405 -0.1895
10551W        W26445  10.823   5.308   4.056  0.3394 -0.0038  0.1395
10552W        W26446   7.177  12.729   2.159 -0.0130  0.1312 -0.1433
10553W        W26447   5.003  13.274   4.647 -0.1728  0.1048 -0.1382
10554W        W26448  16.804   7.712  13.574 -0.3051  0.1483  0.0462
10555W        W26449   7.055  14.426  12.293  0.0597 -0.1382  0.2289
10556W        W26450   7.730   2.760   1.471 -0.1381  0.2160  0.1344
10557W        W26451  10.270   7.765   5.695 -0.2376  0.1145 -0.2990
10558W        W26452   7.291   1.675   2.759 -0.0913  0.2018 -0.0718
10559W        W26453  15.782   2.797  11.588  0.2516 -0.1937  0.0872
10560W        W26454   4.538   0.794  14.860  0.0025 -0.0923 -0.2021
10561W        W26455   1.903  15.897   1.670  0.0569  0.1071 -0.2167
10562W        W26456   3.065   2.174  11.500  0.0476 -0.0951  0.1109
10563W        W26457  14.307   5.025   1.125  0.1086  0.0751  0.2140
10564W        W26458  10.665  16.724   4.218  0.0580 -0.0345  0.2735
10565W        W26459  11.565   3.779  14.159 -0.1219 -0.2326 -0.1189
10566W        W26460   7.319   1.235  13.134 -0.0514  0.3387 -0.4425
10567W        W26461   2.896  16.870  13.933  0.0371 -0.1519  0.2814
10568W        W26462  13.899   9.891   3.328 -0.0688 -0.0042 -0.1480
10569W        W26463   9.848   1.236  11.812 -0.2585 -0.3260 -0.2641
10570W        W26464   6.482   7.046   3.919  0.0883 -0.2352  0.0893
10571W        W26465  13.336   3.617   1.858 -0.0336 -0.1898  0.1127
10572W        W26466   6.156   5.281   3.153  0.0862 -0.1274  0.2507
10573W        W26467   2.644   5.602  15.530 -0.1189 -0.2446  0.1247
10574W        W26468   1.712   8.178   1.097 -0.1865  0.1582  0.1286
10575W        W26469  10.147  15.565  12.899  0.3463  0.0364  0.0170
10576W        W26470  14.721   0.620   3.737  0.1477 -0.3294  0.1547
10577W        W26471  13.119   2.804   3.310  0.1501 -0.1636 -0.1678
10578W        W26472  10.238  15.909  12.402  0.1030  0.2003 -0.1638
10579W        W26473  15.284   5.620   2.090  0.0563  0.7156 -0.2381
10580W        W26474  13.969  10.014  12.413 -0.0795 -0.1741 -0.0666
10581W        W26475  11.263  16.767  12.972 -0.2625 -0.1801 -0.0492
10582W        W26476   9.373  13.848  13.231 -0.1814  0.0128  0.2483
10583W        W26477   6.229  12.692   1.922  0.2335 -0.1055  0.1452
10584W        W26478  11.456   9.113   2.000  0.2872  0.2429  0.1578
10585W        W26479   6.697   2.673  13.233 -0.0429 -0.1937  0.0751
10586W        W26480  11.796  10.362   2.111 -0.0590  0.1760  0.0661
10587W        W26481   8.281   0.960  15.330  0.0606 -0.3105 -0.0206
10588W        W26482  16.198   4.813   2.347 -0.1019 -0.0774  0.1952
10589W        W26483   3.029   2.542  15.594  0.2475 -0.2732  0.0334
10590W        W26484  14.301   9.569   3.444  0.0515 -0.0960  0.0969
10591W        W26485  17.591   0.070   3.752 -0.0951  0.1044  0.1397
10592W        W26486   7.414   7.928  14.932  0.2920  0.0008 -0.0841
10593W        W26487  10.394  12.736  14.402 -0.2198 -0.0000  0.0976
10594W        W26488   4.696   5.597  14.838  0.3378 -0.2118 -0.1167
10595W        W26489   3.032   0.539   3.851  0.0032 -0.0985  0.2937
10596W        W26490   5.573  16.038  10.781 -0.1576  0.0389 -0.1052
10597W        W26491  12.107  13.988   1.126  0.0539  0.0777  0.0087
10598W        W26492  17.592  18.220  14.766 -0.0120 -0.0056 -0.0083
10599W        W26493  10.966  13.708  15.440 -0.3533  0.1352  0.2836
10600W        W26494  10.677  11.646  15.520 -0.2000  0.0625 -0.0249
10601W        W26495  12.654   4.539  14.842  0.0262  0.1111  0.0344
10602W        W26496   6.218   3.776   5.600 -0.0256 -0.0982 -0.1459
10603W        W26497  14.942  13.091  14.663 -0.1321 -0.3298  0.0624
10604W        W26498   1.019  16.572   1.251 -0.1874  0.0038  0.1937
10605W        W26499   7.701  15.766   2.798  0.0467 -0.0035 -0.0166
10606W        W26500   4.999   9.514   0.284 -0.2700  0.2649 -0.0685
10607W        W26501   3.018  11.467  12.776 -0.1486 -0.4368  0.1304
10608W        W26502  10.274  17.964  15.686 -0.2013  0.2296 -0.2027
10609W        W26503  14.898   6.922   1.131  0.1147  0.0213 -0.1823
10610W        W26504  12.165   8.979  11.213  0.0863  0.2971  0.0529
10611W        W26505  14.994   1.533   4.061 -0.0762  0.1978 -0.0603
10612W        W26506  10.836  10.617  11.338 -0.1591 -0.1746  0.0997
10613W        W26507   4.329   9.934  13.085  0.2941 -0.1147 -0.2817
10614W        W26508  16.555   2.153  12.514 -0.1368  0.0874  0.0597
10615W        W26509   5.862  10.551   2.104  0.0710 -0.1595  0.0072
10616W        W26510   1.118   1.635   1.222 -0.3387  0.1851 -0.0768
10617W        W26511  16.701   9.649   4.543 -0.2998 -0.0088 -0.1414
10618W        W26512   1.384  15.490   5.155  0.3708 -0.1430 -0.2270
10619W        W26513   9.224   8.573   5.644 -0.1760  0.0831  0.1359
10620W        W26514   4.303   4.172   0.471 -0.2125 -0.1491  0.3065
10621W        W26515  12.044   0.907   3.726 -0.2648 -0.0264  0.1178
10622W        W26516   2.387   3.489  16.122  0.1769  0.2669 -0.3919
10623W        W26517  15.816   4.958   0.834 -0.0142  0.0972  0.1200
10624W        W26518   6.662   3.737   1.003  0.0545 -0.1638  0.0129
10625W        W26519  16.763  16.607  12.043 -0.3270  0.1678  0.2218
10626W        W26520  18.108  14.008   0.835  0.0475 -0.2561  0.1677
10627W        W26521  13.380   9.645  11.746  0.3214 -0.0128  0.0453
10628W        W26522   1.535   1.274   3.169 -0.0300 -0.1452 -0.0257
10629W        W26523  13.741  17.784  14.030  0.4969  0.2835 -0.3516
10630W        W26524  15.408  10.591  14.988 -0.0635  0.0408  0.1422
10631W        W26525   8.601   6.996   4.894  0.1355 -0.1583  0.1814
10632W        W26526  14.336   2.023   4.137 -0.4675  0.0204 -0.0514
10633W        W26527   3.459   3.347  14.679  0.2501  0.2136 -0.3069
10634W        W26528  16.183   5.036   0.494  0.0578  0.0194 -0.1444
10635W        W26529   8.800   4.216  15.520 -0.0239  0.2347  0.3580
10636W        W26530   1.544  13.544   0.964  0.4252 -0.3475 -0.2413
10637W        W26531  10.610  16.213  12.571 -0.1523  0.0165 -0.1316
10638W        W26532   0.276   6.828  16.427  0.0536 -0.0932  0.0564
10639W        W26533   6.517  16.066  10.360  0.3491 -0.3648  0.0465
10640W        W26534  17.346   3.224   4.779 -0.1683 -0.0948 -0.4425
10641W        W26535  18.073  17.623   1.846  0.1206 -0.1524  0.0990
10642W        W26536  10.183   1.779   3.632  0.1403 -0.1078  0.3783
10643W        W26537  13.996   9.437   5.628 -0.1419  0.1977 -0.1901
10644W        W26538  15.308   4.903  10.921 -0.0036  0.0718 -0.2905
10645W        W26539  12.783  13.942   1.798  0.1078 -0.2178  0.0325
10646W        W26540  12.616   9.347  14.730  0.0526 -0.0764  0.0754
10647W        W26541  11.701  18.200   2.569 -0.0492 -0.2549 -0.2736
10648W        W26542   2.581   8.762   1.189  0.1305  0.1063  0.3676
10649W        W26543  10.048  15.703   3.513  0.0636 -0.0275 -0.0117
10650W        W26544   2.552   3.379   1.390 -0.2207  0.0914 -0.1684
10651W        W26545   0.865   4.170   4.003 -0.0975  0.0071  0.1432
10652W        W26546   9.294  16.165  11.331  0.2311  0.1000  0.3352
10653W        W26547   0.929  17.880   0.417  0.1259  0.5236  0.1423
10654W        W26548  17.622   5.800  13.099  0.0153  0.1124  0.0805
10655W        W26549   5.371  17.616  14.265 -0.0711  0.2366 -0.2758
10656W        W26550  14.884   2.932  12.620 -0.1598  0.2783  0.0239
10657W        W26551  15.609  10.458  14.042 -0.0586 -0.0261 -0.0539
10658W        W26552  13.457   3.090   3.546  0.1393  0.4152  0.2191
10659W        W26553  13.903   6.230   4.412 -0.0386 -0.1859  0.3325
10660W        W26554   2.471   5.094   1.799  0.0211  0.0819 -0.1587
10661W        W26555   0.553   7.352  15.550 -0.0581 -0.0733  0.1571
10662W        W26556  15.423  13.527  12.368 -0.2733 -0.0181  0.0066
10663W        W26557   1.066   1.160   0.982  0.0651 -0.0251  0.3308
10664W        W26558  12.733  12.449   1.418  0.1686  0.3206  0.1326
10665W        W26559   6.759  14.679   4.501 -0.0424 -0.2286  0.0888
10666W        W26560   3.675  15.446  11.551  0.0637 -0.0620 -0.1351
10667W        W26561  17.353  16.849  14.735 -0.0842 -0.4188 -0.0326
10668W        W26562   2.842   0.799   2.902 -0.1033  0.0174 -0.0644
10669W        W26563   9.909  11.329  10.982  0.1211  0.2345 -0.1751
10670W        W26564  11.404   0.618  14.640 -0.4629  0.3324  0.3422
10671W        W26565   5.515  14.212   2.579 -0.1231  0.0235  0.1648
10672W        W26566   8.475  12.992   0.591  0.3043 -0.0865  0.0117
10673W        W26567  14.636   0.846  15.100 -0.4955 -0.1498  0.0164
10674W        W26568   3.768   8.439  11.690  0.0846 -0.0435 -0.2177
10675W        W26569  17.510   8.004   3.093 -0.1531 -0.0869 -0.0979
10676W        W26570   5.979  11.990  14.704 -0.1299 -0.4203 -0.2249
10677W        W26571   4.903  15.799  14.618  0.4028  0.0134  0.0198
10678W        W26572  14.231  18.226  11.481  0.0970 -0.0755  0.1406
10679W        W26573   2.002  16.799  13.893 -0.1290 -0.3152 -0.2683
10680W        W26574  17.327   5.086   3.880 -0.0211  0.1840  0.0385
10681W        W26575   7.741   4.197  15.447 -0.0623 -0.0906 -0.0529
10682W        W26576  17.337  12.100   1.657 -0.2718  0.6914 -0.3629
10683W        W26577   6.089   2.002   1.881 -0.1112  0.0354  0.3641
10684W        W26578  11.203   3.960   4.028  0.1552  0.2961 -0.0004
10685W        W26579  11.822   7.935   2.992  0.0364  0.3442  0.2554
10686W        W26580   2.456   3.673   3.707 -0.2726  0.2435 -0.1446
10687W        W26581   7.284  13.935   2.943 -0.0539  0.0554  0.2503
10688W        W26582  18.193  17.543   3.112  0.1151 -0.0759 -0.1798
10689W        W26583   9.137   3.033  11.922  0.2905  0.1252 -0.1476
10690W        W26584  10.579  13.008  13.560 -0.1652  0.0969 -0.0638
10691W        W26585   7.080  13.100  14.021 -0.1984  0.1393 -0.0296
10692W        W26586   9.235  13.979  14.432  0.0122  0.0016  0.0188
10693W        W26587   3.428   4.031   3.858 -0.0545  0.0399  0.4455
10694W        W26588   9.931  12.032  13.651 -0.2655  0.0356  0.2415
10695W        W26589   1.024   2.326   1.515  0.1951 -0.0798 -0.0155
10696W        W26590   7.849  12.366   2.574  0.2463 -0.1899 -0.0330
10697W        W26591   6.460   6.599   1.380  0.0299  0.3337  0.0909
10698W        W26592  10.621   6.969  14.894 -0.4626 -0.0689  0.1270
10699W        W26593   4.478  18.187  15.721 -0.1212  0.0577  0.2764
10700W        W26594   4.793   9.511   5.306 -0.0277  0.2438 -0.0524
10701W        W26595  15.490  15.442   0.346  0.0507  0.2699  0.0728
10702W        W26596  14.680   0.718   1.654 -0.3884  0.0227 -0.1901
10703W        W26597  10.789   5.384   1.118  0.0862 -0.0049 -0.2807
10704W        W26598  17.760   0.854  13.320 -0.0601  0.3025  0.0713
10705W        W26599  12.950   5.231  16.147  0.2413 -0.1846  0.2317
10706W        W26600  13.765   8.404  10.403  0.2707 -0.3238 -0.1037
10707W        W26601  10.936   7.196   2.163 -0.1420  0.2043  0.0574
10708W        W26602   7.864   3.649   0.538  0.2706  0.1875  0.1327
10709W        W26603   2.562   3.754   5.384 -0.2307 -0.0938  0.4039
10710W        W26604   9.957   1.459   4.391  0.4931  0.1880  0.0772
10711W        W26605   4.931  15.499   2.850  0.3330  0.0361  0.2692
10712W        W26606   2.127   9.411  15.525  0.0304  0.0764 -0.1404
10713W        W26607   3.906   6.809  11.931  0.0529  0.3438  0.2577
10714W        W26608  16.462   1.534   1.373  0.0760 -0.4397 -0.1096
10715W        W26609   7.426  16.998   0.422 -0.2564 -0.1925 -0.0091
10716W        W26610   7.248  13.249   5.658  0.1669 -0.1588  0.0609
10717W        W26611  13.551   4.788  11.176  0.1023  0.2866  0.1716
10718W        W26612  10.762   6.462   2.249  0.3012  0.3002  0.2569
10719W        W26613  11.908   8.559  11.012  0.1891  0.1624 -0.0202
10720W        W26614  17.481   1.882   0.197  0.1141 -0.1055 -0.0992
10721W        W26615   4.649  15.263  15.986 -0.2659  0.0066  0.1464
10722W        W26616  12.367   4.001  12.344  0.0055  0.0902 -0.0443
10723W        W26617  12.034   9.425  15.538 -0.1304 -0.1403 -0.1275
10724W        W26618  10.330  12.384   0.171 -0.0419 -0.1441  0.0869
10725W        W26619   8.594  17.575  15.048  0.1757 -0.0661 -0.3418
10726W        W26620  17.218   4.525  13.279  0.0508  0.0319  0.0679
10727W        W26621  18.179   4.132   3.829  0.2923 -0.0748 -0.1602
10728W        W26622   0.503  15.526   5.850  0.1591  0.2354  0.2683
10729W        W26623   7.738  15.280  13.287 -0.2357 -0.0907  0.3640
10730W        W26624  16.426  17.972  11.649 -0.0394  0.0735  0.1100
10731W        W26625   3.251   2.717   5.079 -0.0392 -0.1250 -0.0378
10732W        W26626   5.633   8.361   0.036  0.2237 -0.2544 -0.2468
10733W        W26627   1.038   1.034  11.620 -0.2437 -0.2743 -0.2634
10734W        W26628   9.239   6.317  13.422  0.1569 -0.1484  0.1095
10735W        W26629   8.987   1.886   1.683  0.2870 -0.1004 -0.0778
10736W        W26630   6.348  11.258  14.699 -0.0949 -0.4902 -0.2024
10737W        W26631  11.136   3.726   3.031  0.0056 -0.0097  0.4030
10738W        W26632  14.768  14.306  16.199  0.0539 -0.3292 -0.1372
10739W        W26633  14.758   7.775   4.631  0.0087 -0.0473  0.0791
10740W        W26634   4.990  17.107   4.168 -0.1200  0.0126  0.1007
10741W        W26635   0.219   8.206   1.124  0.0016  0.0476 -0.0808
10742W        W26636   5.734   4.969   1.429 -0.3780  0.0475 -0.0861
10743W        W26637  16.435   3.294  11.814  0.0245 -0.1744  0.0502
10744W        W26638  16.714  18.089   2.175  0.0927 -0.1477  0.0473
10745W        W26639  12.920   3.866  16.213 -0.3354  0.1747  0.1205
10746W        W26640   6.085  17.732  13.227  0.0106  0.2868 -0.0187
10747W        W26641  16.477   6.524  11.558 -0.1088 -0.0642  0.1429
10748W        W26642   9.960   7.022   2.641 -0.1850  0.1956 -0.0255
10749W        W26643   2.783   6.481  14.398  0.1649 -0.4695 -0.2496
10750W        W26644  15.034   1.139   6.270 -0.1491 -0.0646  0.0142
10751W        W26645   5.963  17.851   4.402 -0.0263 -0.4296  0.0330
10752W        W26646   9.034   2.947   3.190  0.0711 -0.3146  0.3309
10753W        W26647   1.084  11.932   6.315  0.0112  0.3463  0.1541
10754W        W26648  17.513  15.870   4.815  0.0880 -0.2578  0.0353
10755W        W26649   1.757  16.715  14.840 -0.0146 -0.1460  0.1707
10756W        W26650  14.341  13.987   6.066 -0.0740  0.0092  0.0976
10757W        W26651   0.850   1.060  12.143  0.2186  0.2255 -0.0419
10758W        W26652   5.885   7.507   4.441  0.1367 -0.0140  0.0107
10759W        W26653  12.506   8.674   5.627  0.2447  0.1317 -0.0215
10760W        W26654   4.430   2.506  14.018  0.0823  0.3944  0.2242
10761W        W26655  11.525  13.637  15.813 -0.3432 -0.1137 -0.0010
10762W        W26656   2.886   5.273   4.719 -0.3791 -0.0753 -0.0512
10763W        W26657  11.125  12.610   2.058 -0.2283  0.0220 -0.1066
10764W        W26658   0.954  17.590   3.278 -0.1520 -0.0950 -0.2375
10765W        W26659  11.709   4.764   1.395 -0.0794  0.1683 -0.1383
10766W        W26660  17.215   7.586   4.686 -0.1363 -0.0844  0.1810
10767W        W26661  15.776  18.209  12.851  0.0322  0.2031  0.0907
10768W        W26662   0.528  14.641   5.469 -0.1095 -0.1173  0.2503
10769W        W26663   0.866  17.500  15.013  0.1976  0.0062 -0.5699
10770W        W26664   6.988   2.123   4.066 -0.0971 -0.0421  0.3592
10771W        W26665   1.680  16.156   0.369  0.0119  0.2943  0.0782
10772W        W26666   6.318   4.356  14.041  0.1491 -0.0854  0.1732
10773W        W26667  17.199  11.370   3.846 -0.0507 -0.4611 -0.0286
10774W        W26668  16.708  10.487   2.242  0.2190  0.1616 -0.0340
10775W        W26669   7.598  16.603   1.708 -0.0271 -0.4756 -0.0316
10776W        W26670  13.931   5.906   3.120 -0.1321 -0.1402  0.2465
10777W        W26671  11.431  15.166   1.098 -0.2572 -0.1433 -0.1586
10778W        W26672   0.158   3.419   2.231  0.3043 -0.2689  0.1298
10779W        W26673  12.693  15.243  12.696  0.1996 -0.1667  0.0018
10780W        W26674   9.236  10.038  13.138  0.0097 -0.1598  0.2808
10781W        W26675   0.866   5.794   1.450  0.0595  0.1146  0.2940
10782W        W26676  10.458   3.964   4.642  0.0054  0.1384 -0.0715
10783W        W26677   1.114  14.066  11.925  0.0774 -0.3786  0.2910
10784W        W26678  15.905  13.738  13.883  0.3856  0.0901 -0.0474
10785W        W26679  10.123  12.939  14.779  0.0356  0.2480  0.0563
10786W        W26680   5.610   7.499  12.217 -0.0938 -0.1502  0.0294
10787W        W26681   2.402  16.805   4.908  0.1116  0.3159 -0.3228
10788W        W26682  14.298   6.930  12.010 -0.2073  0.0037  0.3015
10789W        W26683  10.173   2.756  13.259 -0.0688 -0.0119 -0.0520
10790W        W26684  14.212  15.134  14.377 -0.1232  0.0120  0.0953
10791W        W26685   7.978  16.197   5.286  0.0371 -0.1476  0.0372
10792W        W26686  11.273  18.174   3.481 -0.3433 -0.1272  0.1572
10793W        W26687   9.268   9.529  12.265  0.1050 -0.1183 -0.0774
10794W        W26688   0.685   7.121  14.330  0.2557 -0.2007 -0.2268
10795W        W26689  12.021   1.670  15.527 -0.1769 -0.0486  0.0403
10796W        W26690   2.571  12.572  14.623 -0.0056 -0.2022 -0.1376
10797W        W26691   1.200   2.796   2.355 -0.0103 -0.2986 -0.3025
10798W        W26692  11.462   4.383  15.573  0.1194  0.0466 -0.0808
10799W        W26693  18.219   7.158   0.668  0.1571  0.0784 -0.0740
10800W        W26694  14.614  12.522  12.940 -0.0877 -0.2978  0.0672
10801W        W26695   9.870  13.182  15.153 -0.0646 -0.0037  0.3366
10802W        W26696  16.824   8.410   5.108  0.3451  0.0006  0.0101
10803W        W26697  11.354   8.556  11.997 -0.3222 -0.0456  0.1597
10804W        W26698   8.812   7.262  15.936 -0.1041 -0.1653  0.1291
10805W        W26699  12.540  12.097  11.333 -0.0711  0.3904 -0.0497
10806W        W26700  13.899  17.695   4.045  0.1307 -0.4486  0.0797
10807W        W26701  10.117   3.463  12.660 -0.1642  0.2100  0.0193
10808W        W26702   4.131  11.732   4.048  0.0054  0.0863  0.1605
10809W        W26703   7.544   4.302   0.989  0.1131 -0.1735  0.0370
10810W        W26704   0.846   2.947   1.936 -0.0691 -0.0931  0.1588
10811W        W26705   5.228   9.266  14.490 -0.0654 -0.3521  0.1165
10812W        W26706   4.703   2.585   1.700  0.2772  0.0414 -0.4506
10813W        W26707   3.421  15.797   4.005  0.3350  0.1577 -0.2571
10814W        W26708  11.222  16.434   3.980 -0.0216  0.0608 -0.0318
10815W        W26709   0.847  11.349  13.373 -0.1443 -0.2580  0.0830
10816W        W26710  10.275   7.763   1.749  0.0171  0.1036 -0.1778
10817W        W26711  12.353  15.379  11.739 -0.1672 -0.1385  0.0676
10818W        W26712  14.214   7.040   0.213  0.1529 -0.0089  0.0875
10819W        W26713   8.966   6.004   0.925 -0.0852 -0.1771  0.0407
10820W        W26714  13.010   8.132   0.756  0.0168 -0.1762 -0.2502
10821W        W26715  14.074   7.916  11.479 -0.0591 -0.1339  0.0561
10822W        W26716  10.007  17.105   3.295 -0.0245 -0.0039  0.2007
10823W        W26717   9.614   7.356   3.538 -0.3049 -0.1329  0.3048
10824W        W26718  12.046   3.927  16.029 -0.1148 -0.2435 -0.0320
10825W        W26719   3.374   8.736   0.713  0.0509 -0.0810  0.1836
10826W        W26720  17.116  10.577   5.129 -0.2118  0.1020  0.3373
10827W        W26721  18.080  18.233  15.554  0.0865 -0.2756 -0.1550
10828W        W26722  11.453   9.839   0.534 -0.2919 -0.7568  0.0023
10829W        W26723   0.526   5.921  14.460  0.0883  0.0389  0.0225
10830W        W26724  17.518   2.978   5.532  0.2153 -0.0872  0.0537
10831W        W26725   2.993  12.219   3.707 -0.2207 -0.2087 -0.1396
10832W        W26726  17.497   4.776  11.473  0.1383 -0.1584 -0.1436
10833W        W26727   3.092   0.772   4.779  0.0518 -0.1342 -0.1693
10834W        W26728  11.074   2.741   3.517 -0.0040 -0.1419 -0.0192
10835W        W26729   6.739  13.882  13.714  0.0492 -0.1750  0.1450
10836W        W26730   0.812  15.436   2.240 -0.3289 -0.0010 -0.0567
10837W        W26731  17.394  12.274   3.921  0.1157 -0.0009  0.0772
10838W        W26732  17.956   6.258   1.049 -0.2018 -0.1665  0.0505
10839W        W26733   3.426  16.764   4.128  0.0987 -0.0722 -0.0307
10840W        W26734  14.406  13.988  15.781 -0.0662  0.1182 -0.0250
10841W        W26735  11.007   0.892   5.419  0.2768  0.1708 -0.3143
10842W        W26736   1.553   7.496  15.755 -0.0501 -0.1587 -0.3863
10843W        W26737   9.368   2.953  12.354  0.3033  0.1153  0.0300
10844W        W26738  16.153   4.680   4.919  0.2351 -0.1267  0.0460
10845W        W26739   3.914  17.008  14.662 -0.1720 -0.0780 -0.2449
10846W        W26740  16.060   5.673   6.247 -0.0716 -0.0694  0.0214
10847W        W26741   4.315   0.389  11.161  0.1209 -0.0645 -0.4199
10848W        W26742   4.583   0.942  15.468 -0.3007 -0.4781 -0.3780
10849W        W26743  14.766   8.403   5.153 -0.1664 -0.4555  0.1215
10850W        W26744   3.642   1.364  12.773  0.0339  0.2254  0.0997
10851W        W26745  10.079   5.633  11.607  0.0321 -0.1361 -0.0800
10852W        W26746  15.812   4.512   0.281  0.0181  0.1769 -0.2231
10853W        W26747  17.267   3.807   4.861  0.0269 -0.2611  0.2715
10854W        W26748   2.869   5.533  14.553 -0.0527  0.0759  0.0088
10855W        W26749  11.420  13.508  11.812  0.1412  0.2763  0.0876
10856W        W26750  15.906   0.523  10.928 -0.2771 -0.0505 -0.3403
10857W        W26751   2.066   1.179   5.509 -0.2266 -0.0037 -0.1312
10858W        W26752   7.441   3.446  15.710  0.4160  0.2388 -0.0098
10859W        W26753  18.100   4.469  16.287 -0.0140 -0.0810 -0.0999
10860W        W26754  14.978   5.819  11.563  0.0080  0.1662 -0.0551
10861W        W26755  17.958  13.705   1.388  0.0647 -0.0401  0.0895
10862W        W26756  16.034  13.726  12.593  0.0288  0.0030 -0.0890
10863W        W26757   8.573   9.958  15.229  0.2283  0.0830 -0.0621
10864W        W26758  11.377   7.720   4.764 -0.0040 -0.2193  0.0980
10865W        W26759   0.136  16.049   0.583 -0.0526  0.1812  0.0317
10866W        W26760  17.412  17.633  12.604 -0.0918  0.1569 -0.2166
10867W        W26761  12.491   6.102   3.401  0.0366 -0.0864  0.0708
10868W        W26762   9.956  10.020  15.627  0.0315 -0.1872  0.1079
10869W        W26763   7.666   7.653   4.248 -0.4655 -0.0978  0.1717
10870W        W26764   2.859   4.626   1.119 -0.0853 -0.1615  0.0766
10871W        W26765   1.310  10.299  13.096  0.0139 -0.3217 -0.0433
10872W        W26766  13.838  11.479   4.921 -0.2374  0.2138 -0.2164
10873W        W26767  10.548   9.018  14.032 -0.0434  0.1441  0.3051
10874W        W26768  14.815  15.400   2.990 -0.0505  0.0119  0.1452
10875W        W26769  15.116  15.610  14.084 -0.1926 -0.0891 -0.2055
10876W        W26770  17.978   4.532  15.270 -0.1290  0.1977  0.0640
10877W        W26771   2.163   1.571  14.459 -0.0210  0.2514  0.0229
10878W        W26772   1.083   3.650  14.032 -0.1502 -0.1722  0.0908
10879W        W26773  14.505   1.344   5.133  0.0110 -0.0296  0.1192
10880W        W26774   9.456   1.240   4.548  0.1413  0.0025 -0.2878
10881W        W26775  10.928  16.721   1.181  0.1604 -0.0309 -0.0224
10882W        W26776   6.017  17.148   4.231 -0.0439  0.3667  0.2139
10883W        W26777   7.579   0.779   4.841  0.1496  0.0758 -0.1912
10884W        W26778  16.910  14.051   3.595  0.1761 -0.1918  0.2779
10885W        W26779  18.156   7.401   4.139  0.1511  0.1198  0.0403
10886W        W26780  17.525  10.312   1.215 -0.2204 -0.1503 -0.0009
10887W        W26781  10.957   8.926   0.826 -0.1998 -0.2216  0.3640
10888W        W26782   2.802  13.416  15.469  0.0697 -0.1007 -0.4220
10889W        W26783   6.349  10.147  12.823  0.0771  0.1152  0.2049
10890W        W26784   9.747  12.274   2.884  0.2038 -0.1618  0.1481
10891W        W26785   9.662  10.646   1.009 -0.1253 -0.4544 -0.0596
10892W        W26786  17.877   0.486  11.690 -0.3602 -0.0524 -0.0102
10893W        W26787   0.544   5.582  12.948  0.0593 -0.0626 -0.0292
10894W        W26788   2.324   4.197  10.075  0.1154  0.1257 -0.0775
10895W        W26789  16.191   2.991   4.148  0.1046 -0.0645 -0.0516
10896W        W26790  12.241   9.395  12.734  0.0750 -0.0056 -0.2604
10897W        W26791   9.452  11.372   0.980  0.1993 -0.1256 -0.5290
10898W        W26792   6.537   3.647   1.847 -0.0568  0.1116 -0.0783
10899W        W26793  18.122   6.412   2.889 -0.0423  0.1535 -0.3786
10900W        W26794   5.087   7.341   2.962 -0.1377 -0.0122  0.0194
10901W        W26795   7.501   6.184   4.134 -0.0903  0.1351  0.1610
10902W        W26796  10.874  12.471   4.624 -0.0945 -0.0538 -0.1177
10903W        W26797  12.739   6.287   2.131 -0.0232 -0.0647  0.0461
10904W        W26798  10.887   8.988   2.859  0.0864 -0.2016 -0.3134
10905W        W26799  14.755   9.596   0.037  0.1451 -0.1545 -0.0966
10906W        W26800  15.909   2.073  14.793  0.0833  0.2189 -0.2315
10907W        W26801  14.132   5.343  13.319 -0.0704 -0.0586 -0.1090
10908W        W26802  12.733  16.139  14.447 -0.1260  0.0248 -0.0218
10909W        W26803   0.781  15.244  14.089 -0.1000  0.1716 -0.2105
10910W        W26804   1.817  18.224  15.226 -0.0601 -0.1410 -0.1663
10911W        W26805  11.918  14.843   1.810  0.1257 -0.0968 -0.0428
10912W        W26806  18.184   1.121   5.011  0.0638 -0.0053  0.1177
10913W        W26807  13.490   0.715  12.785 -0.2563 -0.1997 -0.1262
10914W        W26808  14.705   7.558   3.076 -0.2348 -0.0989  0.2328
10915W        W26809   5.776  10.288  15.955  0.1608 -0.2187 -0.0632
10916W        W26810   4.318  11.666  16.329 -0.1423  0.1507 -0.2997
10917W        W26811  14.664  17.304   3.464  0.5105  0.1849 -0.3066
10918W        W26812  14.279   5.861  13.266  0.3507  0.2677 -0.2576
10919W        W26813   5.058   8.040  11.137  0.1419 -0.2536  0.2661
10920W        W26814  10.843   3.354  12.074  0.0642 -0.2143  0.1230
10921W        W26815   3.019  14.488   3.535  0.2665 -0.0952  0.0137
10922W        W26816   9.201  14.192   2.820 -0.0863 -0.1291 -0.0790
10923W        W26817  14.919   4.642  13.293  0.2991 -0.1245  0.0671
10924W        W26818  13.401  14.142   2.863 -0.5001  0.0652 -0.0750
10925W        W26819  12.443   7.354  13.292 -0.1630 -0.3710 -0.0243
10926W        W26820   0.346   8.565  15.389 -0.2205  0.0191  0.2484
10927W        W26821   3.114   1.724  13.317  0.0494 -0.1446  0.1141
10928W        W26822   5.862  13.291   5.354 -0.1090 -0.0777  0.0816
10929W        W26823  10.854  10.110  14.328 -0.1693  0.3452  0.1473
10930W        W26824  13.722   9.922  12.888  0.2067  0.0765  0.0171
10931W        W26825  10.218   0.575  13.508 -0.0170 -0.1689  0.4044
10932W        W26826  11.514   7.653   3.294  0.2475  0.0196  0.1355
10933W        W26827  17.650  16.221  10.554  0.0285  0.0095 -0.2338
10934W        W26828  15.837   0.818  14.417 -0.1940 -0.2700  0.0909
10935W        W26829  17.779   6.199  13.924 -0.3343  0.0582  0.1117
10936W        W26830   1.665  16.637   5.658 -0.0016 -0.0303  0.0335
10937W        W26831   8.204   4.242   4.476  0.1742 -0.0050 -0.0146
10938W        W26832  13.143   0.632  13.102  0.1062  0.3265  0.0354
10939W        W26833  15.571   3.269   4.936  0.1247  0.2005  0.1823
10940W        W26834  12.598  12.343  15.909  0.2961 -0.0637 -0.5284
10941W        W26835  13.450   5.678  10.985 -0.0526 -0.0415  0.4331
10942W        W26836   4.951   3.469   5.127 -0.0976 -0.1330 -0.1535
10943W        W26837  11.804   0.393  11.008  0.1443  0.3019  0.0850
10944W        W26838   0.506  16.082   4.451 -0.1490 -0.0729 -0.0495
10945W        W26839   2.130  11.107   0.231  0.3524 -0.3647  0.0641
10946W        W26840   0.539  13.652  12.921  0.0657 -0.1698  0.0516
10947W        W26841   0.468  12.368  15.739 -0.0985  0.0545 -0.1902
10948W        W26842  16.785  12.414   2.223  0.0537  0.0481 -0.2011
10949W        W26843   6.595   5.295   2.427 -0.3130  0.1138  0.1297
10950W        W26844  14.277   6.895  11.115  0.1163 -0.3605  0.2864
10951W        W26845   6.002   6.510   0.420 -0.1994 -0.0548  0.1399
10952W        W26846  16.816  17.616  11.752  0.3095  0.4243 -0.0708
10953W        W26847   7.937   7.832  11.413 -0.1031  0.1873  0.1394
10954W        W26848  16.483   5.134  13.113 -0.0480 -0.1488 -0.0266
10955W        W26849   1.830   6.751  16.137  0.1898  0.0587 -0.0626
10956W        W26850   3.310   5.811   5.276 -0.1483 -0.2400 -0.2675
10957W        W26851   6.554   4.812  16.082 -0.0468 -0.1301  0.0131
10958W        W26852  11.618   9.289   0.535 -0.2698  0.1945  0.2900
10959W        W26853   7.497   8.100  14.477 -0.0007 -0.1189 -0.1944
10960W        W26854   7.297   1.015  14.349 -0.2114  0.0137  0.0627
10961W        W26855   7.705   3.789  12.988 -0.3371 -0.1520 -0.0907
10962W        W26856   1.858   8.374  12.204 -0.0980  0.1973  0.1366
10963W        W26857  12.538  16.730   5.506 -0.1990 -0.2608  0.0132
10964W        W26858   3.975  15.735  14.012 -0.2976  0.0472 -0.0801
10965W        W26859   4.383  13.398  13.820 -0.0022  0.1364 -0.0905
10966W        W26860   8.960   1.138   5.432  0.0238 -0.1246 -0.1879
10967W        W26861  14.627   4.505  12.358  0.3413 -0.1872  0.1520
10968W        W26862  13.458   9.514   2.331 -0.0730 -0.1026 -0.4036
10969W        W26863   7.431   4.469  15.200  0.0270 -0.0962 -0.1537
10970W        W26864  17.605   7.800  10.709  0.0647 -0.3082 -0.2811
10971W        W26865  13.989   7.805  13.345 -0.2992 -0.1962  0.0317
10972W        W26866   3.717   8.855   6.498 -0.2032 -0.0118 -0.2339
10973W        W26867  10.943  13.334   5.090 -0.0894  0.2547  0.0201
10974W        W26868   5.569   9.725   3.070 -0.2487 -0.2950 -0.0661
10975W        W26869   9.787  11.090  14.536 -0.4040 -0.1082 -0.0456
10976W        W26870   2.713   6.018  14.640  0.0009  0.0039  0.2306
10977W        W26871   3.346  15.108  11.578 -0.0426 -0.2118 -0.1746
10978W        W26872   3.224   9.014   5.211 -0.0008 -0.0582  0.2020
10979W        W26873  11.010  11.860   1.797 -0.2216 -0.1426  0.0584
10980W        W26874   5.045   0.418  10.971 -0.2665 -0.0503  0.0506
10981W        W26875   1.666   2.214   5.777  0.0002  0.0727  0.0994
10982W        W26876   0.322   2.941   1.116  0.0344 -0.4846 -0.1548
10983W        W26877  14.875   3.275  11.826 -0.4352 -0.1124 -0.1813
10984W        W26878   2.607   9.773   1.627  0.1701  0.2607  0.0479
10985W        W26879  10.820  14.033   2.397 -0.0130  0.0428 -0.2686
10986W        W26880  11.572  13.978  13.068  0.0712 -0.0168  0.2202
10987W        W26881   9.866  17.792  14.317 -0.4087  0.1411 -0.2226
10988W        W26882   2.106  17.444   5.276  0.0368  0.1388 -0.1098
10989W        W26883  12.522  14.651   0.697  0.1037 -0.1296 -0.2595
10990W        W26884  11.036   1.779  12.479 -0.0528  0.1066  0.2280
10991W        W26885  10.621  14.956  13.224 -0.2454 -0.0073 -0.1550
10992W        W26886   7.620   5.589   3.322 -0.0380 -0.4000  0.0813
10993W        W26887   4.614   7.926   0.574  0.0933  0.0650  0.2351
10994W        W26888   3.328  15.378   1.006 -0.0320 -0.2489  0.0670
10995W        W26889   1.518   5.924   4.302  0.0686 -0.0229 -0.0511
10996W        W26890   1.258  17.037  12.306  0.2882 -0.1280  0.0653
10997W        W26891   9.828  18.137  15.855  0.1155 -0.2934  0.1385
10998W        W26892   7.055   6.623  12.772  0.1070  0.0166  0.1683
10999W        W26893   3.098  11.216   3.479 -0.1214 -0.1320  0.0675
11000W        W26894  15.275   2.836   0.828  0.0010  0.2253  0.2095
11001W        W26895   1.134  12.471   3.984 -0.3017  0.0827 -0.1662
11002W        W26896   6.210  11.267  13.505 -0.1475 -0.2039 -0.0425
11003W        W26897   8.378   0.019   3.328 -0.1702  0.1024 -0.0157
11004W        W26898   3.314  17.131  14.105 -0.1888 -0.0357  0.3873
11005W        W26899   5.628   4.827  14.529  0.2291 -0.0175 -0.1160
11006W        W26900  14.487   0.007  13.671 -0.0350 -0.0657  0.1528
11007W        W26901  11.883  14.187   1.631 -0.0064 -0.3096 -0.0099
11008W        W26902  10.281   2.576   3.221  0.0948  0.0567  0.0814
11009W        W26903  16.092  10.503  13.808  0.1557 -0.1905  0.1921
11010W        W26904  10.243   9.845  12.297  0.1567 -0.2193  0.0476
11011W        W26905   9.414   2.411   0.831  0.2765 -0.1776 -0.3259
11012W        W26906  15.789  15.021  14.481 -0.2784 -0.1489  0.0613
11013W        W26907   7.731   7.596  16.038 -0.3175 -0.3361  0.1106
11014W        W26908  17.294   0.478  16.071  0.1527 -0.1258  0.0777
11015W        W26909   3.959  12.057   4.664 -0.3177 -0.5288 -0.0905
11016W        W26910  17.562   0.387  12.253  0.0729 -0.3571  0.1043
11017W        W26911  10.429   1.358   4.318 -0.3030  0.3637  0.1479
11018W        W26912  15.323   8.910  16.411 -0.1874 -0.3157  0.0331
11019W        W26913  17.787   7.820   5.419  0.0274 -0.0609 -0.0183
11020W        W26914   7.708  13.905   5.239 -0.0308 -0.4785 -0.3083
11021W        W26915   8.571   7.426  13.310 -0.3007 -0.0505  0.3727
11022W        W26916   9.096  15.296  12.601  0.1965  0.1595  0.0464
11023W        W26917  16.347   5.932  12.544 -0.3590  0.0392  0.0667
11024W        W26918   5.562   2.586  13.267  0.1294  0.2252 -0.3830
11025W        W26919  10.690  17.753   1.206 -0.2849 -0.2372  0.1026
11026W        W26920  11.662   4.012   1.765  0.0345 -0.1164 -0.3509
11027W        W26921   8.424   9.019  11.922  0.0988  0.0790 -0.2173
11028W        W26922  10.161   1.550  12.410 -0.0546 -0.3023  0.0941
11029W        W26923   9.761   2.871  13.500  0.0373 -0.0970  0.0572
11030W        W26924  12.137  17.430   2.149 -0.6500  0.1168 -0.0779
11031W        W26925   2.784  18.014   6.167 -0.0189 -0.1685 -0.2029
11032W        W26926  11.099  14.162   0.198  0.0916 -0.2225 -0.1947
11033W        W26927  18.159  15.236  15.131  0.1453 -0.3736  0.0146
11034W        W26928  12.208   6.989   3.466 -0.0805  0.3043 -0.0432
11035W        W26929  16.973  16.938  15.724  0.2556  0.0969 -0.0935
11036W        W26930  15.546   4.496   3.551  0.0900  0.2438 -0.0340
11037W        W26931  15.869  16.200  13.886 -0.1564 -0.3564  0.1156
11038W        W26932   7.590   8.023   1.131 -0.3091 -0.0898 -0.0494
11039W        W26933   5.693   0.062   4.270  0.0329  0.1024  0.1461
11040W        W26934   1.199  15.644   4.018  0.2275  0.2697  0.2135
11041W        W26935  10.826  12.276  10.389  0.0402  0.0780  0.0794
11042W        W26936   1.809   7.150   3.924 -0.0574  0.0325 -0.0319
11043W        W26937   9.760   2.473   2.938 -0.0725  0.1959 -0.0985
11044W        W26938   3.882  17.414   4.796 -0.1901  0.1910  0.1324
11045W        W26939   4.915  13.548  15.601  0.3481  0.1935 -0.2748
11046W        W26940  11.492   4.285  16.357  0.3968 -0.1455  0.0192
11047W        W26941   1.197  11.879  15.301  0.2010  0.2837  0.0809
11048W        W26942  16.642  10.930   2.584 -0.2085  0.2123 -0.0508
11049W        W26943   0.162  13.543  12.530  0.0331 -0.2186  0.0786
11050W        W26944   8.269   5.595  12.072 -0.1038  0.0555  0.1419
11051W        W26945  17.788   3.562  14.778  0.2720  0.0931 -0.1744
11052W        W26946   1.194   6.112   3.917  0.2892 -0.0555 -0.0048
11053W        W26947   1.640   6.370   3.597 -0.0999  0.0164 -0.0126
11054W        W26948   1.362   6.328   0.712  0.1890 -0.1547  0.4218
11055W        W26949   1.372  16.055  16.451  0.3366 -0.0328 -0.0036
11056W        W26950   2.693   4.068   2.882 -0.1644 -0.0584  0.0107
11057W        W26951   4.001  10.202  16.404 -0.2170  0.1231  0.1823
11058W        W26952   3.408   4.062  15.816  0.1693 -0.1482 -0.2401
11059W        W26953   6.935  13.596  16.220  0.0214 -0.0251 -0.1269
11060W        W26954  10.755  10.415  11.769 -0.2286 -0.0937  0.0151
11061W        W26955  17.261  13.723   4.058 -0.2109 -0.1403  0.1152
11062W        W26956  10.236  11.319   2.884 -0.2180  0.0630  0.1065
11063W        W26957   5.543  14.848   4.786  0.0617 -0.3360  0.0553
11064W        W26958   0.830   2.326   0.857 -0.0009 -0.1573  0.2064
11065W        W26959   0.263  16.635  12.341  0.2226 -0.3011  0.5346
11066W        W26960   6.200   0.625  12.344 -0.4038 -0.0370  0.0894
11067W        W26961   9.118  11.790   4.046 -0.1312 -0.0318  0.0712
11068W        W26962  16.894  14.919  13.619 -0.3249  0.1867  0.0274
11069W        W26963  11.904  11.725   2.491  0.2049 -0.2957 -0.0645
11070W        W26964  11.970   6.220   4.224  0.0142 -0.0228  0.0129
11071W        W26965   3.869   4.204   4.633 -0.0481  0.0983  0.0241
11072W        W26966   4.834  14.548  16.102  0.0271 -0.0360 -0.2849
11073W        W26967  12.242   6.720  11.897  0.0743 -0.0469 -0.0132
11074W        W26968  13.318  17.383  14.833 -0.2841 -0.4460 -0.2800
11075W        W26969  15.565  17.311   5.634 -0.4670  0.0380 -0.0558
11076W        W26970  11.867   5.523  11.431 -0.0663 -0.1578 -0.0169
11077W        W26971  15.377  17.525   2.432 -0.1215 -0.0284  0.2052
11078W        W26972   7.208   5.765  14.198  0.1359 -0.1007 -0.2562
11079W        W26973  12.155   5.437   0.502 -0.1544 -0.0809 -0.0349
11080W        W26974   1.520  11.124  13.684 -0.2681  0.0071  0.0752
11081W        W26975   5.494  14.641  16.239 -0.0752  0.1227  0.1356
11082W        W26976  10.644  12.501  15.255  0.0887  0.3563 -0.0369
11083W        W26977  16.082   3.763   1.069  0.0322 -0.0180  0.1802
11084W        W26978   8.452   5.360   2.895  0.0273 -0.1856 -0.1367
11085W        W26979  15.655   0.930  10.362 -0.0724 -0.0955  0.3333
11086W        W26980  12.482   0.580  13.917  0.0452  0.1850 -0.0253
11087W        W26981   2.424   5.800   2.590  0.1135 -0.0744  0.1006
11088W        W26982   2.916   9.386   1.418  0.0077 -0.3561  0.0738
11089W        W26983  10.780   6.517  14.542  0.1457  0.0011  0.2021
11090W        W26984   9.863  14.522   2.105 -0.2666 -0.0877  0.1197
11091W        W26985   4.235   9.920  15.988  0.1294  0.2172 -0.1968
11092W        W26986   8.634   8.334   3.312 -0.1381 -0.1502  0.1562
11093W        W26987  14.913   2.928   2.921  0.2040  0.1551  0.1170
11094W        W26988  13.922   3.736  12.110  0.1672  0.1753 -0.0343
11095W        W26989  14.183  17.655  14.801 -0.1034 -0.4574  0.0165
11096W        W26990  13.251   4.197   1.222  0.0739 -0.0044  0.1977
11097W        W26991   2.519   7.214  15.386 -0.0371 -0.0652  0.0942
11098W        W26992   5.258   6.327  10.584  0.1690  0.3167 -0.2204
11099W        W26993  14.973   2.354  12.312  0.1040  0.1415 -0.2726
11100W        W26994  18.036  18.138  14.960  0.0257 -0.0559  0.0958
11101W        W26995   0.564   3.708   1.294  0.0097 -0.3497 -0.2504
11102W        W26996   0.376  11.671   3.013  0.0405 -0.0842  0.1318
11103W        W26997  11.698   7.770  16.153  0.0488  0.0145 -0.0344
11104W        W26998   8.005   6.043   4.087  0.1656  0.2228  0.1987
11105W        W26999   1.913  18.020   1.268  0.0146 -0.1204  0.0174
11106W        W27000   9.561   2.059   3.348  0.1001 -0.0352 -0.2298
11107W        W27001  17.599   3.759  15.804 -0.4500  0.0260 -0.0041
11108W        W27002  16.485   7.768   5.778  0.0483  0.0394 -0.5123
11109W        W27003  14.235  15.321   5.011  0.0630  0.0050 -0.2771
11110W        W27004  17.228   3.158   2.019  0.0369  0.1635 -0.3349
11111W        W27005  12.452   3.443   0.677  0.4331 -0.0100 -0.1100
11112W        W27006  18.202   8.926   4.024  0.3673 -0.0987 -0.1523
11113W        W27007  10.513  16.511  14.686 -0.2288 -0.0227 -0.1915
11114W        W27008   2.257   8.792   1.602  0.2564  0.0661 -0.0872
11115W        W27009  12.499   3.255   2.727  0.3507 -0.2183 -0.0772
11116W        W27010   9.630   2.803  14.270 -0.1865  0.1642 -0.2349
11117W        W27011  14.242  11.319   0.244 -0.2428  0.1144  0.1394
11118W        W27012  15.612   3.912  15.062 -0.3134 -0.0433 -0.0801
11119W        W27013  14.695   7.237   3.813 -0.1088  0.1055  0.2980
11120W        W27014   7.413  17.800  12.604  0.0056 -0.0118  0.2670
11121W        W27015   9.656   5.349  11.941 -0.0867 -0.0611  0.3921
11122W        W27016  13.833   0.112   5.434 -0.0776  0.1694 -0.0614
11123W        W27017  14.440  13.719  13.106  0.0487  0.0362  0.1685
11124W        W27018  17.338  15.181  11.859 -0.0193 -0.0720 -0.2791
11125W        W27019   4.977  14.560   3.260  0.2183  0.1710 -0.1369
11126W        W27020  12.740  15.090   4.052  0.1384 -0.0073  0.1084
11127W        W27021  15.391   0.406  15.610 -0.0316 -0.0213  0.3685
11128W        W27022  11.573   2.980  12.464 -0.1816 -0.0677 -0.2186
11129W        W27023  11.352  11.346   3.726  0.1098  0.0999 -0.3184
11130W        W27024   2.697  14.247   4.923 -0.0560  0.1442  0.0477
11131W        W27025  14.583   7.990   3.832 -0.0192  0.2839 -0.1496
11132W        W27026   1.401   3.255  14.230  0.3271  0.0688 -0.1188
11133W        W27027  11.392  12.879  12.711  0.0434 -0.0972  0.1920
11134W        W27028   7.591  14.158   3.468 -0.0898  0.0079 -0.0121
11135W        W27029   0.126  11.085  13.936 -0.2490  0.4107  0.1263
11136W        W27030   2.306  14.173   4.534  0.3263 -0.2952 -0.0037
11137W        W27031   8.660  15.099   3.250 -0.0305 -0.2681  0.0116
11138W        W27032   7.216   8.405   0.318 -0.0871  0.0913  0.3481
11139W        W27033   3.170  11.042   1.135  0.1359  0.0748 -0.2259
11140W        W27034   7.019   6.992  15.995  0.0943  0.1819 -0.0967
11141W        W27035  13.145  16.146  15.898 -0.0438 -0.0955 -0.1334
11142W        W27036  14.144   2.792   2.844  0.2579 -0.1985 -0.1039
11143W        W27037  10.492   3.815  12.136  0.3090  0.1130  0.4904
11144W        W27038   0.205  13.680  13.365  0.2176  0.0889 -0.1676
11145W        W27039   4.605  16.827  14.517  0.0494  0.1596 -0.0224
11146W        W27040   3.008   3.129  16.383 -0.0963 -0.1049  0.0844
11147W        W27041   8.328   3.577  11.463  0.0788 -0.1551 -0.2087
11148W        W27042  10.125   8.479   4.975  0.1168 -0.1148  0.0710
11149W        W27043  12.059   9.920  14.064 -0.0697  0.1202  0.4129
11150W        W27044   0.769  15.720  14.766 -0.3111  0.0615  0.2122
11151W        W27045   9.327   5.972  15.471  0.2872  0.1961  0.1556
11152W        W27046   1.442   4.893   0.128 -0.1369  0.0649  0.0089
11153W        W27047   7.421   8.137   4.358  0.0024 -0.1523  0.1904
11154W        W27048  12.628   7.007   5.627  0.0294 -0.3204  0.2222
11155W        W27049  13.017   5.899   0.865 -0.2763 -0.0009  0.0455
11156W        W27050   4.439   5.332   1.166  0.0101  0.3809  0.0886
11157W        W27051  15.229   6.787  11.402  0.3175  0.0443  0.0400
11158W        W27052  12.028  10.804  15.357  0.0391 -0.4601  0.4985
11159W        W27053  11.599  13.226   3.616  0.0052  0.1955 -0.0739
11160W        W27054   9.259  10.508   1.460  0.1358  0.0860  0.1307
11161W        W27055  11.730   7.659   1.863 -0.1295  0.0428 -0.1340
11162W        W27056   3.432  11.455  13.708  0.0403  0.0029  0.2334
11163W        W27057  12.350   4.021   4.370 -0.2916  0.0340  0.4309
11164W        W27058  17.228  16.006   0.939 -0.0844  0.3227  0.0736
11165W        W27059   6.390   7.425  15.729  0.1786  0.0298 -0.1282
11166W        W27060   1.213   3.575  13.526 -0.1666  0.0425 -0.0847
11167W        W27061   4.101  10.150   5.032  0.1288  0.0279  0.3459
11168W        W27062   0.551   6.215  11.135 -0.0649 -0.2020 -0.2905
11169W        W27063   4.908  17.914   3.696 -0.2001 -0.1343  0.2442
11170W        W27064   4.533  14.097   3.362  0.1564 -0.2652 -0.1150
11171W        W27065   2.033  16.313   2.479  0.0091 -0.1998 -0.2187
11172W        W27066   5.589   3.235  14.319  0.0863 -0.1198 -0.0438
11173W        W27067  11.155  13.361  12.258 -0.0293 -0.0728  0.0734
11174W        W27068  11.912  15.352   5.343  0.0172 -0.2748 -0.2041
11175W        W27069   4.676   2.402   4.668  0.2355 -0.0568 -0.1532
11176W        W27070  14.686   2.523  12.776 -0.2274  0.1030  0.1514
11177W        W27071   9.743   0.203  12.823  0.0959 -0.2578  0.0394
11178W        W27072   9.667   9.212  15.427  0.2011 -0.1975  0.1599
11179W        W27073  12.245   9.895  14.945  0.0612 -0.2033  0.0248
11180W        W27074  15.340  13.745   0.584 -0.0084  0.0629 -0.0063
11181W        W27075   9.582  12.288   0.951 -0.0429  0.1002  0.3654
11182W        W27076   4.042   0.172  16.456  0.3429  0.1370  0.1583
11183W        W27077  11.671  10.740   0.869 -0.0009  0.0672  0.0139
11184W        W27078  15.737  14.562  12.721  0.2710 -0.1953 -0.1804
11185W        W27079  16.583  10.176   3.534 -0.3220 -0.2170 -0.0363
11186W        W27080   7.564  12.970   2.779 -0.0602  0.1056 -0.0590
11187W        W27081   9.289  12.171  13.830 -0.1037  0.0945 -0.0065
11188W        W27082   0.482  14.758  12.368  0.0703 -0.0310 -0.0408
11189W        W27083   6.451   5.050  14.415 -0.1373  0.1238  0.3483
11190W        W27084   9.229   5.534  11.762  0.1289  0.2443  0.1230
11191W        W27085  14.609   6.267  13.313 -0.0857 -0.1947 -0.1355
11192W        W27086   9.869  14.583  12.873 -0.1163  0.1580  0.1174
11193W        W27087   2.340   5.320   4.856 -0.1095  0.1431  0.0826
11194W        W27088   7.795  15.854   4.816 -0.1540  0.5060 -0.0599
11195W        W27089  10.205  10.332   1.447 -0.2859  0.2596  0.1846
11196W        W27090  11.028   5.566   0.136 -0.0201 -0.0322 -0.0608
11197W        W27091   9.442  10.517  15.819  0.0423 -0.1018  0.1479
11198W        W27092   0.584  11.558   5.403 -0.0905 -0.1432 -0.3416
11199W        W27093   9.906   6.203  14.079  0.0332 -0.0459  0.3211
11200W        W27094  17.366   5.118  13.629  0.0155 -0.1964 -0.0982
11201W        W27095   3.781  11.131  12.300  0.2825 -0.0333 -0.2110
11202W        W27096   9.010   9.201  13.474  0.0883 -0.2323  0.0890
11203W        W27097  14.559   0.939  13.687 -0.1774  0.1548  0.2680
11204W        W27098   1.916   8.266   2.305  0.2324 -0.1875  0.1187
11205W        W27099   2.611   3.165   0.262  0.1095  0.3855  0.2235
11206W        W27100   8.285  15.354  11.349 -0.0353  0.2520  0.1196
11207W        W27101  16.103  11.088  14.716  0.2273  0.3737  0.0132
11208W        W27102   3.677   8.806   1.891 -0.1890  0.3551 -0.1303
11209W        W27103  10.007  13.231   3.576 -0.0242  0.2882 -0.1927
11210W        W27104   9.929   9.845   3.933  0.3012 -0.0499 -0.0200
11211W        W27105  16.116   6.457  11.844  0.1638 -0.1765 -0.0859
11212W        W27106   3.947   2.684  12.571 -0.0269 -0.2222  0.0411
11213W        W27107  16.825   2.127   0.066 -0.1023  0.2351  0.1065
11214W        W27108   2.493   3.991   0.208  0.3404  0.0350 -0.1141
11215W        W27109   1.950   1.188   5.014  0.0952 -0.2182 -0.1396
11216W        W27110  12.773  10.334   0.342 -0.0954 -0.0940 -0.3549
11217W        W27111   5.879  16.603  12.368  0.0428  0.2168  0.0671
11218W        W27112   6.786  12.325   3.793 -0.1192  0.0465 -0.2059
11219W        W27113   3.853   7.401  13.710 -0.1777  0.1433 -0.0187
11220W        W27114   6.159   4.755  12.928 -0.2739  0.0708 -0.3911
11221W        W27115   5.851   1.352   2.461  0.3126 -0.4490 -0.1075
11222W        W27116   9.297   6.816  15.978  0.0507 -0.1796  0.1161
11223W        W27117  17.949  15.763   4.556 -0.0617 -0.1456  0.2720
11224W        W27118  11.833  12.840   4.437 -0.0945 -0.2494  0.0610
11225W        W27119   3.745  16.448   0.512  0.0925 -0.0390 -0.2171
11226W        W27120  16.524   1.673  12.533 -0.3043  0.0503  0.2513
11227W        W27121   5.650   4.609  11.567 -0.2613 -0.3894 -0.1973
11228W        W27122  17.672  16.099  12.846  0.1704 -0.1145 -0.0033
11229W        W27123  17.293  15.498   2.218  0.0217  0.0983  0.2955
11230W        W27124   2.692   3.191  15.095 -0.0688  0.0517 -0.0496
11231W        W27125   7.230   0.052   1.237 -0.4256  0.0686  0.0228
11232W        W27126  10.343   5.267  11.828 -0.0030 -0.1529  0.1899
11233W        W27127  16.381  16.047   2.288 -0.1093 -0.0502 -0.1201
11234W        W27128   2.409  12.718  11.674  0.1908 -0.1361 -0.0773
11235W        W27129   4.353   2.035  12.594 -0.3097  0.2317  0.0279
11236W        W27130   6.178  13.459   2.663 -0.4465  0.0641  0.0542
11237W        W27131   1.034  10.447   1.798 -0.2888  0.3366  0.0000
11238W        W27132   2.111  11.171  15.461 -0.2272 -0.0294  0.1860
11239W        W27133  10.929  11.223  13.278 -0.0872 -0.1463  0.1228
11240W        W27134  16.050  15.374   0.236 -0.0467 -0.0162  0.2051
11241W        W27135  15.770   7.019   5.054 -0.0473  0.0043  0.0468
11242W        W27136  13.620  10.426  12.816 -0.0806 -0.0989  0.0439
11243W        W27137   7.279  12.389   3.294 -0.0836  0.0367  0.2389
11244W        W27138   6.906  16.681  15.926 -0.2580  0.0441 -0.2204
11245W        W27139  17.721  14.850  16.402  0.1241 -0.4018  0.0655
11246W        W27140  15.534  16.049  11.516  0.2636 -0.0679 -0.0727
11247W        W27141   3.579   2.956  16.314 -0.4576 -0.2604  0.1086
11248W        W27142   2.175  15.007   2.142 -0.1480 -0.0087 -0.3605
11249W        W27143   6.996  14.164  14.704 -0.0171  0.2595 -0.2218
11250W        W27144   4.072   8.160  12.486 -0.0494 -0.2047 -0.2060
11251W        W27145  16.842   4.940   3.768  0.1558  0.1256  0.2256
11252W        W27146  12.123   6.996  11.485 -0.2595  0.1892  0.2217
11253W        W27147   4.199   7.747  15.579 -0.1791  0.0642  0.0228
11254W        W27148  17.040  17.457  11.335  0.1727  0.2938  0.1416
11255W        W27149  14.698   1.017   1.227 -0.1107  0.1223 -0.1272
11256W        W27150   6.514  16.609  14.959  0.0460 -0.4300 -0.0992
11257W        W27151  14.802  13.144   0.982 -0.0285  0.0286  0.0681
11258W        W27152   0.694   2.145  14.491  0.0608  0.1242  0.0197
11259W        W27153  12.950  14.975   4.940  0.2406  0.0887  0.1250
11260W        W27154   4.089   0.236  15.420 -0.1819  0.2829  0.1709
11261W        W27155   5.518  12.609  11.357 -0.0618 -0.0957 -0.0510
11262W        W27156  17.529  13.750   2.702 -0.1141  0.1303 -0.2497
11263W        W27157   9.604   7.979  13.898 -0.0184 -0.0225  0.0036
11264W        W27158   0.984   9.599  16.374 -0.2129  0.0955  0.0307
11265W        W27159   6.060   6.980   1.227  0.1992  0.0686  0.0909
11266W        W27160   4.498   2.847   4.511 -0.4176 -0.5083 -0.1239
11267W        W27161   0.553  18.093   2.427  0.0611 -0.4576 -0.3711
11268W        W27162   8.368  13.305  12.920  0.2449 -0.0005  0.3289
11269W        W27163   9.678  11.939  14.645 -0.0718  0.0029  0.2614
11270W        W27164   1.083  16.620  12.079 -0.2952  0.2040 -0.2428
11271W        W27165  12.785  15.370  13.880 -0.1318  0.3026 -0.2448
11272W        W27166   6.349  12.221  14.397  0.1039 -0.2940  0.0461
11273W        W27167   9.137  18.210  14.476 -0.0616  0.0292 -0.1382
11274W        W27168   0.712   7.962   0.911 -0.2342  0.1485 -0.1299
11275W        W27169  11.536  12.746  11.470  0.1280 -0.0312  0.2003
11276W        W27170   8.581  15.310   4.348  0.1927  0.1842 -0.0327
11277W        W27171   5.690   8.770  11.739  0.0488 -0.0673  0.2422
11278W        W27172   9.085   2.173   3.424 -0.1306  0.0318 -0.2908
11279W        W27173  10.159   0.061   4.554  0.1873  0.0243 -0.0717
11280W        W27174   5.453  10.153   5.379  0.3125  0.2431 -0.0791
11281W        W27175  15.918   0.129   2.782  0.0708 -0.2339  0.1846
11282W        W27176  10.159   8.156  16.203 -0.0178 -0.4487 -0.1307
11283W        W27177  15.340   2.044  12.206  0.0791  0.0461 -0.0152
11284W        W27178  15.108   9.736   2.422  0.1617  0.2226  0.1478
11285W        W27179   9.481   5.017   2.387 -0.1144  0.3320  0.0739
11286W        W27180  13.850   4.032  12.689 -0.0232 -0.1382 -0.4395
11287W        W27181   3.408   1.588  15.883  0.0270  0.2656  0.1761
11288W        W27182   8.754  14.230   2.100 -0.3204  0.3211  0.1316
11289W        W27183   7.545  11.753   2.292  0.0245  0.0445 -0.0097
11290W        W27184   2.551  13.074  13.431  0.1887  0.4230  0.0840
11291W        W27185  17.123   5.084  11.405 -0.0188  0.1077  0.3230
11292W        W27186   2.845   7.651  13.616  0.2152  0.1031  0.2133
11293W        W27187   0.775   9.677   4.632  0.0052  0.4231  0.0261
11294W        W27188   6.998   8.035  13.026  0.1115  0.2151 -0.0407
11295W        W27189   4.435  10.284   1.374  0.0763  0.5371 -0.0280
11296W        W27190   9.226  17.317  15.521  0.0724 -0.1047 -0.0489
11297W        W27191   3.097   4.707   4.386 -0.3844  0.1710  0.1623
11298W        W27192   8.312   6.350  15.252  0.1279 -0.1257 -0.1363
11299W        W27193  14.636  15.178  12.114  0.1585 -0.3404  0.0366
11300W        W27194   1.871   4.393  15.941 -0.2940  0.0642 -0.0267
11301W        W27195  16.092   7.031   5.387 -0.1684  0.1645  0.3780
11302W        W27196  16.789  10.482  14.997  0.0385  0.3534  0.3350
11303W        W27197   6.541  12.455  12.771  0.0882  0.0794  0.2821
11304W        W27198  13.556   3.019  16.091  0.1964 -0.0967  0.0894
11305W        W27199   7.051  15.213   2.516  0.4468  0.2158 -0.2196
11306W        W27200   9.255   2.989   5.388  0.1327 -0.0572  0.0913
11307W        W27201   1.407  17.434   4.540  0.0614  0.1645 -0.1457
11308W        W27202   9.947  11.951   5.325  0.2730  0.0446  0.0137
11309W        W27203   9.929   6.844  12.761  0.3211  0.0807  0.2022
11310W        W27204   6.532   6.859  13.575 -0.1142 -0.1588  0.2199
11311W        W27205   9.840  12.743  15.625 -0.2308 -0.0523 -0.0337
11312W        W27206  11.541   9.880  13.748  0.2679  0.0099  0.4787
11313W        W27207   4.141   8.256   3.239  0.0918 -0.0637 -0.0101
11314W        W27208  14.018  12.815   2.688  0.0374  0.2067  0.3582
11315W        W27209   9.534   1.876   0.669 -0.1916  0.0045  0.3165
11316W        W27210   8.877   0.364  13.725  0.1040  0.2203  0.0949
11317W        W27211   8.116  16.309  14.794  0.0661  0.2576  0.2815
11318W        W27212  13.627  15.024   1.373  0.0657  0.0114  0.1267
11319W        W27213  10.562  11.467  14.986 -0.1595  0.0337 -0.0210
11320W        W27214  17.220   3.322  11.635 -0.0410  0.2460 -0.3088
11321W        W27215  14.816  10.710   2.434  0.2876  0.0620 -0.0022
11322W        W27216  10.651   2.230   0.297 -0.1405 -0.0410 -0.1493
11323W        W27217  15.054  10.851   0.947 -0.0481 -0.0821 -0.0784
11324W        W27218  12.482  17.673   1.711  0.1665  0.1896  0.0981
11325W        W27219  13.204   5.950  11.879 -0.0804  0.0753  0.1123
11326W        W27220   3.780  14.416  12.172  0.1389  0.3895  0.1831
11327W        W27221  17.988  11.917  15.303 -0.0190  0.2864 -0.2510
11328W        W27222   6.704   5.238   1.905 -0.1692 -0.1597 -0.1332
11329W        W27223   0.077  11.032  12.611  0.1353  0.0227  0.0501
11330W        W27224   6.806  14.109  10.430  0.0540  0.2274 -0.0494
11331W        W27225  11.169   6.790   4.096  0.3540  0.3057 -0.2253
11332W        W27226  16.447  10.539  12.563  0.1341 -0.2071  0.2562
11333W        W27227  12.353   2.885  10.376 -0.0922 -0.2507  0.0533
11334W        W27228   5.041  17.347  12.590 -0.0015 -0.0701  0.0135
11335W        W27229   4.963  18.201  11.397 -0.0204 -0.0491 -0.1519
11336W        W27230   4.576  16.471   5.375  0.3173 -0.2016  0.1812
11337W        W27231   7.901  17.920  16.072  0.2125 -0.1900  0.1104
11338W        W27232   8.973  14.988  14.022 -0.0606 -0.2621  0.0354
11339W        W27233  11.982   4.387   5.992 -0.0361  0.1356 -0.0160
11340W        W27234   2.484   3.936  15.931  0.2514  0.0626  0.0327
11341W        W27235   6.551  12.804   1.029  0.3133 -0.0585 -0.1162
11342W        W27236  10.705  11.606   0.756  0.1099  0.0139  0.0670
11343W        W27237   6.807  10.985  14.682  0.0714 -0.1993 -0.1022
11344W        W27238   5.993   2.110   0.338 -0.0122 -0.3145 -0.1870
11345W        W27239  13.257   7.667   0.660 -0.0642  0.4133 -0.0641
11346W        W27240  11.166   5.403  15.052 -0.0459  0.1761  0.0303
11347W        W27241   5.308  16.271  11.967  0.1771  0.0305  0.2260
11348W        W27242   5.845   4.227  11.267 -0.3369 -0.2453 -0.5619
11349W        W27243  16.409   7.338   1.617 -0.0005  0.3031  0.0548
11350W        W27244   8.305   2.490   5.767 -0.0792 -0.2507 -0.0982
11351W        W27245   3.736  13.949  14.615 -0.2210  0.1369 -0.1176
11352W        W27246  16.188  16.467   1.005 -0.0180  0.0097 -0.3215
11353W        W27247   2.497  17.084  15.366 -0.1567 -0.1038  0.0669
11354W        W27248  16.003   5.573   4.077  0.0449  0.1953 -0.0220
11355W        W27249   9.350   2.497   3.139 -0.0955  0.0675 -0.1497
11356W        W27250  13.549   1.010  14.752 -0.0474  0.0435  0.2204
11357W        W27251   3.513   3.555  12.105  0.0204 -0.1452  0.0511
11358W        W27252   5.876  16.305   4.514  0.0995  0.0188  0.1604
11359W        W27253  16.163   0.085  13.179 -0.1640  0.1299  0.3539
11360W        W27254  10.047  12.824   4.873  0.0985 -0.0976 -0.0646
11361W        W27255   7.936   6.535  10.681 -0.0352  0.2769  0.1377
11362W        W27256   3.851  16.686   0.961  0.0700 -0.0031 -0.0443
11363W        W27257  18.206  11.858  14.870  0.0049  0.1090  0.0543
11364W        W27258   2.836  18.233  10.323  0.1299  0.0726 -0.1664
11365W        W27259   6.653  13.221   2.407  0.0159  0.0827 -0.0288
11366W        W27260  13.930  16.081  14.223 -0.1719 -0.0846  0.2216
11367W        W27261  10.332  12.143  16.156 -0.0990 -0.2384 -0.1475
11368W        W27262  11.760  14.094   3.472  0.0907  0.3031  0.3049
11369W        W27263  16.878   4.988   2.578 -0.1308  0.1490 -0.0963
11370W        W27264  13.806  17.058   1.913 -0.0354  0.2279  0.0597
11371W        W27265  13.376  12.634   0.299  0.0947  0.2832  0.0608
11372W        W27266   4.894   6.027   3.139 -0.2204 -0.4182  0.0287
11373W        W27267  13.768  10.597   5.901 -0.1895  0.0150  0.1326
11374W        W27268   8.844  12.503  13.266 -0.0605 -0.2621 -0.3468
11375W        W27269  17.290  11.155  13.264  0.2404  0.2712  0.2228
11376W        W27270   1.236   0.047   5.033 -0.0779  0.1354 -0.0515
11377W        W27271   0.691   7.137   5.495  0.0733 -0.0225  0.0927
11378W        W27272  10.606   5.591  14.370 -0.4120  0.2158 -0.1930
11379W        W27273  10.355  12.425   3.642  0.0921  0.0833  0.4455
11380W        W27274   9.264   4.299  12.836  0.1603 -0.2201  0.0153
11381W        W27275  17.898   1.515   4.917  0.0194 -0.2982  0.0639
11382W        W27276   3.831  12.688  12.502  0.0135 -0.0210 -0.0880
11383W        W27277  12.906  13.403  15.708  0.2402  0.0687  0.1688
11384W        W27278  12.025   0.251   2.911 -0.0793 -0.1263  0.1530
11385W        W27279   2.115  12.534  13.922  0.1001  0.1206  0.1701
11386W        W27280  11.781  10.852  14.786 -0.0707 -0.0140 -0.1219
11387W        W27281   1.392   6.079  13.182  0.0581  0.1550  0.2940
11388W        W27282  12.298  13.773  11.844  0.2480 -0.0189  0.0192
11389W        W27283  14.414  10.666  15.465  0.0537 -0.0727 -0.2522
11390W        W27284  10.842   3.101  14.518 -0.1088  0.1280  0.0455
11391W        W27285  11.804   0.101   2.054 -0.1137 -0.1675  0.2108
11392W        W27286  16.270   9.410   3.937  0.2171 -0.0122  0.1620
11393W        W27287   2.450   8.374  11.553 -0.2728  0.0564  0.0710
11394W        W27288  11.812   9.578  11.991  0.1261 -0.0020  0.0122
11395W        W27289   4.122  17.063   1.143 -0.1036 -0.1947 -0.0579
11396W        W27290  16.058   1.300  15.255 -0.3408 -0.0597  0.0180
11397W        W27291   2.389   1.529  13.967 -0.1364 -0.1593 -0.3455
11398W        W27292   8.668   0.482   2.511  0.1068 -0.0387 -0.2780
11399W        W27293   9.856   2.649  11.643  0.3035  0.0311 -0.2771
11400W        W27294   6.912  17.478   0.630  0.2685 -0.0708  0.0526
11401W        W27295  12.908   4.508   0.997  0.3820  0.1180  0.1758
11402W        W27296  10.625  17.459  13.104  0.0701  0.2740  0.3393
11403W        W27297   4.588   8.059   0.077  0.0505  0.0686 -0.0650
11404W        W27298   1.828  14.327   4.327  0.2116  0.0038  0.1001
11405W        W27299  16.872   1.071   4.745  0.1557 -0.0444  0.0929
11406W        W27300  14.714  11.196  14.411 -0.1922 -0.2237 -0.1706
11407W        W27301  16.960   5.010  13.226  0.1306  0.2601 -0.5303
11408W        W27302  10.988  17.397  15.587 -0.0881  0.3322 -0.2695
11409W        W27303   8.049  16.794  14.467 -0.1222  0.0471 -0.1556
11410W        W27304   2.528  18.076   5.692 -0.0545  0.1281  0.2276
11411W        W27305  14.380   4.576   1.488 -0.1770 -0.0866 -0.1596
11412W        W27306  17.497   4.922  14.126  0.2378  0.3682 -0.1008
11413W        W27307   6.756  12.113  13.368 -0.0872 -0.0977  0.4148
11414W        W27308   1.013  15.129   1.376 -0.1294 -0.1390 -0.4077
11415W        W27309   1.019  11.064  13.716  0.0431 -0.0028 -0.0562
11416W        W27310  17.143   9.486  15.879  0.3164  0.1810  0.0651
11417W        W27311  15.214   3.932  12.427 -0.2460  0.2385  0.0111
11418W        W27312   5.449  15.565   0.228  0.4790 -0.3720 -0.2191
11419W        W27313  12.896   9.369   4.635  0.1764 -0.0538  0.0693
11420W        W27314   2.144  16.340  14.087 -0.4359  0.1159 -0.0613
11421W        W27315   5.812   0.520   5.140  0.0642  0.1954  0.0966
11422W        W27316  11.160   6.076   2.336  0.0587  0.3606 -0.1993
11423W        W27317   8.193   0.128  12.608 -0.2049  0.2363 -0.1048
11424W        W27318   2.222  16.841   1.491  0.1076 -0.0013 -0.1964
11425W        W27319   7.441   2.424  11.319  0.0105  0.3143  0.0233
11426W        W27320  12.069   0.375  14.006  0.0910 -0.1152  0.1168
11427W        W27321  13.529  13.974   1.094  0.0574  0.0365  0.1044
11428W        W27322   4.643   7.850  14.295  0.0437 -0.0554  0.0730
11429W        W27323   1.531   2.585   4.752  0.0413  0.0485 -0.4706
11430W        W27324   3.629  15.584  16.432 -0.1286 -0.2016 -0.0975
11431W        W27325  17.899  17.747  15.690 -0.2115  0.4192  0.1351
11432W        W27326  11.486   8.481   5.085  0.0834 -0.0439 -0.0603
11433W        W27327   3.288   0.968   3.763 -0.1126  0.1068  0.1184
11434W        W27328   6.567   1.422   0.774 -0.2277 -0.0510  0.1874
11435W        W27329   2.162  16.192   0.031  0.0655  0.2133 -0.2360
11436W        W27330  12.844  17.938  16.295 -0.2147  0.1057 -0.1456
11437W        W27331  16.513   3.679  15.405  0.1224  0.0669  0.2610
11438W        W27332   2.255  15.531  13.472 -0.1099 -0.1949 -0.0216
11439W        W27333  18.095   7.283  12.529  0.1983 -0.0768  0.1392
11440W        W27334  14.353   7.081  13.845 -0.1113  0.2350 -0.2363
11441W        W27335   5.418   4.709  13.541  0.1612  0.0170 -0.2604
11442W        W27336  11.437   3.709  13.573 -0.0190 -0.3125 -0.1763
11443W        W27337  15.171   4.000  14.153 -0.1223 -0.1190  0.0837
11444W        W27338   7.499   0.402   0.305 -0.1276  0.2429  0.0727
11445W        W27339   2.334  12.247  11.286  0.0104  0.1486 -0.0596
11446W        W27340  11.021  10.597   2.021  0.0718  0.0924  0.2128
11447W        W27341   0.528  12.758   0.130  0.2356  0.0986  0.1368
11448W        W27342  16.984  17.240  12.939 -0.1638  0.0689  0.2141
11449W        W27343  15.530   6.382  13.745 -0.2410 -0.1745 -0.1325
11450W        W27344   2.701  10.907  12.877  0.1016  0.2957 -0.2601
11451W        W27345  11.330  14.711  15.448  0.1759  0.1440 -0.2827
11452W        W27346   1.616  17.228  13.463 -0.0178 -0.1581  0.0248
11453W        W27347  16.400   9.650  15.987  0.0769  0.1555 -0.0255
11454W        W27348  10.032  12.159   0.718 -0.2233  0.0729 -0.0748
11455W        W27349   7.369  14.922  13.502  0.3997 -0.0746  0.1843
11456W        W27350   2.909   2.340   5.158  0.1338 -0.1812 -0.0585
11457W        W27351   8.934   3.578  16.195  0.0774 -0.4090 -0.1103
11458W        W27352   1.917   7.018   1.060 -0.0753 -0.0429 -0.1254
11459W        W27353   6.989   1.011  13.469  0.1694  0.3327  0.0511
11460W        W27354  14.728  14.260  15.566  0.0908  0.0220  0.0916
11461W        W27355  13.613   3.764  15.822  0.2627 -0.1338 -0.0813
11462W        W27356  11.508   5.052   0.626  0.0979  0.0664 -0.2631
11463W        W27357  11.889  17.915  14.175  0.1384 -0.2147 -0.0760
11464W        W27358   3.377   1.668  12.418 -0.2764 -0.2736 -0.1146
11465W        W27359  12.769   2.803  15.514  0.1613 -0.2164  0.4205
11466W        W27360  15.883  10.213  15.275 -0.0184  0.1360 -0.0106
11467W        W27361  11.959  17.514  13.128 -0.1551  0.1315  0.0573
11468W        W27362   2.730  15.856  11.814  0.4525  0.1021  0.1439
11469W        W27363   8.924   1.415   4.981  0.2975  0.0928 -0.2156
11470W        W27364  11.884  16.775   4.271  0.1054  0.0495  0.2993
11471W        W27365   6.459   4.423  15.503  0.3135 -0.1602 -0.2105
11472W        W27366   7.437   7.154   3.608  0.3683 -0.4092 -0.0037
11473W        W27367   0.419   7.859  12.260 -0.2868  0.2294 -0.2598
11474W        W27368  12.300  12.146  12.715  0.1156 -0.2448 -0.3209
11475W        W27369   4.876  16.806   3.099  0.1356 -0.4249  0.0216
11476W        W27370  13.736  13.074  11.836  0.1013 -0.1056 -0.1451
11477W        W27371  15.554  18.106  16.294  0.0921 -0.1259 -0.2898
11478W        W27372  18.103  16.779   4.479 -0.4324 -0.1329 -0.3377
11479W        W27373   1.540  17.834   4.979  0.0718 -0.1739  0.2638
11480W        W27374   1.496   1.852  14.934  0.0007  0.2333  0.0227
11481W        W27375   0.421   3.409   2.661 -0.1586 -0.2698 -0.2450
11482W        W27376  14.296  17.100   0.454 -0.1691 -0.1078 -0.1139
11483W        W27377  14.156  11.921   2.549  0.2709  0.2025 -0.0133
11484W        W27378   5.548  14.724  13.759 -0.3045 -0.2894 -0.0092
11485W        W27379  11.084  10.333   0.298  0.2018 -0.1629 -0.2151
11486W        W27380   8.356   7.713   2.305  0.0429  0.2805 -0.0546
11487W        W27381  14.175   9.544  14.585  0.0999 -0.2465  0.1966
11488W        W27382   6.723  17.026  13.593 -0.4132  0.0214  0.4585
11489W        W27383  15.299  10.381  14.446 -0.1980 -0.1107 -0.2054
11490W        W27384  11.780   3.702  13.181 -0.0847 -0.1827  0.1496
11491W        W27385   0.257  14.027  13.763  0.0417  0.1092 -0.0381
11492W        W27386  11.840  13.379   1.469 -0.1680 -0.0848  0.0262
11493W        W27387   4.900  10.460   3.307  0.0474  0.0532  0.1602
11494W        W27388   2.231   4.379   1.971  0.2722 -0.0713  0.3709
11495W        W27389   1.050   4.342  12.537 -0.0192 -0.0170 -0.3139
11496W        W27390   3.117   8.138   1.640  0.1608 -0.0589 -0.0123
11497W        W27391  16.012  16.356  14.929 -0.0302 -0.3753  0.0878
11498W        W27392  14.547   5.209  15.023 -0.0724  0.3230  0.2987
11499W        W27393  10.015  15.168  15.646 -0.1902 -0.1241  0.3780
11500W        W27394  17.460   3.883  13.723 -0.1787  0.0126  0.1872
11501W        W27395   2.937   3.770   3.836 -0.1156  0.0753  0.0882
11502W        W27396   2.705  11.429  14.542  0.0104  0.0816  0.1983
11503W        W27397  15.561   2.894   4.552  0.0186 -0.0743 -0.0099
11504W        W27398  10.252   2.971   3.575 -0.1127  0.0348 -0.1432
11505W        W27399   8.295   4.536  16.381  0.0269 -0.0222  0.1440
11506W        W27400   2.406   1.270   4.832  0.0286 -0.0090  0.3324
11507W        W27401  13.182   1.670   1.583 -0.2293  0.1264  0.0176
11508W        W27402  10.762   6.095   0.221  0.0137  0.0416  0.0926
11509W        W27403  16.901   1.584  15.765 -0.0531  0.0409 -0.2754
11510W        W27404  14.319   6.452  12.173 -0.0558 -0.0364 -0.2549
11511W        W27405   2.721  12.493   3.281  0.0626  0.0252 -0.1248
11512W        W27406   8.155   5.695  14.076 -0.3784  0.1597 -0.1693
11513W        W27407   4.468  16.875   1.879 -0.1833 -0.0983 -0.1503
11514W        W27408  16.481   0.604  13.744  0.0623  0.1013 -0.1741
11515W        W27409  13.641   1.954  15.283 -0.2944 -0.1340  0.0294
11516W        W27410  10.633  10.275   0.057  0.0895  0.0789 -0.0337
11517W        W27411  16.051  15.358  15.699  0.0253 -0.2612 -0.1052
11518W        W27412   8.680  14.588   1.806  0.0064 -0.1366 -0.1045
11519W        W27413  17.146   1.928   2.107  0.0631 -0.0716  0.2582
11520W        W27414  16.040   2.181  12.536 -0.0785 -0.0450 -0.0796
11521W        W27415   7.998   5.203  12.124  0.0668  0.1152  0.1054
11522W        W27416  14.862   2.051   0.452  0.1524 -0.1492 -0.1878
11523W        W27417   6.522   7.173   0.052 -0.2189  0.0376  0.1654
11524W        W27418  10.971   2.134  14.666  0.0989 -0.1803 -0.1549
11525W        W27419  10.327   9.811   1.148 -0.0130  0.0137  0.1629
11526W        W27420  17.484   2.784   5.073 -0.0308  0.3464  0.3615
11527W        W27421  13.417  14.717  12.410 -0.2737  0.2825  0.2881
11528W        W27422   6.692   1.479  10.783  0.3844 -0.0252 -0.0453
11529W        W27423  13.090  14.938   1.807  0.0975  0.1569 -0.3698
11530W        W27424  17.887  17.134   3.367 -0.0757 -0.2610 -0.1035
11531W        W27425  14.702  13.903   0.176 -0.0429 -0.0549 -0.0032
11532W        W27426  10.753  10.730   0.588  0.2816 -0.1828  0.0029
11533W        W27427  13.162   6.207   2.782 -0.1977 -0.1368 -0.2490
11534W        W27428  11.886   4.813   4.785  0.0846  0.0658  0.0940
11535W        W27429  14.676   6.194  15.820 -0.0269 -0.2803  0.0644
11536W        W27430   9.592   1.479   1.963  0.0585  0.0435  0.1952
11537W        W27431  15.298  15.933   4.819  0.2672  0.0369  0.2665
11538W        W27432   5.346  15.239  13.147  0.1914 -0.2286  0.3778
11539W        W27433  14.175   6.200  12.926  0.0729  0.3953  0.0162
11540W        W27434   8.213  15.245   3.502  0.0812 -0.0093  0.2480
11541W        W27435   5.329  10.373   1.949  0.0102 -0.2837  0.1629
11542W        W27436   3.583  15.996   4.594  0.1420 -0.2783  0.1241
11543W        W27437   1.974   9.850   1.917  0.0447 -0.1377 -0.1947
11544W        W27438   6.946   2.571   2.818 -0.2061  0.0075 -0.0222
11545W        W27439  10.669   4.219  14.489 -0.1245  0.0155  0.0431
11546W        W27440   7.409  11.016   1.258  0.1737 -0.0722  0.2626
11547W        W27441  15.163  13.356  15.939 -0.0711  0.0136  0.0546
11548W        W27442   0.114  17.705   1.196  0.1114  0.1507  0.2391
11549W        W27443   9.396  17.604  15.978 -0.7494  0.3461  0.0310
11550W        W27444  17.785  14.388   2.367 -0.1790  0.3137 -0.0215
11551W        W27445   0.085   0.981   0.732  0.0825  0.1245  0.0303
11552W        W27446   2.685  16.092  12.255 -0.0904  0.0750 -0.1554
11553W        W27447   5.070   7.688   4.975  0.2919 -0.0429 -0.0998
11554W        W27448   1.614  12.056   0.804  0.0824 -0.1300 -0.0769
11555W        W27449   6.743   0.897   4.340  0.0431 -0.0651  0.0716
11556W        W27450  12.797  12.591  11.512  0.0065  0.0303 -0.5314
11557W        W27451   6.606   1.049   3.229 -0.2320 -0.3594 -0.0148
11558W        W27452   4.908   8.462   3.845 -0.0634  0.3177  0.0344
11559W        W27453   2.614   0.246   5.479  0.0968 -0.2110 -0.0906
11560W        W27454   8.406   1.604  12.510  0.0358  0.1063  0.0344
11561W        W27455   8.940  11.234   2.276  0.1617 -0.0729  0.1468
11562W        W27456   1.981   4.426  11.725  0.1863 -0.0130  0.1810
11563W        W27457   9.906   1.308   2.379  0.0267 -0.3261  0.5152
11564W        W27458  11.682   8.288   2.695  0.1550 -0.0985  0.5034
11565W        W27459   9.678   8.750   4.869  0.0850 -0.0856 -0.0097
11566W        W27460  15.426  16.815   4.975  0.2431  0.1012 -0.3246
11567W        W27461  11.722   8.099   2.153 -0.0333 -0.2669 -0.2031
11568W        W27462   0.263  18.088  12.947 -0.1262  0.2532  0.1124
11569W        W27463   2.781   0.029  15.102  0.1530 -0.1324  0.4201
11570W        W27464  13.928   8.367   5.470  0.1013 -0.0311 -0.1436
11571W        W27465   3.283   1.279  13.765 -0.0271 -0.1230  0.2190
11572W        W27466   1.308   8.802   0.018  0.1300  0.0801 -0.1586
11573W        W27467   0.706   8.736  13.791  0.1116 -0.0151 -0.1642
11574W        W27468   8.503   2.835   1.134  0.4028  0.0655  0.0934
11575W        W27469   3.016  14.434  13.950  0.0709 -0.0485  0.0034
11576W        W27470  17.741  11.355  13.435  0.0252  0.1078 -0.0706
11577W        W27471  12.696  16.792  15.236 -0.1097  0.0675  0.4448
11578W        W27472  11.257   9.966  16.430 -0.0230 -0.1346 -0.1926
11579W        W27473  16.655  17.970  14.933 -0.0094  0.1396 -0.0591
11580W        W27474   7.381   6.603  14.949  0.2355  0.0906  0.0357
11581W        W27475   7.905  17.872   2.857  0.0456 -0.1775 -0.0716
11582W        W27476   5.725   0.288  13.107  0.0929  0.3917  0.0120
11583W        W27477   8.144   3.729   5.154  0.1949  0.0714 -0.2915
11584W        W27478  16.134  11.608   1.285  0.0132 -0.1772  0.2248
11585W        W27479   5.976   4.400  14.979  0.2972 -0.0461  0.3365
11586W        W27480   2.940  14.477   2.662 -0.2786  0.2436 -0.5400
11587W        W27481   3.141  12.259   4.690 -0.0104  0.0147  0.3521
11588W        W27482   7.219   4.644   4.955  0.1614  0.0709 -0.0044
11589W        W27483  17.554   9.317   4.983  0.0568  0.0928  0.0080
11590W        W27484   3.016   3.837  16.156  0.0112  0.0880 -0.0613
11591W        W27485  11.921   4.001   2.938  0.3130 -0.1058  0.4392
11592W        W27486  15.840   8.223  13.209 -0.1757 -0.0183 -0.0173
11593W        W27487  13.926   0.962  12.793  0.2011  0.2509  0.0993
11594W        W27488  12.771  12.187   0.915  0.1030  0.0954  0.0142
11595W        W27489  12.792  15.157   1.437 -0.5117  0.2383  0.2142
11596W        W27490   1.081  17.795  12.066 -0.1491 -0.0687  0.0788
11597W        W27491   9.032  17.917   3.823 -0.2473  0.3093 -0.1860
11598W        W27492  16.142  10.218  14.834  0.1433  0.1453 -0.0148
11599W        W27493   9.620   3.789   0.912  0.1188  0.1259 -0.2250
11600W        W27494   3.401   3.382  13.264 -0.0000 -0.1399 -0.0439
11601W        W27495  13.677  17.188  15.302  0.1138  0.1648 -0.1400
11602W        W27496   5.445  10.503  15.408 -0.2123  0.0589 -0.1648
11603W        W27497   9.600   8.857   2.965 -0.0941  0.2235 -0.0495
11604W        W27498   4.882   4.225  15.138 -0.3294 -0.0491  0.1387
11605W        W27499   3.450   2.791  15.487  0.1255  0.1078 -0.0903
11606W        W27500   4.113  17.190   2.589  0.1115  0.2123 -0.0550
11607W        W27501   6.870   0.327  12.609  0.1878 -0.2166 -0.1422
11608W        W27502   0.628  15.639  12.884  0.2862  0.0147 -0.0792
11609W        W27503   1.720  11.964   4.924  0.0429  0.1679  0.3815
11610W        W27504   7.460  13.281   1.556  0.1671  0.1609 -0.0215
11611W        W27505  17.815  15.765  16.301 -0.0307  0.0299 -0.2016
11612W        W27506  13.099  14.941  15.346 -0.0496  0.1770  0.0228
11613W        W27507  16.583   7.638   0.361  0.0585 -0.0161 -0.0392
11614W        W27508  14.455  14.894   4.258  0.0620  0.1457 -0.0916
11615W        W27509   0.991   8.390  12.692 -0.1016 -0.3982 -0.1914
11616W        W27510   6.152   2.678  16.249 -0.0224 -0.3041  0.0457
11617W        W27511  11.282   2.036   2.344  0.1193 -0.2053  0.3080
11618W        W27512  15.460  17.315  12.255  0.0453  0.4840 -0.2232
11619W        W27513  11.398  14.247   1.652  0.1782 -0.3279 -0.1012
11620W        W27514   9.559   1.322  12.240  0.0367  0.0274  0.0252
11621W        W27515  14.933   6.775   4.086 -0.4605  0.0681  0.0206
11622W        W27516   5.721   2.954  10.780 -0.4959  0.1506 -0.2187
11623W        W27517  13.446   9.010   2.277 -0.1480 -0.2860 -0.0216
11624W        W27518  10.294  13.536  13.310 -0.2666 -0.1519 -0.4116
11625W        W27519  12.476   6.026  16.441 -0.1586  0.0385  0.0985
11626W        W27520  10.445   2.608   1.188 -0.0235 -0.1936  0.0457
11627W        W27521   2.657   8.542   4.706 -0.0807  0.2398  0.4055
11628W        W27522  17.545  14.193   3.051 -0.0191 -0.4098  0.0374
11629W        W27523   9.798  16.008  11.977  0.0058  0.1316 -0.2522
11630W        W27524   2.322  17.625   1.191 -0.1666 -0.1006 -0.0717
11631W        W27525  14.341   9.070  13.091  0.2329  0.0405  0.2507
11632W        W27526   6.277   4.018  11.293  0.1018  0.1153 -0.0747
11633W        W27527  17.123   9.120   2.154 -0.2036 -0.0075  0.0176
11634W        W27528  15.584  16.321   4.744  0.0051 -0.2121 -0.2366
11635W        W27529  13.528   5.106   1.178  0.2004 -0.0170  0.2629
11636W        W27530   4.516  16.448   4.768  0.0005  0.1739  0.1565
11637W        W27531   1.973  13.855  16.097 -0.2077  0.4135 -0.0965
11638W        W27532   2.681   3.422  11.897  0.0660 -0.0883 -0.4487
11639W        W27533  10.592   5.873  13.455 -0.2580  0.2151 -0.3614
11640W        W27534   3.046  10.258   3.482  0.1579  0.0022 -0.0387
11641W        W27535   8.824   8.090  15.237  0.1454 -0.0667  0.0143
11642W        W27536   7.653   1.903   2.281 -0.2371 -0.1462  0.0638
11643W        W27537   4.643  17.417   4.400  0.0661  0.2569 -0.1443
11644W        W27538   5.097  16.934  13.816 -0.1502 -0.3176 -0.2314
11645W        W27539   8.052  14.196  11.753 -0.3855 -0.1923  0.1872
11646W        W27540   8.938   9.977   3.183  0.0314  0.0840  0.1401
11647W        W27541   2.420   7.250   3.694  0.2587  0.2827  0.1932
11648W        W27542   5.317  17.753  16.097 -0.1031  0.2275  0.1413
11649W        W27543   3.122   5.231  12.836  0.2839  0.0899  0.1198
11650W        W27544   5.924   0.865   3.829 -0.0120  0.1724  0.1072
11651W        W27545   8.472  15.806   3.242 -0.1008 -0.0482 -0.0854
11652W        W27546   5.976   4.847  12.436 -0.0917  0.0443  0.0574
11653W        W27547   5.285   1.347  15.736  0.0940 -0.2168 -0.1086
11654W        W27548  14.998  13.175  14.190  0.1022 -0.2667 -0.0677
11655W        W27549   2.513  15.596   5.556  0.1546 -0.1471 -0.1999
11656W        W27550  18.088   3.900   4.872  0.1126  0.0784 -0.2784
11657W        W27551  14.103  12.848   6.439 -0.0503  0.0757 -0.0204
11658W        W27552   1.784   9.017  12.484  0.2064 -0.0383 -0.2571
11659W        W27553   5.218   2.963   4.006  0.1123  0.0738 -0.0482
11660W        W27554   9.242   0.060  12.962  0.2675  0.0922  0.1567
11661W        W27555   3.446  16.053   0.090 -0.2921  0.2428  0.1126
11662W        W27556   0.180  13.613   5.038  0.3038  0.1932 -0.3071
11663W        W27557   2.027  13.536  14.603  0.2732  0.2729  0.1771
11664W        W27558  12.599   9.011  12.729  0.0184  0.0295  0.0204
11665W        W27559   9.139  13.764  15.205 -0.0352  0.3653  0.0434
11666W        W27560  17.056  15.419   2.773  0.0268  0.1220 -0.1457
11667W        W27561   5.886   7.216  12.623 -0.1286  0.2784  0.1053
11668W        W27562   1.446   5.699   0.172 -0.0796 -0.0602  0.0247
11669W        W27563  13.361   4.684   0.789  0.0078 -0.0913  0.0301
11670W        W27564  10.386   1.108  12.204 -0.4125  0.0425 -0.3244
11671W        W27565  16.942  18.010  11.508 -0.0139 -0.0749 -0.1905
11672W        W27566  11.550  17.310  12.953 -0.3586 -0.2460 -0.0804
11673W        W27567  14.090   1.219   3.071  0.0402 -0.1225  0.0797
11674W        W27568   6.338   0.282  15.120  0.0887  0.2198  0.0053
11675W        W27569   4.785   6.699  11.719 -0.0850 -0.2783 -0.1527
11676W        W27570  13.606   4.941  12.902 -0.1245  0.1082 -0.0130
11677W        W27571   1.065   4.660  12.939  0.3191  0.0708 -0.1762
11678W        W27572   1.311   3.733  12.064  0.0291  0.1899  0.0110
11679W        W27573  10.194   7.091  16.075 -0.0024 -0.2023 -0.3861
11680W        W27574   8.886  15.558   1.795  0.0097 -0.0314  0.2934
11681W        W27575  15.861   0.830  15.423  0.0657 -0.1701 -0.0131
11682W        W27576  13.934   6.635  12.986  0.1872 -0.0314 -0.0875
11683W        W27577   8.931  13.063  14.296 -0.2216 -0.1556  0.2074
11684W        W27578  14.075  13.059   5.188  0.0924  0.1621 -0.0421
11685W        W27579  13.508   0.357   1.706 -0.0770  0.1480  0.2427
11686W        W27580  14.169  15.587  11.475  0.0208  0.1699 -0.0962
11687W        W27581  13.286   2.111   1.618  0.0850 -0.3949  0.2672
11688W        W27582  10.087   7.649   2.601  0.2918 -0.1125  0.2165
11689W        W27583  10.342   5.030   2.037 -0.0215 -0.1705  0.2311
11690W        W27584  16.513   8.848  13.100 -0.0237 -0.0941  0.1230
11691W        W27585  14.666   1.316  11.864  0.0056 -0.3015 -0.1320
11692W        W27586   8.835  17.160  14.684 -0.0202 -0.0513 -0.1051
11693W        W27587   9.259   3.166   1.502  0.2142  0.0936 -0.0405
11694W        W27588  18.216  15.098  13.932 -0.1029  0.2042  0.0904
11695W        W27589   5.199   1.765   0.688 -0.0132  0.3753 -0.0149
11696W        W27590   6.165  17.944  11.866  0.2038  0.1437  0.1047
11697W        W27591  16.307   4.789  12.784  0.0665  0.3309  0.0071
11698W        W27592  16.821   0.283  16.247 -0.1513 -0.2251 -0.0011
11699W        W27593   4.270   6.802   0.867 -0.0873 -0.2123  0.2458
11700W        W27594  11.409   5.005  12.662 -0.1486 -0.1564  0.2017
11701W        W27595  13.240  16.249   1.492  0.1729  0.0927  0.1270
11702W        W27596  17.536   0.774  16.375  0.1774  0.0430  0.1936
11703W        W27597   1.830   3.584   1.009 -0.1785 -0.3191 -0.2121
11704W        W27598  17.879   5.438  15.381  0.0823  0.0767  0.1154
11705W        W27599  16.507   1.273  14.855 -0.1725 -0.0781  0.2885
11706W        W27600  16.557  18.010   5.574 -0.1703  0.1022 -0.1523
11707W        W27601   5.435   5.230   1.723 -0.1812  0.2240  0.1503
11708W        W27602  10.531   8.282   0.221  0.3306 -0.0554  0.1908
11709W        W27603  16.172  12.870   5.110 -0.0840  0.2120  0.1709
11710W        W27604   5.427   2.041  13.417  0.0331 -0.2979  0.0395
11711W        W27605  11.010  14.291  10.598  0.2303 -0.1981 -0.1480
11712W        W27606   8.492  14.597   2.345  0.1536  0.1228 -0.1095
11713W        W27607  12.592  17.228   1.919  0.0032  0.1475  0.5259
11714W        W27608   1.631   9.022   5.829 -0.1969 -0.0047  0.1926
11715W        W27609   6.720  12.215   0.099 -0.3037  0.3806 -0.0630
11716W        W27610  13.841   6.495   3.614 -0.2874  0.0505  0.0653
11717W        W27611  14.603  16.041   2.118 -0.2756  0.5507 -0.0765
11718W        W27612   2.393   1.587  12.648  0.0703 -0.0608 -0.0913
11719W        W27613   9.127   7.781   0.163  0.1052  0.1273  0.0733
11720W        W27614  14.780  14.837   4.633 -0.0799 -0.1528 -0.1577
11721W        W27615   4.093  14.579   0.383 -0.1203 -0.0548  0.0037
11722W        W27616  13.179  15.227   1.180 -0.1295  0.0671  0.1468
11723W        W27617   9.311  13.403  13.042 -0.4911  0.3221 -0.0714
11724W        W27618  17.703   7.763  12.126 -0.0270  0.1387  0.0200
11725W        W27619  16.351   6.847   4.344  0.0593 -0.0212  0.1025
11726W        W27620   9.937   5.072   3.256 -0.1201 -0.0168 -0.0285
11727W        W27621   7.314  12.292   1.720  0.0911  0.1783  0.0294
11728W        W27622  17.483   2.427  14.676  0.0581 -0.1959 -0.0248
11729W        W27623  17.415  11.608  13.717  0.0186 -0.2427  0.0300
11730W        W27624   9.619  13.614  15.322 -0.2148  0.1984 -0.0756
11731W        W27625   4.567  13.535   0.049 -0.0215 -0.0106  0.2045
11732W        W27626   0.718  10.616   5.172  0.2146  0.0001 -0.2879
11733W        W27627   4.091   8.525   0.377 -0.0906 -0.1819 -0.1038
11734W        W27628   2.560   2.385   2.347 -0.0606 -0.0716  0.2271
11735W        W27629  12.367   6.617   1.184  0.3221 -0.1062  0.1090
11736W        W27630  12.610   2.446   0.550  0.0456 -0.2649  0.1880
11737W        W27631  13.192  15.491   4.093 -0.0021 -0.2224 -0.2213
11738W        W27632  12.643   8.023   2.869 -0.1263 -0.0579  0.0060
11739W        W27633   0.058   3.170  13.195  0.1919  0.2478  0.2317
11740W        W27634  11.529   4.641  11.392 -0.3469 -0.1169  0.3960
11741W        W27635   5.422  15.310  11.723 -0.2384 -0.1712 -0.0251
11742W        W27636  11.006  15.409   2.535  0.3766 -0.1970 -0.0410
11743W        W27637   2.479  10.325  13.981 -0.0677 -0.1388  0.2739
11744W        W27638   3.028  12.115  15.362 -0.3272 -0.1999 -0.1103
11745W        W27639  11.198  13.928   5.751 -0.1063  0.0352 -0.0167
11746W        W27640   3.764  10.661   5.097  0.2260 -0.2100  0.0709
11747W        W27641  14.569   8.577   6.356 -0.1212  0.2618 -0.1070
11748W        W27642   5.902   2.155  13.497  0.0266  0.1467 -0.2008
11749W        W27643  15.502   8.293   2.261 -0.1127  0.2383  0.0195
11750W        W27644   6.527   6.670   5.415 -0.0943 -0.1239  0.0463
11751W        W27645   0.349   9.321   1.967  0.1169 -0.1447  0.1830
11752W        W27646   3.296   4.663  14.094 -0.3534  0.2789  0.0425
11753W        W27647   9.678   3.376  13.490  0.0900  0.3237  0.2711
11754W        W27648  16.758   8.801  14.219  0.1149  0.1254 -0.0413
11755W        W27649   7.348   5.077  12.105  0.0187 -0.2084 -0.1058
11756W        W27650  12.639   9.299   3.979  0.0937  0.0613  0.1272
11757W        W27651  15.622  12.562  12.259 -0.0210 -0.1313 -0.0154
11758W        W27652   8.780  13.386   3.284  0.2041 -0.2495  0.2484
11759W        W27653   8.929  14.827  12.431  0.1180 -0.2952 -0.2838
11760W        W27654  16.421  10.027  14.491 -0.0398  0.3848  0.4504
11761W        W27655   8.176   9.517   1.020 -0.0756 -0.0927 -0.0312
11762W        W27656  15.609  13.693  15.226 -0.0340 -0.1239 -0.2280
11763W        W27657  12.495  10.721  11.803  0.2919 -0.4216 -0.0188
11764W        W27658  15.152  16.128   5.706 -0.0576  0.1343 -0.0703
11765W        W27659   3.573  12.825  13.775  0.2504 -0.0045 -0.4146
11766W        W27660   6.526   3.760   5.174  0.3652 -0.4218  0.4044
11767W        W27661  11.865   7.340  11.834  0.0088  0.0163 -0.0934
11768W        W27662  10.466   6.618   3.327  0.3044  0.1455  0.0856
11769W        W27663  15.920   7.324   4.627 -0.0442 -0.0123  0.0856
11770W        W27664  14.230   9.642   0.072 -0.2335  0.1758  0.1688
11771W        W27665   0.652   3.762  14.141 -0.0926 -0.0232 -0.2613
11772W        W27666   6.293  14.267   0.333  0.0109 -0.2134 -0.1070
11773W        W27667   0.251   4.809  11.723  0.0045 -0.0250  0.1127
11774W        W27668   1.063   8.679   5.772  0.0427 -0.1161  0.1984
11775W        W27669  11.341  15.162  12.730  0.5502  0.1056  0.0878
11776W        W27670  16.080   0.289   6.399  0.1596 -0.1988  0.3806
11777W        W27671   5.317   5.893   4.262 -0.0580  0.0482  0.2984
11778W        W27672   2.673  10.195   1.157  0.4534  0.0792  0.0512
11779W        W27673  13.840  14.553  11.677  0.1268 -0.3708 -0.1243
11780W        W27674   5.788  18.201   3.382 -0.2196 -0.2341 -0.1279
11781W        W27675   9.611   7.596  13.005 -0.2169 -0.0662 -0.1528
11782W        W27676   6.940   2.289  12.572  0.0729 -0.3229 -0.3457
11783W        W27677   8.144   7.637  12.392 -0.2052  0.3024  0.0073
11784W        W27678   6.176   9.033   3.613  0.0650 -0.1069 -0.0454
11785W        W27679  17.042   3.382   1.120 -0.1797 -0.0947 -0.0889
11786W        W27680   0.450   3.483  12.449 -0.0526 -0.0947  0.0438
11787W        W27681  12.019  12.014   1.497 -0.3450 -0.0913 -0.0224
11788W        W27682  14.684   7.026  16.309  0.0094  0.0506 -0.2274
11789W        W27683  14.458  10.305  14.425 -0.3634  0.0721  0.4866
11790W        W27684  17.714  16.205   3.786 -0.0027 -0.0776 -0.2689
11791W        W27685   7.227   9.021  12.970  0.0524 -0.2177 -0.0700
11792W        W27686   0.090   3.584   3.685 -0.0847  0.0577 -0.1460
11793W        W27687   3.432  18.062  15.940  0.0294 -0.0722 -0.1954
11794W        W27688  15.905   7.058   4.174  0.4414 -0.0930  0.1102
11795W        W27689   5.562   7.812  11.177 -0.2196  0.0507  0.1301
11796W        W27690   8.783  17.075   3.641 -0.0931  0.0998  0.1669
11797W        W27691  13.731  15.870   5.652  0.0386 -0.4188  0.0248
11798W        W27692   6.782   3.806  12.004  0.0092  0.2064 -0.2936
11799W        W27693   0.463   8.824   3.205  0.3503 -0.4390 -0.0987
11800W        W27694  15.907  16.564   0.661  0.1538  0.0846 -0.0047
11801W        W27695   0.941   0.119   6.020  0.0128  0.0357 -0.1342
11802W        W27696  16.640  15.667  14.217 -0.0438  0.1188 -0.1368
11803W        W27697  14.678  12.342   1.164 -0.0117 -0.3323 -0.0903
11804W        W27698  15.306  12.177  12.252  0.0016  0.0488  0.0899
11805W        W27699  13.707   6.369  15.241  0.1412  0.1094  0.0271
11806W        W27700   3.513   7.144   1.004 -0.1258 -0.0491 -0.0382
11807W        W27701   2.559   1.916   0.711  0.1982 -0.2045 -0.1173
11808W        W27702  12.246   4.257  13.522  0.0929 -0.0450  0.0125
11809W        W27703  14.431   3.608   2.698  0.1005  0.1153  0.0178
11810W        W27704   9.531   5.587   6.002 -0.1363 -0.1369 -0.1478
11811W        W27705   9.800   2.083  11.557 -0.0666 -0.0639  0.4050
11812W        W27706  14.244  17.658  15.831 -0.0449 -0.1066  0.1093
11813W        W27707  17.998  12.588   3.485 -0.0186 -0.1613  0.2118
11814W        W27708  11.702  15.747   4.861 -0.1881  0.2088  0.0940
11815W        W27709   9.798  11.177   1.968  0.0911  0.0881 -0.3189
11816W        W27710  10.525  11.937   3.352 -0.1688  0.0602 -0.0782
11817W        W27711   2.888  12.739   3.868 -0.0165  0.0688  0.1032
11818W        W27712  17.334   0.170   0.541  0.1234 -0.1731 -0.0372
11819W        W27713   9.673   6.297   5.457  0.4013  0.0026  0.1648
11820W        W27714   4.767   6.118   5.798 -0.3892 -0.1876 -0.1957
11821W        W27715  18.195   8.620  16.341 -0.2085 -0.1595 -0.1567
11822W        W27716  16.543  17.400   4.233 -0.1239 -0.0967  0.4077
11823W        W27717  12.055  14.537  16.450 -0.0198  0.0380  0.0022
11824W        W27718   7.614   7.413  15.017  0.0890  0.3306  0.1183
11825W        W27719   0.539   9.027  12.867  0.0392 -0.2541  0.1260
11826W        W27720   2.261  13.858   0.095  0.0203  0.0626  0.1161
11827W        W27721   7.220   0.788  13.902  0.3151  0.0686 -0.0612
11828W        W27722  14.999  17.000  16.063  0.0739 -0.2204  0.0166
11829W        W27723   5.213   0.251   6.022 -0.1266  0.0727 -0.2728
11830W        W27724  13.148   6.098   4.995  0.2059  0.0427 -0.0296
11831W        W27725   9.419   8.800  15.622 -0.2603 -0.1540 -0.1067
11832W        W27726  14.158   1.183   2.077  0.3366 -0.2933  0.0206
11833W        W27727   4.183   0.465  14.922 -0.0242 -0.1228  0.3941
11834W        W27728  11.157   8.915  15.863  0.1915 -0.5253  0.0740
11835W        W27729   6.389   5.095   1.549 -0.1530  0.2397  0.0428
11836W        W27730   0.588   6.716   1.420 -0.3330  0.3087  0.0332
11837W        W27731  14.359  11.125  11.820  0.2325  0.1247  0.0819
11838W        W27732  11.101   1.132  14.851 -0.0048 -0.2750  0.1825
11839W        W27733   0.144  14.493  16.218 -0.0315 -0.0869  0.4496
11840W        W27734  16.300   9.308   3.321 -0.0303  0.1254  0.0288
11841W        W27735  10.370   1.639   2.221 -0.0204  0.3391 -0.0811
11842W        W27736  17.530  12.310   0.477  0.1189  0.1688  0.2255
11843W        W27737   1.351  16.139  14.441 -0.1458 -0.1206  0.2590
11844W        W27738   4.761  17.307   3.050 -0.2887  0.2879  0.1178
11845W        W27739   2.620   1.932   2.537 -0.1794 -0.0392 -0.2145
11846W        W27740  11.774   4.771   4.249 -0.1554 -0.1888  0.1514
11847W        W27741   0.746   2.849   5.517 -0.2418 -0.3233  0.3891
11848W        W27742   9.576  14.351  14.416  0.2547 -0.4054 -0.0277
11849W        W27743   6.451   1.548  12.893 -0.0940 -0.0663  0.0251
11850W        W27744  13.088   4.073   1.940 -0.2350  0.0859 -0.0093
11851W        W27745   6.048  14.105  15.358 -0.0297  0.0715  0.0436
11852W        W27746   6.477  13.457  11.387  0.2584  0.1387  0.0873
11853W        W27747   8.957  17.399   4.828 -0.3669  0.2736  0.0150
11854W        W27748  16.731   6.304   5.686 -0.1838 -0.1600  0.2636
11855W        W27749   3.432   9.874  12.070 -0.0382  0.2028 -0.0748
11856W        W27750   6.091   6.460  11.420 -0.0591 -0.1695 -0.3739
11857W        W27751  10.699   3.226  16.226  0.1826 -0.2731  0.3661
11858W        W27752   9.456  12.860   2.782  0.0283  0.1267  0.0364
11859W        W27753  12.801   9.567  15.702 -0.0054 -0.0176  0.5530
11860W        W27754  12.721   5.608  10.533 -0.0564  0.0186  0.2543
11861W        W27755   9.781   1.372  16.419  0.1139 -0.0448 -0.0047
11862W        W27756   1.442  15.678  14.492  0.0405  0.0025  0.0991
11863W        W27757  16.015  12.683  13.870  0.0372 -0.1076 -0.1381
11864W        W27758  15.161   9.095   4.017 -0.0551 -0.3394 -0.0680
11865W        W27759  11.482  12.971  10.963 -0.0883  0.0968 -0.1456
11866W        W27760   7.612   8.177  11.245 -0.1069 -0.0644 -0.2536
11867W        W27761   2.338   7.069  13.135  0.1422  0.1036  0.1103
11868W        W27762   1.994  14.857  16.229 -0.1619  0.0215  0.5123
11869W        W27763   3.122  13.142   0.139  0.0732 -0.0828  0.1210
11870W        W27764  16.502  16.512  16.276  0.0274 -0.4576  0.2865
11871W        W27765  13.813   5.218   2.492  0.1473  0.0956 -0.2527
11872W        W27766  10.907   5.119  15.420 -0.4780 -0.0524  0.3043
11873W        W27767  16.903   2.071  14.141  0.1120  0.0225 -0.3668
11874W        W27768  11.995   5.999  15.940 -0.2346  0.1242  0.0155
11875W        W27769   7.799  10.877   5.001  0.4483  0.1680  0.0614
11876W        W27770   7.251  15.077  14.740 -0.4879  0.0615  0.0840
11877W        W27771   5.028   8.623   4.308  0.1783  0.0067 -0.3668
11878W        W27772   1.845   1.591  14.005 -0.3654 -0.1942  0.3677
11879W        W27773  12.945   9.284   1.955  0.0546 -0.1297 -0.1752
11880W        W27774   2.977   1.959  14.599  0.2025  0.0985 -0.2007
11881W        W27775  15.435  15.088  13.510 -0.0536  0.3003  0.2368
11882W        W27776   5.924  15.439  15.871 -0.0555  0.0637  0.2272
11883W        W27777   1.216  12.278   0.390  0.4299 -0.3264 -0.1855
11884W        W27778   6.702   0.872  11.651 -0.4304 -0.2280  0.3279
11885W        W27779  13.488   1.223   1.561 -0.1148 -0.0446 -0.1283
11886W        W27780   4.132   8.925  15.010 -0.1591 -0.1473  0.0955
11887W        W27781  16.957  17.745  13.054 -0.0969 -0.1036  0.1504
11888W        W27782   0.218  12.308   3.789 -0.4307 -0.2505 -0.1325
11889W        W27783  13.653   6.784   3.315 -0.2411 -0.0850  0.1384
11890W        W27784  12.906   4.458   4.925 -0.0337 -0.0997 -0.0220
11891W        W27785   7.329   9.368  12.282 -0.1255 -0.0031 -0.0949
11892W        W27786  15.844  13.370   3.229  0.0985  0.1314  0.4478
11893W        W27787  14.386  15.821   4.740 -0.1472 -0.2015 -0.0291
11894W        W27788  18.016   0.164  12.099 -0.0553 -0.1042 -0.0169
11895W        W27789   9.982  13.477   0.454  0.0135  0.0136  0.1291
11896W        W27790  11.974   6.913  11.067 -0.1013 -0.1903  0.0737
11897W        W27791  12.936   8.935   0.781 -0.0777 -0.0832 -0.2824
11898W        W27792   7.459  14.319   0.866 -0.0645  0.1915  0.0864
11899W        W27793   4.701  16.970   0.395 -0.0946 -0.3098 -0.0027
11900W        W27794  11.903   0.253  15.590  0.2044  0.1149  0.2284
11901W        W27795  13.404  10.804   0.233 -0.1054 -0.1616  0.2085
11902W        W27796   0.517   5.479  14.163  0.4585 -0.1290 -0.2752
11903W        W27797  15.856  11.348  14.371  0.1273 -0.1821 -0.1712
11904W        W27798  12.757   6.364   2.898  0.4386  0.1995 -0.2744
11905W        W27799  16.586   8.257   1.145 -0.1393 -0.0523 -0.3742
11906W        W27800  16.383   1.871  13.432 -0.2157 -0.1783 -0.1555
11907W        W27801   5.640   0.943   5.426  0.0942  0.3164  0.1192
11908W        W27802   5.801   1.896  16.146 -0.2733 -0.4452  0.2075
11909W        W27803  17.293   5.326  11.846  0.2813  0.3607  0.0845
11910W        W27804   3.502   4.495   0.154 -0.0142  0.0782  0.2709
11911W        W27805  13.083   3.589  14.651 -0.2274  0.2391  0.0085
11912W        W27806  14.732  13.472  11.792  0.0232  0.1167 -0.1133
11913W        W27807  13.249   8.570  13.514  0.2025 -0.1213  0.1878
11914W        W27808   7.228   5.425  15.200 -0.1070  0.0907  0.1774
11915W        W27809  10.985  15.622   1.101  0.3207  0.0810 -0.2136
11916W        W27810   8.482  14.841  14.890 -0.0918  0.1049 -0.0943
11917W        W27811  11.783   1.032   1.462 -0.0027 -0.4534  0.2194
11918W        W27812   7.007   4.156   3.994 -0.2431 -0.3562 -0.0249
11919W        W27813   4.983   8.990   2.505 -0.0634 -0.1341  0.1677
11920W        W27814   1.887  17.832   2.126 -0.1323 -0.4135  0.1709
11921W        W27815   4.519   1.388  15.091 -0.3750 -0.1555 -0.2579
11922W        W27816  10.142   8.129  15.287  0.0006 -0.2995  0.1891
11923W        W27817   9.252   2.730   3.597  0.1110  0.0315 -0.0227
11924W        W27818  12.368   1.572   2.268  0.0970  0.0624  0.3163
11925W        W27819   7.362   9.269  14.843  0.1890 -0.2594  0.3144
11926W        W27820   9.956   2.223   3.620 -0.4180  0.1474  0.3886
11927W        W27821   4.866   8.244  13.476  0.1302  0.0165  0.0573
11928W        W27822  12.497   5.210   2.014 -0.0082  0.0178 -0.0732
11929W        W27823   8.272  16.079  13.099  0.0868 -0.3909  0.1847
11930W        W27824   4.834  11.187  10.756 -0.1947  0.1849 -0.4169
11931W        W27825   7.187  16.341  13.859  0.0122  0.2871 -0.0211
11932W        W27826  10.684  15.101  11.225  0.4050  0.1893 -0.0868
11933W        W27827  17.330   1.544  12.969  0.2978  0.2017 -0.3152
11934W        W27828  15.612  13.707   0.991 -0.4047 -0.1679 -0.0156
11935W        W27829  17.068  12.636  13.949 -0.1439  0.1846 -0.0509
11936W        W27830   2.893   3.113   5.048 -0.0253 -0.1022 -0.0963
11937W        W27831   6.665   7.058  12.634  0.0171  0.1527 -0.1742
11938W        W27832   2.213   0.525  14.006 -0.2224  0.0632  0.0988
11939W        W27833  16.414  15.619   1.546  0.1832 -0.0284  0.1621
11940W        W27834   3.883  10.254  13.034 -0.3209 -0.4742  0.2777
11941W        W27835   9.509  15.886   3.313 -0.0659  0.0719  0.0368
11942W        W27836  16.507   2.806   3.823  0.0701  0.1777  0.0328
11943W        W27837   1.803   5.847   3.818 -0.0102  0.0803  0.0655
11944W        W27838  13.969  12.319   6.513  0.1452 -0.0652  0.1808
11945W        W27839  18.161   7.153  12.026 -0.0278  0.0046  0.0026
11946W        W27840  15.923   2.707  13.144  0.2248  0.0361 -0.0616
11947W        W27841  16.022   8.772   4.729 -0.2631 -0.1214  0.0610
11948W        W27842  11.369   7.762   2.247 -0.0029 -0.0922  0.1313
11949W        W27843  15.644   8.722  11.531 -0.2045 -0.1723  0.0481
11950W        W27844   6.427   4.351   3.437  0.4689  0.1139 -0.0202
11951W        W27845  11.032  15.846   4.142 -0.2713 -0.1277 -0.0255
11952W        W27846  13.005   0.958   0.427 -0.1048  0.2708 -0.0243
11953W        W27847   5.911  17.123  12.459 -0.1288 -0.0371 -0.2177
11954W        W27848   4.242  10.103   1.819 -0.1752 -0.1941 -0.2266
11955W        W27849   3.148   3.514  11.751  0.1505 -0.2404 -0.0637
11956W        W27850   0.674   1.246  13.223  0.0246  0.1442 -0.1573
11957W        W27851  16.982   1.570   4.603 -0.0032 -0.1578  0.1222
11958W        W27852  11.161  11.787  15.667  0.1213 -0.0557 -0.0346
11959W        W27853  17.771   3.102  13.397 -0.1182 -0.0651  0.2863
11960W        W27854   4.037  16.616   5.183 -0.0486 -0.1811 -0.1953
11961W        W27855  16.539   9.345  13.488  0.1161 -0.0877 -0.1052
11962W        W27856   5.063   3.447   3.098  0.1932 -0.2004 -0.1784
11963W        W27857  17.796   4.327  11.571  0.1492 -0.2311 -0.0657
11964W        W27858  10.888   1.932  13.462 -0.2940 -0.1175 -0.0171
11965W        W27859  13.797  15.061  14.696  0.3101  0.1943  0.1303
11966W        W27860  14.208   2.205   4.674  0.0248 -0.0885 -0.0651
11967W        W27861  16.326   9.123  12.717  0.1989 -0.1203 -0.1277
11968W        W27862  17.023  14.871  12.154 -0.0551 -0.1155 -0.2453
11969W        W27863  15.865  15.774  15.989  0.1035 -0.2954  0.2128
11970W        W27864   7.949  11.930  15.606 -0.0084 -0.1554 -0.0694
11971W        W27865  18.145  14.086  16.459  0.2661  0.1570  0.1355
11972W        W27866  11.583   2.288  11.327  0.1816 -0.0769  0.1985
11973W        W27867   3.451  17.221  16.155 -0.1162  0.0551 -0.1468
11974W        W27868   7.739   2.121  12.714 -0.0159 -0.1333 -0.0460
11975W        W27869   0.044   8.401  13.080  0.2137  0.0636 -0.0462
11976W        W27870  18.226   1.789   1.802 -0.0647 -0.2174  0.0217
11977W        W27871  16.825  11.469   4.293 -0.2526  0.1332  0.2663
11978W        W27872  16.134  17.208  15.702  0.1293 -0.0870 -0.0201
11979W        W27873   2.737   7.556   2.437 -0.4367 -0.1644  0.4865
11980W        W27874   4.475  12.198   5.433  0.1966 -0.1872  0.0065
11981W        W27875   0.739  13.546   6.336  0.0009  0.2931  0.1195
11982W        W27876   8.149   8.599   3.995  0.2122  0.0601 -0.1570
11983W        W27877  14.950  13.867  15.809  0.0331 -0.0081 -0.1527
11984W        W27878  10.502   3.631   1.611  0.2851  0.0767  0.2144
11985W        W27879   7.614   8.640  11.779  0.2378 -0.0330 -0.2396
11986W        W27880   7.995   8.726  13.567 -0.0502  0.0512  0.2970
11987W        W27881  10.337   6.916  10.854  0.0434 -0.1274 -0.0389
11988W        W27882   6.851   7.925   1.558 -0.0745 -0.3632 -0.0471
11989W        W27883   1.306   4.252  15.950 -0.0788  0.1120 -0.1914
11990W        W27884   0.314  12.613  14.882 -0.0567 -0.2271  0.1903
11991W        W27885  11.110  15.720  16.071  0.1806  0.0998  0.2632
11992W        W27886  12.618   6.220   0.792  0.3185  0.0814  0.1408
11993W        W27887   9.681   6.209   3.853 -0.3602  0.2750 -0.1410
11994W        W27888  16.702  15.855   3.515  0.1191 -0.0832 -0.1563
11995W        W27889  14.408   0.607   1.281 -0.0950  0.0414 -0.1993
11996W        W27890   3.022   3.419   1.612  0.2302  0.1069  0.0318
11997W        W27891   9.365   7.089  15.114  0.0168 -0.1927 -0.4153
11998W        W27892  18.104  11.918  13.095 -0.2717 -0.0157 -0.0471
11999W        W27893   7.877  15.567   3.277  0.2884  0.0576  0.0712
12000W        W27894   3.871   3.261   2.644 -0.0369  0.2432  0.0771
12001W        W27895   0.469   6.178  12.974 -0.2624  0.0959  0.0604
12002W        W27896  16.069   1.654   5.693  0.1940  0.2150 -0.2603
12003W        W27897  13.065   4.969   2.381 -0.1524  0.0919  0.1780
12004W        W27898   9.563   3.071  14.678  0.1051  0.1427 -0.1788
12005W        W27899   6.901  14.478  14.235  0.1413 -0.2869  0.1307
12006W        W27900  10.152   0.006   1.396  0.2707 -0.0541 -0.3162
12007W        W27901   4.370   1.279  11.602 -0.2177  0.1258  0.2754
12008W        W27902   2.911  15.275   1.930  0.1454  0.0120 -0.0380
12009W        W27903  16.821  10.664  15.723 -0.0949 -0.1955 -0.0223
12010W        W27904   4.109   6.593  10.908 -0.0264  0.3299  0.0093
12011W        W27905   3.674   6.051  14.389  0.2769 -0.1881  0.0063
12012W        W27906   3.219  12.601   0.415  0.1164  0.6145  0.1984
12013W        W27907   9.553   5.702   3.684  0.0219 -0.0526  0.0147
12014W        W27908   7.485  12.588  16.280  0.1897 -0.2573 -0.0313
12015W        W27909   5.482  12.979   5.424 -0.0089 -0.1065 -0.0270
12016W        W27910   0.678   5.701  13.551  0.0284 -0.1545 -0.1692
12017W        W27911  13.442   6.990  15.665  0.0130 -0.2396 -0.5030
12018W        W27912   0.952  12.381  15.945  0.0809 -0.1718  0.0902
12019W        W27913   1.443  15.766  12.634  0.1013 -0.2176  0.4169
12020W        W27914  10.277  14.429  14.612  0.0984  0.2171  0.0666
12021W        W27915   3.573  16.751  16.118 -0.0119  0.0794 -0.2232
12022W        W27916   3.299   7.492   6.114 -0.1079 -0.0137 -0.2447
12023W        W27917  10.993   4.896   1.008  0.2126  0.0071 -0.0171
12024W        W27918   3.428  14.024  12.315 -0.2321 -0.0209  0.1298
12025W        W27919   5.865  16.119  16.386 -0.2866 -0.4052  0.0547
12026W        W27920   4.158  15.564  11.765 -0.1418  0.1473 -0.3382
12027W        W27921  12.649   7.836   0.655  0.1161 -0.0322  0.1367
12028W        W27922   9.758  12.078  14.169  0.3175  0.3346 -0.0826
12029W        W27923   6.476  15.412   2.907 -0.1173  0.3946  0.0058
12030W        W27924  11.002  17.064  14.181 -0.0529  0.1667 -0.1494
12031W        W27925  12.112  12.720   0.189 -0.2181  0.2429 -0.3255
12032W        W27926  16.624  11.160  16.139 -0.0140 -0.1178 -0.0410
12033W        W27927   2.816   8.978  14.886 -0.3595 -0.3096  0.0167
12034W        W27928  11.800   7.310   2.759 -0.1885  0.1765 -0.0763
12035W        W27929   7.209   7.887  12.011  0.1155  0.0068  0.0981
12036W        W27930  10.486   3.624  14.939 -0.0250 -0.1202 -0.1600
12037W        W27931  14.215   7.074  16.116 -0.1238 -0.1659  0.2216
12038W        W27932   3.118  17.070  12.243 -0.3198 -0.2561  0.0359
12039W        W27933   3.821   6.325  15.599 -0.2765 -0.2986 -0.0348
12040W        W27934  16.159  10.975  15.182 -0.2774  0.0894  0.0905
12041W        W27935   5.966  17.394  16.144 -0.0515 -0.0349  0.0346
12042W        W27936  17.157   1.426   2.488  0.2012  0.1451 -0.3921
12043W        W27937  17.393  15.262   6.223 -0.3843 -0.3277 -0.0741
12044W        W27938  14.671   0.019   3.112 -0.0573 -0.3015 -0.0782
12045W        W27939  16.999   4.556   2.945  0.1721  0.1400 -0.2832
12046W        W27940  15.845  12.516   3.869 -0.1654 -0.1849  0.0943
12047W        W27941  10.037   8.985  13.835  0.1123  0.1649  0.0533
12048W        W27942  16.856  17.868  16.142 -0.3533  0.1371 -0.0949
12049W        W27943  14.178   6.558   5.063  0.1392  0.4502  0.3481
12050W        W27944   9.968   5.716  10.578  0.0117  0.0790 -0.0700
12051W        W27945  13.677   8.795   3.402 -0.1700  0.4499  0.2889
12052W        W27946  14.763   9.832  15.455 -0.1445 -0.1230 -0.0432
12053W        W27947  14.416  11.606  13.444 -0.4743  0.1461 -0.1308
12054W        W27948   9.912   0.232   0.941  0.2054 -0.1414 -0.2249
12055W        W27949   2.096   4.533  14.716  0.1627 -0.1095  0.1582
12056W        W27950  12.710   2.834  14.238 -0.0665  0.1555 -0.0973
12057W        W27951   0.160   1.206   2.047  0.2029 -0.1769 -0.0484
12058W        W27952   5.970  11.634  12.944 -0.1655  0.3635  0.1205
12059W        W27953   6.393  11.947   3.649  0.1924  0.0641  0.0454
12060W        W27954   8.018  10.372  11.247  0.2057 -0.2339 -0.0064
12061W        W27955   0.046   7.302  13.167 -0.2762 -0.2752 -0.2947
12062W        W27956   4.256   5.639  13.925  0.1697 -0.0508  0.1542
12063W        W27957  12.183  11.554  13.569 -0.1959 -0.0528 -0.1693
12064W        W27958  10.217   8.368   1.042  0.1230  0.0163  0.1780
12065W        W27959  12.422   1.374  13.020 -0.1285 -0.0614 -0.0016
12066W        W27960   5.731   4.124   3.242  0.0003 -0.2879 -0.1398
12067W        W27961  16.170   7.546   6.099 -0.0114  0.1338 -0.0096
12068W        W27962  14.302   0.684  14.096 -0.2647  0.0017 -0.0553
12069W        W27963  12.908  14.263   1.340 -0.0496 -0.1951  0.1308
12070W        W27964   3.391   2.602  11.683 -0.0729  0.1860 -0.2500
12071W        W27965   8.975  15.083  15.138  0.1496 -0.1098 -0.1451
12072W        W27966  11.118   3.530   3.618  0.2838  0.1196  0.0606
12073W        W27967   6.065   6.192  16.428 -0.0180 -0.1960 -0.1494
12074W        W27968   2.008  17.332   3.348  0.0338 -0.0839 -0.0671
12075W        W27969   5.196   9.288  13.215  0.1902  0.1015 -0.2480
12076W        W27970  14.813   7.857  16.108  0.1733 -0.0335 -0.2411
12077W        W27971  12.675  15.162   0.167  0.0203 -0.1869 -0.0172
12078W        W27972  15.322  13.457   4.940 -0.0743  0.1838  0.1101
12079W        W27973  18.065   3.960   0.592 -0.1419  0.2189 -0.0183
12080W        W27974  18.048  14.213   1.947  0.0102 -0.3164  0.0900
12081W        W27975  16.196   0.945   2.652  0.0189  0.0405  0.0020
12082W        W27976   6.919  17.543   1.563  0.0546 -0.1365  0.2348
12083W        W27977  14.937  15.521  15.135 -0.2216  0.2874 -0.0228
12084W        W27978   2.773  11.059   0.330 -0.1219 -0.3852 -0.1060
12085W        W27979  14.153   8.892   6.313  0.1712  0.0320 -0.1471
12086W        W27980   7.294   6.181   0.336 -0.1971 -0.2030 -0.1849
12087W        W27981  15.456  14.407   3.377  0.1959 -0.1976 -0.1342
12088W        W27982   4.217   5.638  11.638 -0.2032  0.2224  0.0375
12089W        W27983   5.165  11.265   1.413  0.0553  0.0837  0.3150
12090W        W27984   8.342   0.480  14.525 -0.1742 -0.2196  0.0352
12091W        W27985   0.528   2.656   0.595  0.1722 -0.2004  0.2906
12092W        W27986   8.539   4.698  13.974  0.3633 -0.1915 -0.0858
12093W        W27987  11.357   2.320   0.917 -0.0051  0.0196 -0.0135
12094W        W27988  12.212   2.076   4.951  0.3291 -0.2120 -0.0162
12095W        W27989  11.752   2.075   0.558  0.2031  0.0451  0.0791
12096W        W27990   8.068  15.445  15.985 -0.2768  0.0555  0.0570
12097W        W27991  11.284  16.728   0.761  0.2958 -0.3039 -0.2309
12098W        W27992   7.971  13.217  14.847  0.2215 -0.2177  0.1629
12099W        W27993   0.053  16.228  11.490 -0.1830 -0.1477  0.1592
12100W        W27994   7.845   7.303  11.276  0.0229 -0.0096  0.2661
12101W        W27995   0.839   4.468   3.388  0.0434  0.1204  0.2649
12102W        W27996  15.257  10.264   0.237  0.1948  0.2096  0.2833
12103W        W27997  13.875  11.104   5.783 -0.1562  0.1572  0.3394
12104W        W27998  14.547   5.597  12.441  0.0849 -0.1494 -0.0928
12105W        W27999   8.986  17.565   0.544 -0.0065  0.1149  0.3576
12106W        W28000  10.739   2.018   6.147 -0.2398  0.2104 -0.0582
12107W        W28001   5.240  13.723  15.300  0.1403  0.1076 -0.0042
12108W        W28002   7.612  11.879  12.912 -0.0537  0.3313 -0.1560
12109W        W28003   6.025   7.534  15.382 -0.3162 -0.2672 -0.0829
12110W        W28004   1.014   9.412   2.531 -0.3411  0.2783 -0.1728
12111W        W28005   0.711  10.223   4.033  0.1418  0.0578 -0.2154
12112W        W28006  17.745  16.892  15.031  0.1447  0.2664 -0.0334
12113W        W28007   2.432  14.558  15.229 -0.0750 -0.0471  0.0703
12114W        W28008  17.313  14.732   5.550 -0.0592 -0.0074  0.1806
12115W        W28009  11.557   3.625  16.209  0.0171  0.2299  0.0453
12116W        W28010   6.131   7.192  13.881  0.1315 -0.0869 -0.0418
12117W        W28011  13.984  17.753  12.878  0.0926  0.1600  0.1275
12118W        W28012   1.026   6.156  15.334  0.0902 -0.1101  0.0167
12119W        W28013   6.425   3.139  15.726  0.0408 -0.1250 -0.0717
12120W        W28014  12.544  11.695  11.906 -0.0323  0.4311 -0.1742
12121W        W28015   9.499   2.128  14.748 -0.0663  0.0279 -0.0464
12122W        W28016  10.967  14.064  14.977  0.0442  0.3819 -0.3661
12123W        W28017  15.738  14.108  16.051 -0.0052  0.0258 -0.0429
12124W        W28018   5.849  17.351   2.676 -0.1184 -0.1236 -0.2167
12125W        W28019   1.093   1.778  11.087 -0.0077 -0.1741 -0.2214
12126W        W28020  15.042  11.181   3.983 -0.1153  0.1070  0.2393
12127W        W28021   7.280   8.170  16.342  0.1902 -0.1994  0.0748
12128W        W28022   6.667   5.645  11.761  0.1354 -0.0295 -0.0968
12129W        W28023  15.336   4.052  13.398  0.3149  0.0748  0.2433
12130W        W28024  17.063   1.384  13.776 -0.0711  0.1862 -0.1130
12131W        W28025  11.568  12.028   4.883  0.1053  0.0336  0.1897
12132W        W28026   6.317   3.605   0.390 -0.1303  0.2471  0.3146
12133W        W28027   1.324  10.310   1.420  0.2485 -0.1182  0.2414
12134W        W28028   7.183  12.568  13.614  0.1537 -0.1309 -0.1365
12135W        W28029  11.432   3.173   0.095  0.3098 -0.0964  0.0356
12136W        W28030  15.800  17.225  13.739  0.2526  0.0751 -0.1564
12137W        W28031  15.013  17.522  14.277  0.1442  0.2495  0.0085
12138W        W28032   0.732   2.475   5.137 -0.2205  0.0388 -0.2743
12139W        W28033   8.508  17.403  11.725 -0.0564 -0.2263  0.1529
12140W        W28034   4.035   4.846  13.517  0.0911 -0.0172 -0.1517
12141W        W28035  16.404   3.129  15.872 -0.2292 -0.1887 -0.1034
12142W        W28036   3.813   7.811  15.945  0.1229  0.3200 -0.0939
12143W        W28037  10.295   8.528   4.050 -0.1113  0.1547 -0.2054
12144W        W28038  15.961  12.827   2.046  0.1543  0.0952 -0.1992
12145W        W28039   7.594   8.606   4.641 -0.0524  0.0603 -0.1376
12146W        W28040  11.017   7.672  12.355 -0.1795 -0.2584 -0.2306
12147W        W28041   8.211   4.288  15.286 -0.0428 -0.3388  0.2350
12148W        W28042   4.944   3.618  12.905  0.0232 -0.0847  0.0654
12149W        W28043  14.969   4.932  14.673  0.2127 -0.1472  0.0043
12150W        W28044   3.966  12.166  11.996  0.1099 -0.1598 -0.0494
12151W        W28045   7.365   7.477  11.469 -0.0068 -0.0803 -0.1546
12152W        W28046   9.678  16.541   0.891  0.1149  0.2735 -0.2384
12153W        W28047  12.829   2.072   1.465 -0.5362  0.1293 -0.3204
12154W        W28048   9.293   9.759   4.948 -0.2274 -0.2672  0.1251
12155W        W28049  10.230   1.270  10.576  0.1603 -0.3310 -0.1512
12156W        W28050  13.134  17.370  12.143 -0.3847 -0.2286  0.3824
12157W        W28051   4.326   4.665  10.731  0.1957  0.0799  0.0632
12158W        W28052   6.691  17.101  12.690 -0.4975  0.4756  0.0606
12159W        W28053   2.724  12.831   1.878 -0.1705 -0.0198  0.1450
12160W        W28054  12.714  18.124  14.595 -0.3237 -0.2679  0.3195
12161W        W28055  15.814  16.378  15.473 -0.0142  0.1683  0.0067
12162W        W28056  15.535   9.962  15.559 -0.0228  0.2412  0.1450
12163W        W28057  14.450  10.091   3.184  0.0053 -0.4282 -0.2555
12164W        W28058   3.139   1.724  14.180  0.0764 -0.1799 -0.0736
12165W        W28059   5.630  10.677   4.260  0.4321  0.1437  0.0769
12166W        W28060  14.296  12.964   4.120 -0.1845  0.0266  0.1411
12167W        W28061  17.454   3.783  12.326  0.2579  0.2286 -0.2692
12168W        W28062   4.811   6.150  15.664 -0.0105  0.0385 -0.1272
12169W        W28063  10.547  14.033  13.592  0.1751  0.0006  0.2312
12170W        W28064   4.981   6.716  13.436 -0.1014 -0.0721  0.0246
12171W        W28065   1.225   2.954  12.889 -0.2223  0.0127 -0.2360
12172W        W28066   6.465  17.301   3.957  0.1981  0.3334 -0.0945
12173W        W28067  16.687   7.094  14.317 -0.1445  0.0393 -0.2643
12174W        W28068   7.455  10.214  14.269  0.2491 -0.3401 -0.0772
12175W        W28069  12.941   6.939  15.524 -0.5794 -0.1845  0.1562
12176W        W28070  10.441  13.406   3.746  0.2480  0.4201 -0.0761
12177W        W28071   1.648  15.194   3.419 -0.0468 -0.2389  0.2730
12178W        W28072   5.526   6.358  14.927  0.1332  0.2752 -0.0287
12179W        W28073   5.956   5.930  14.281  0.1951  0.1290 -0.1581
12180W        W28074  10.976   2.881   1.725  0.1627 -0.2281  0.3332
12181W        W28075   6.215   0.128  13.039  0.1200  0.4744 -0.4782
12182W        W28076  16.032  17.246   1.416  0.0224 -0.1213 -0.1383
12183W        W28077  12.556   5.579  16.246 -0.3506 -0.2450 -0.0665
12184W        W28078   6.333  12.414   0.479  0.1198 -0.2275 -0.1450
12185W        W28079  12.458  12.707  11.914 -0.1358  0.1830  0.1269
12186W        W28080   3.687  16.147  15.183 -0.0573  0.0460  0.1804
12187W        W28081   1.802  13.901  12.869 -0.2119 -0.2243 -0.1174
12188W        W28082  13.234  13.240  12.964 -0.1205  0.2434  0.1754
12189W        W28083   4.295   4.851   1.696  0.1543 -0.1899 -0.3473
12190W        W28084   6.766  12.564   4.639 -0.0797 -0.2353  0.2188
12191W        W28085  10.432   0.798   0.504  0.1264  0.1243 -0.0950
12192W        W28086  16.370  15.040   5.202  0.1084  0.1183 -0.0262
12193W        W28087   0.180   5.711   3.226  0.2429 -0.2256  0.1139
12194W        W28088  10.922  17.553   3.577  0.1558 -0.0037 -0.1555
12195W        W28089  17.247  10.941   5.946  0.0125  0.4599 -0.0392
12196W        W28090   2.293  14.439   1.784  0.4583  0.1052 -0.0898
12197W        W28091  15.549   8.685   2.655  0.1801 -0.1112  0.0924
12198W        W28092  16.811   2.903  14.268 -0.1098 -0.1457 -0.0762
12199W        W28093  15.868   8.746   5.318 -0.1748  0.0719 -0.2122
12200W        W28094   4.017   1.611  10.542  0.0239  0.1592  0.3775
12201W        W28095  14.151  15.973   1.807 -0.1035  0.0572  0.5183
12202W        W28096   6.061  14.908  13.607 -0.0203 -0.0122  0.0042
12203W        W28097   8.077   1.215  12.459 -0.3544 -0.0134 -0.3077
12204W        W28098  16.273  14.541  16.160 -0.1261  0.2898  0.0383
12205W        W28099   5.387  13.810   4.665 -0.1524 -0.2179 -0.2921
12206W        W28100   7.498   3.429   2.096 -0.0486 -0.0751 -0.3890
12207W        W28101  11.793  15.570  13.921  0.0661 -0.1757 -0.1261
12208W        W28102   7.942  11.079  15.550 -0.1319  0.0945 -0.0928
12209W        W28103  16.965  14.773   4.124  0.2548  0.0126  0.0720
12210W        W28104   1.000  16.128  13.449  0.1099  0.0026  0.1035
12211W        W28105   2.420   7.824   1.383 -0.0143 -0.2584  0.1385
12212W        W28106  12.112   7.855  16.385 -0.1415  0.1468 -0.1242
12213W        W28107   4.185  14.613   4.390  0.2910  0.1563  0.3318
12214W        W28108   9.391   1.543   3.190  0.0425  0.0801 -0.1884
12215W        W28109   8.367   5.674   1.816 -0.0533 -0.0013  0.2228
12216W        W28110  16.475   0.603  14.716 -0.1567  0.1762 -0.0829
12217W        W28111   7.985   2.629  12.460  0.1977  0.2194 -0.1054
12218W        W28112   9.122  17.411   5.356  0.2257 -0.0331 -0.0448
12219W        W28113  15.790   3.612  16.211 -0.3035 -0.2647 -0.2055
12220W        W28114   1.645  14.069  11.256  0.0816 -0.0094  0.4684
12221W        W28115  17.890  12.752  11.990 -0.0805  0.1728  0.2374
12222W        W28116  15.713   0.200  13.281 -0.0167  0.0648 -0.1191
12223W        W28117  11.428  16.728   2.380  0.0867  0.0176 -0.0749
12224W        W28118   4.935  10.797   2.826 -0.2841 -0.1874 -0.1005
12225W        W28119   9.600   5.477   2.185 -0.1185  0.1357  0.0985
12226W        W28120   6.769   4.670  14.644 -0.0340 -0.3230  0.2806
12227W        W28121   6.487   6.760  12.152  0.3696 -0.0398 -0.0840
12228W        W28122   5.215  16.498  15.333 -0.2365 -0.3548  0.1492
12229W        W28123   4.746   5.133   5.694  0.0908 -0.0239  0.2812
12230W        W28124  12.664   9.628   2.181 -0.4181 -0.2588 -0.1229
12231W        W28125   7.399  15.069   3.854  0.0735 -0.3545  0.0107
12232W        W28126   4.337  12.405   0.325  0.2145  0.0423 -0.2333
12233W        W28127  17.386  17.049  12.498 -0.1704 -0.1323 -0.1701
12234W        W28128  13.093   6.830  11.162 -0.1181  0.1584 -0.1818
12235W        W28129   8.813  17.616   3.495  0.0943  0.0579  0.2762
12236W        W28130   9.448  11.012   2.268 -0.0789  0.2775  0.0451
12237W        W28131  11.787   1.229   4.568  0.1959 -0.0521 -0.3181
12238W        W28132   8.087   8.861  16.399  0.2014  0.1147 -0.3151
12239W        W28133  11.752  12.446   1.245  0.1589  0.0287 -0.2121
12240W        W28134  14.612   5.401   0.508 -0.3218 -0.0082 -0.1125
12241W        W28135  13.405  16.906  12.961 -0.1631 -0.0833 -0.1578
12242W        W28136   5.109   7.585  11.388 -0.1051 -0.4348  0.1373
12243W        W28137   6.650  14.413  13.565 -0.1061 -0.2097  0.0363
12244W        W28138   5.982  10.910   5.162  0.1739 -0.2024 -0.0558
12245W        W28139   6.083   1.948   1.377 -0.0841  0.0430 -0.0690
12246W        W28140   7.172   2.368  14.329 -0.2139  0.2123  0.1658
12247W        W28141  14.166  12.967  12.660  0.3396  0.0219 -0.3338
12248W        W28142  15.035   0.998  13.015  0.3165  0.0980  0.1489
12249W        W28143  12.065   7.812   3.609 -0.0574  0.3065  0.0857
12250W        W28144  17.630  16.658   4.344  0.2644 -0.0562 -0.0197
12251W        W28145  15.885   0.333  15.283  0.1310  0.1089 -0.1631
12252W        W28146   6.471   6.220   3.631  0.1530  0.0077 -0.2679
12253W        W28147   1.753  10.306   1.808  0.1138 -0.2791  0.0881
12254W        W28148  11.307  17.268  12.027  0.0519 -0.1291 -0.2326
12255W        W28149  11.118   8.074  15.407 -0.1060 -0.2085 -0.0724
12256W        W28150   2.018  12.405  12.202  0.0492 -0.1580 -0.1757
12257W        W28151  13.194   8.624  16.198 -0.1191  0.0622 -0.0983
12258W        W28152  13.282  11.809   0.135 -0.1245 -0.0044  0.2678
12259W        W28153  15.564  14.376   2.193 -0.1275  0.1854 -0.0566
12260W        W28154  12.151   1.140   2.876  0.0147  0.2086  0.1741
12261W        W28155  13.774   2.558  16.073  0.1565  0.0658  0.2117
12262W        W28156  12.380  12.140  14.536  0.1597 -0.0787  0.1760
12263W        W28157  17.144   7.005  13.995  0.1730  0.2305  0.0589
12264W        W28158   8.780   9.586  13.127 -0.0976  0.0506 -0.1333
12265W        W28159  15.278   6.096  14.438  0.2001 -0.0645 -0.2585
12266W        W28160  14.749   5.026  11.113 -0.0416  0.0262  0.0199
12267W        W28161   1.767  16.227   2.038 -0.0339  0.1078  0.0615
12268W        W28162   0.118  17.001  11.631 -0.1841  0.4142  0.1728
12269W        W28163  14.223  14.445  14.690  0.0584 -0.3440  0.2347
12270W        W28164   9.658  14.002   5.254 -0.1538 -0.1389  0.2599
12271W        W28165   1.199   4.790   4.936 -0.1344  0.1764 -0.1040
12272W        W28166  17.715   5.253   1.564 -0.1264 -0.1103 -0.2070
12273W        W28167   3.623   2.387  12.768 -0.2591  0.1068 -0.4425
12274W        W28168  11.567   2.711   3.419 -0.0371  0.0368  0.1639
12275W        W28169  10.527   7.824   2.798  0.0938 -0.0178 -0.0395
12276W        W28170   9.717   1.561  14.049  0.0014  0.3713  0.0431
12277W        W28171   9.230  10.610   4.597 -0.1313  0.1159  0.3157
12278W        W28172   6.049   2.995   9.866 -0.2419  0.1560 -0.2194
12279W        W28173   7.885   9.108   4.744  0.0044  0.0495 -0.1025
12280W        W28174   6.414   0.140  11.153  0.0427  0.1492 -0.1169
12281W        W28175   4.362  11.796   2.869  0.1548 -0.0815 -0.1651
12282W        W28176   0.942   7.278   5.056 -0.2092  0.0211  0.0753
12283W        W28177   2.968   0.879  13.690  0.1606 -0.0114  0.0289
12284W        W28178  16.614  14.181  16.321  0.4028 -0.0452  0.0536
12285W        W28179   2.991   7.740  12.555  0.1523 -0.1169 -0.2073
12286W        W28180   5.599   5.388   5.492  0.0958  0.1564 -0.2846
12287W        W28181   7.460  17.891   5.825 -0.1100 -0.2407 -0.2792
12288W        W28182   1.178  11.455   0.489 -0.0738 -0.2527  0.0472
12289W        W28183   6.397   1.036   1.894 -0.2351 -0.0065 -0.4044
12290W        W28184   0.236  12.831   1.455 -0.1183 -0.0193 -0.0165
12291W        W28185   0.012   1.441   3.598  0.1275  0.1115  0.2817
12292W        W28186   1.040  13.899   5.154 -0.1718 -0.1326 -0.3894
12293W        W28187   1.187   7.993  11.806  0.2483  0.2838 -0.1181
12294W        W28188  18.040   9.610   2.541  0.0712  0.0111  0.1458
12295W        W28189   7.303   7.361  11.942  0.0189  0.0761 -0.2217
12296W        W28190  15.273  15.515  13.653  0.2852  0.0962 -0.4508
12297W        W28191  16.372   0.272   4.415  0.1083  0.1550  0.1150
12298W        W28192  16.132  15.708  14.324 -0.1041  0.2538  0.1345
12299W        W28193   8.350  17.735   3.311 -0.2975  0.0623 -0.0578
12300W        W28194  13.847  14.003  14.221 -0.0364  0.1233  0.2294
12301W        W28195   3.618  10.745   1.162  0.0333 -0.1506  0.1929
12302W        W28196   8.845   1.807  15.283 -0.1683  0.1264  0.2843
12303W        W28197   1.272   4.275   4.640 -0.1548  0.0122  0.1162
12304W        W28198  10.985   8.601  15.141 -0.1030 -0.0757  0.3717
12305W        W28199  13.372   6.406   4.638 -0.0864 -0.2907  0.2218
12306W        W28200   2.693  11.490  15.926 -0.0993 -0.3309  0.0722
12307W        W28201  11.116   5.849  15.237 -0.0557  0.1984  0.0588
12308W        W28202  12.827  14.787  13.094  0.0264  0.1746 -0.0426
12309W        W28203  16.376   6.380   4.583  0.0632  0.2683  0.2112
12310W        W28204  12.968   0.634  11.670  0.1153  0.0156 -0.2452
12311W        W28205  17.916   2.970   5.209 -0.2299 -0.0086  0.0940
12312W        W28206   7.279  13.712  11.537 -0.0662  0.1401  0.1829
12313W        W28207   0.474   7.495   5.743  0.2129  0.1534  0.0668
12314W        W28208  12.972   1.471  15.540 -0.1306  0.0853 -0.1765
12315W        W28209  11.452   7.503  13.020 -0.4160  0.0089 -0.2029
12316W        W28210   2.932   6.152  13.103  0.1585 -0.0149  0.0922
12317W        W28211   4.194  13.591   4.015  0.1787  0.1919 -0.2647
12318W        W28212  17.213   1.451   1.844 -0.0920 -0.0127 -0.2501
12319W        W28213   7.419   0.137  11.996  0.0123  0.0262 -0.0934
12320W        W28214   8.899   5.477  16.010 -0.0074 -0.1270 -0.1060
12321W        W28215   8.721   4.173   3.580 -0.1221  0.0789  0.1521
12322W        W28216  12.685   6.335   0.274  0.4738  0.1576 -0.1587
12323W        W28217  15.454  14.176   2.667  0.0743  0.1446  0.1251
12324W        W28218  11.791   1.020   0.880 -0.0932 -0.2052 -0.0335
12325W        W28219   3.896   0.872   5.279  0.1070 -0.2307  0.0102
12326W        W28220   7.583  10.005  16.233  0.1294 -0.0494  0.3440
12327W        W28221  16.965  15.422   5.327 -0.2603  0.1321  0.2377
12328W        W28222   6.270  10.908   2.087 -0.2593 -0.0648 -0.0941
12329W        W28223   8.093  13.158   3.843  0.0124  0.0975  0.1175
12330W        W28224  17.108   2.684  13.197 -0.2035  0.0318 -0.1326
12331W        W28225   9.510  13.412   2.918  0.3844  0.4437  0.1249
12332W        W28226  17.634   8.155  13.541 -0.1504 -0.1070  0.0347
12333W        W28227  13.028   3.868   5.042  0.3591  0.0500  0.3735
12334W        W28228   7.613   9.049   3.756 -0.2942 -0.0726  0.0438
12335W        W28229   4.602  16.267  14.667 -0.0427 -0.4225  0.0229
12336W        W28230  11.014   5.264   4.635 -0.0017  0.2819  0.3397
12337W        W28231   9.521   4.376   4.112 -0.0630 -0.0792 -0.0107
12338W        W28232   3.473   2.654  12.189  0.1335  0.3963  0.1121
12339W        W28233  12.931  18.083   2.956  0.1199  0.1016 -0.0107
12340W        W28234   6.226   8.741   4.690 -0.1312 -0.0760  0.4125
12341W        W28235   3.000  15.141   3.328 -0.1709  0.0836 -0.0643
12342W        W28236   5.411   9.318  11.175  0.1127 -0.1424  0.0814
12343W        W28237   0.980   3.893  15.072  0.0428 -0.0771  0.0245
12344W        W28238   7.822  15.584  12.443 -0.1756  0.0562  0.0384
12345W        W28239   0.995   0.405   2.040  0.1788  0.0363  0.1837
12346W        W28240   3.401  16.871   0.638  0.0454 -0.0301 -0.1258
12347W        W28241   6.385   5.306   4.414  0.3500 -0.2126  0.2760
12348W        W28242   3.562   9.331  12.205  0.4036 -0.0194 -0.4137
12349W        W28243   0.204   7.885   5.588 -0.2474 -0.0223 -0.2064
12350W        W28244  12.423  13.339  14.338 -0.3166  0.4524  0.1667
12351W        W28245   3.153  16.230  12.118 -0.0776 -0.0989  0.1547
12352W        W28246   6.121  16.807  15.530 -0.1078 -0.0776  0.0167
12353W        W28247   4.262   4.549   3.987 -0.2538  0.1155 -0.0469
12354W        W28248   7.401   4.234   0.456  0.0969 -0.0188 -0.1954
12355W        W28249   7.624   3.495  14.815  0.2142  0.1098 -0.2877
12356W        W28250  15.731   6.309  12.149 -0.1435 -0.3184  0.1277
12357W        W28251   1.893   7.113   2.760  0.2087 -0.0235  0.0141
12358W        W28252  13.638   3.607  15.321  0.1333  0.0600 -0.0762
12359W        W28253  13.039  16.142   4.002 -0.1303 -0.3798 -0.1813
12360W        W28254   9.769   8.588  14.596  0.2277  0.0387  0.0193
12361W        W28255   9.011   4.851  13.904 -0.0309 -0.1766 -0.0004
12362W        W28256   3.714   6.545  14.664  0.2283 -0.0035  0.0071
12363W        W28257   3.970  12.203   1.630 -0.0053  0.1489 -0.1785
12364W        W28258  15.534  14.369  11.923 -0.0741  0.5358 -0.0053
12365W        W28259   2.647  13.799   3.041 -0.2756 -0.0451 -0.1276
12366W        W28260   1.959   3.783  12.582 -0.0955  0.3117 -0.1960
12367W        W28261   5.608   0.941  15.688  0.1724  0.5607  0.1345
12368W        W28262  14.318   0.478   5.186  0.0595 -0.1532 -0.1077
12369W        W28263  11.391  17.215   5.198 -0.1900  0.0781  0.0482
12370W        W28264  16.825  11.217   3.149  0.0055  0.1882 -0.2658
12371W        W28265   6.384  18.041  16.270 -0.2366 -0.1468  0.0232
12372W        W28266  12.756   4.162   2.370  0.0379 -0.1302  0.0958
12373W        W28267   6.598  11.542   4.523 -0.0140  0.2865  0.0426
12374W        W28268  11.911  15.125   2.598  0.0713 -0.1396 -0.3295
12375W        W28269  10.614  17.259  16.334 -0.1646 -0.1131 -0.2709
12376W        W28270   4.529  10.305  13.367 -0.2195 -0.0594  0.2398
12377W        W28271  14.244  14.881   4.725  0.1871 -0.3305  0.2397
12378W        W28272  12.919   8.963   4.960 -0.0754 -0.2364 -0.0192
12379W        W28273  11.983  13.861   2.992  0.0148  0.0320  0.0039
12380W        W28274  10.389   7.015  12.765  0.3358  0.2707 -0.3161
12381W        W28275   3.276   6.360   4.903 -0.1414  0.0910 -0.1844
12382W        W28276   4.173   5.378   4.866  0.0653 -0.0554  0.5169
12383W        W28277  14.249   0.405  14.519  0.0922  0.2454 -0.1150
12384W        W28278  16.945  12.615  14.785  0.1508  0.1232 -0.1250
12385W        W28279   2.687   5.995   2.158 -0.2265 -0.0205  0.0779
12386W        W28280   9.701  14.545  12.387  0.1064  0.2621  0.0168
12387W        W28281  15.400   5.201   3.850 -0.0689 -0.0501  0.1262
12388W        W28282   4.720   5.007   0.241 -0.1116  0.0553 -0.2004
12389W        W28283   3.907  17.947   4.776  0.1478  0.0111  0.2255
12390W        W28284   9.101   3.239  15.828  0.4360 -0.1604  0.0948
12391W        W28285   2.002   0.389  14.724 -0.3249  0.2703 -0.2095
12392W        W28286   7.111   4.207  13.757  0.0880  0.0838  0.1125
12393W        W28287  16.129   0.448  14.207  0.3043 -0.0339 -0.1353
12394W        W28288  17.022   9.110  12.648 -0.1285 -0.0833  0.1400
12395W        W28289  17.395  17.185   3.782  0.2365  0.2365 -0.1588
12396W        W28290   2.494   5.599  13.779 -0.0670  0.0632 -0.0459
12397W        W28291   7.115   0.442   2.510  0.0766 -0.1447 -0.0498
12398W        W28292  14.700   2.511  11.923  0.0447  0.0681 -0.0116
12399W        W28293   7.674   3.377   3.232 -0.0470  0.1685  0.2949
12400W        W28294   3.813  14.116   2.583 -0.0107 -0.2164 -0.0538
12401W        W28295  17.873   1.334  11.472 -0.0992  0.1971  0.1793
12402W        W28296  12.504   7.423  10.938 -0.1751  0.0179 -0.2155
12403W        W28297   7.103   5.654   3.232 -0.1891  0.1566 -0.0314
12404W        W28298  14.937   7.328   4.862  0.1494  0.2231  0.0338
12405W        W28299   0.714   8.961   5.546  0.0893  0.2038 -0.1002
12406W        W28300   8.532   4.867   3.056  0.2258  0.0763  0.0820
12407W        W28301   4.382   8.510  15.075 -0.0036 -0.2108 -0.3471
12408W        W28302  17.816  11.853  13.535  0.1174 -0.1883 -0.0083
12409W        W28303  14.748  17.485   2.130 -0.2253  0.2424 -0.1076
12410W        W28304   0.007   3.668  11.793  0.1603 -0.1077 -0.1742
12411W        W28305   8.325   6.223   3.719  0.0597  0.2604  0.2583
12412W        W28306  10.383   1.464  13.888 -0.0193 -0.3083  0.1865
12413W        W28307  16.168   6.441  13.367 -0.0815  0.4437  0.0980
12414W        W28308   9.134  10.942  14.325  0.0568  0.2005 -0.0281
12415W        W28309   3.617   7.572   3.419  0.0739 -0.1140 -0.1671
12416W        W28310   1.284  16.614  14.719 -0.0033  0.0160  0.1090
12417W        W28311  12.330  16.866  11.752 -0.0643  0.0076 -0.2268
12418W        W28312   4.311  12.048  15.654 -0.1460 -0.1120 -0.0203
12419W        W28313   3.416   0.061   5.647 -0.1298  0.2497 -0.2693
12420W        W28314   0.011  17.267   4.156  0.2029 -0.1139 -0.3168
12421W        W28315   1.525   5.048   2.341  0.0224 -0.3830 -0.3255
12422W        W28316  15.901  10.285   3.819  0.0349 -0.1920 -0.0926
12423W        W28317  10.006  16.792  12.612 -0.0143  0.0107  0.2891
12424W        W28318   7.118   0.860   4.670  0.2063 -0.2057 -0.2360
12425W        W28319   7.455   8.418   0.833 -0.0396 -0.2250  0.0549
12426W        W28320   2.088  16.951   5.242  0.0756 -0.0670  0.1452
12427W        W28321   9.617   3.827  15.537  0.0434  0.0390 -0.2052
12428W        W28322   9.827   4.759   4.851 -0.1279  0.0355 -0.4319
12429W        W28323  15.811   2.914  15.157  0.0053 -0.2307 -0.0128
12430W        W28324   0.120   6.732   1.607  0.1046 -0.3052 -0.2604
12431W        W28325   1.973  17.404   0.662  0.0744  0.3738 -0.0276
12432W        W28326  13.432  10.811  13.353 -0.0588  0.1948  0.1010
12433W        W28327   4.852  16.098  15.981  0.0562 -0.0639 -0.0963
12434W        W28328   6.310   9.713   4.609  0.1041  0.0298 -0.0372
12435W        W28329   2.881   1.539  14.920 -0.2668  0.0462 -0.1319
12436W        W28330  15.506   5.004  15.889 -0.1822 -0.0263  0.1305
12437W        W28331  14.858   1.759   5.073 -0.1652  0.0092 -0.2462
12438W        W28332   4.967  15.192  12.001  0.0296  0.1839  0.1198
12439W        W28333   9.373  14.607   3.665 -0.1482  0.4698 -0.2119
12440W        W28334  10.577  16.989  14.909  0.0718 -0.0331  0.1780
12441W        W28335   6.721   4.205   2.573  0.1484  0.2810  0.1319
12442W        W28336   4.381   3.349  14.877 -0.1675 -0.2203  0.3104
12443W        W28337   2.287   6.986  12.661 -0.2474  0.4417 -0.1758
12444W        W28338  15.844   5.837   3.475  0.1089 -0.0348  0.0424
12445W        W28339  14.862  12.422  12.413  0.1110 -0.2530 -0.0012
12446W        W28340  15.119  10.059  15.784 -0.1490 -0.2253 -0.0857
12447W        W28341  13.406   8.848  15.739 -0.1614  0.1004 -0.0128
12448W        W28342   1.514   8.103   6.131 -0.0896 -0.0164 -0.0212
12449W        W28343  15.764  13.363   3.703 -0.0752  0.1253 -0.2554
12450W        W28344  15.900   8.669   0.328  0.0725 -0.2261 -0.0678
12451W        W28345   8.227  17.539   5.457 -0.0057 -0.1756  0.2692
12452W        W28346   2.521   9.628   4.760  0.0881 -0.0189  0.2553
12453W        W28347  11.878  13.599  13.244 -0.1690 -0.2078  0.2290
12454W        W28348  15.566  16.464  14.651  0.3004  0.4065  0.0048
12455W        W28349  15.802  14.547   5.685  0.0060 -0.0900  0.3762
12456W        W28350   3.934   4.108   3.048  0.2643  0.0914 -0.1586
12457W        W28351  18.206   9.799  13.165  0.0002 -0.3348  0.4509
12458W        W28352   4.406  12.180   2.530  0.1296 -0.1262 -0.1195
12459W        W28353   3.559  17.787   2.301 -0.4287 -0.0538 -0.0365
12460W        W28354   2.153   4.016  13.043  0.0074 -0.1414 -0.0187
12461W        W28355  13.473   2.906   5.083 -0.1080  0.1842  0.1804
12462W        W28356  11.499  15.236   4.154  0.0647  0.0934 -0.2745
12463W        W28357  13.560   7.835   2.335  0.2928 -0.2023  0.0719
12464W        W28358   9.776  15.197   4.807 -0.4679  0.0257  0.1655
12465W        W28359   2.956   0.730  14.520 -0.2219  0.2089 -0.1671
12466W        W28360  11.166  16.561  11.448  0.2155  0.0201 -0.1098
12467W        W28361   1.055   7.025   3.381 -0.2298  0.0879  0.0237
12468W        W28362  10.202   5.773  12.660  0.1880  0.5256 -0.0517
12469W        W28363   1.711  11.408  15.569  0.4219 -0.0268 -0.0723
12470W        W28364  12.442  13.305  11.840 -0.1568 -0.2216 -0.2661
12471W        W28365  13.271  12.935  12.252  0.1053 -0.1194 -0.0675
12472W        W28366   7.048  14.620   2.356  0.1110  0.3252  0.1916
12473W        W28367  13.131   9.456  14.695  0.0273 -0.1905 -0.1319
12474W        W28368  13.142  10.647   3.994 -0.0784  0.0661 -0.0504
12475W        W28369   3.316  10.981  13.405  0.1958 -0.2292  0.3540
12476W        W28370   3.886  17.278  13.153 -0.0822 -0.0941 -0.1213
12477W        W28371  10.546   9.674   0.666 -0.1789 -0.1442  0.1167
12478W        W28372  10.967   8.129   2.848 -0.0851 -0.0586  0.1103
12479W        W28373   8.942  13.534   4.337 -0.0608 -0.0140 -0.2582
12480W        W28374   3.177  11.693   3.195 -0.1244 -0.1640  0.0450
12481W        W28375   3.086   7.779   4.260 -0.1516  0.2695  0.2198
12482W        W28376   2.690  17.869   3.132  0.0430 -0.0415 -0.3835
12483W        W28377  13.598   5.705  13.376 -0.2575  0.1164  0.1198
12484W        W28378  14.714  11.159   5.202  0.1252 -0.0729  0.2024
12485W        W28379  12.176  12.013   4.758 -0.0213 -0.0569  0.3684
12486W        W28380   5.894  16.941  15.953  0.4048  0.2172  0.0697
12487W        W28381  17.583   1.028   1.789 -0.0633  0.1286 -0.1431
12488W        W28382   0.598   1.876  15.305  0.1411 -0.3851  0.0146
12489W        W28383   8.139   3.277  10.085 -0.0189 -0.2091  0.1125
12490W        W28384   6.630   2.550  12.254 -0.2285  0.2365  0.3842
12491W        W28385  10.755   7.397  15.099 -0.0792  0.1083  0.1104
12492W        W28386  16.884   0.518  15.721 -0.0342 -0.1672 -0.1122
12493W        W28387   4.378   3.286   0.510  0.0429  0.1356  0.1400
12494W        W28388   3.792   9.174  13.142  0.3350  0.2223 -0.1681
12495W        W28389   1.122   8.923  15.658 -0.1167 -0.0834 -0.1370
12496W        W28390  13.568   5.771  12.515  0.2443 -0.0068  0.1528
12497W        W28391   1.839   0.495   3.278  0.1693 -0.0875  0.1242
12498W        W28392   3.254   8.145  12.874 -0.0232  0.0199 -0.2582
12499W        W28393   6.622  11.915  14.822 -0.1499  0.0757  0.1300
12500W        W28394   2.237   6.899  16.354  0.3569  0.1675 -0.3629
12501W        W28395   6.883   8.514  16.362 -0.1209 -0.1603 -0.0128
12502W        W28396  12.831  13.205  11.084 -0.2191  0.1603 -0.0743
12503W        W28397   2.522   5.234   2.390  0.1665  0.0888  0.0226
12504W        W28398  10.101   4.080  15.597  0.0162  0.2061 -0.1324
12505W        W28399   1.727   8.599  15.199 -0.1242  0.0916  0.3417
12506W        W28400  11.825  17.039  12.049  0.0523 -0.0183  0.2207
12507W        W28401  15.622  13.337  15.739 -0.1508  0.1824 -0.1240
12508W        W28402  17.588  16.267  16.330 -0.1349  0.0190 -0.1532
12509W        W28403  14.216  16.014  11.753  0.2774 -0.1743  0.0325
12510W        W28404  11.199  10.882  12.262 -0.0223  0.1899 -0.0004
12511W        W28405  13.185   9.404   0.017  0.3244  0.2598  0.2692
12512W        W28406   2.167   7.315  15.036 -0.0984  0.3615 -0.1581
12513W        W28407  10.362  15.151   0.854  0.0284 -0.0195 -0.0801
12514W        W28408   3.360  11.462  13.191 -0.0484 -0.0544  0.3451
12515W        W28409  11.232   6.473   0.298  0.2701 -0.0419 -0.1885
12516W        W28410   8.921  16.482  14.872  0.1225 -0.0032  0.0446
12517W        W28411   9.734  10.096  12.124 -0.1435  0.2555  0.0669
12518W        W28412   8.409  12.323   0.953 -0.0985 -0.1245  0.1757
12519W        W28413  17.229  12.543   0.122  0.3782 -0.0019  0.1416
12520W        W28414  17.566   1.956   5.007 -0.1267  0.0757  0.0841
12521W        W28415  11.765  13.843  11.723 -0.1134  0.0171  0.2098
12522W        W28416   2.706   3.255   2.516  0.2083 -0.0222  0.1230
12523W        W28417  18.142   9.852  16.134 -0.0030  0.0387  0.1370
12524W        W28418  12.549  11.130  12.498  0.0469 -0.2544  0.2719
12525W        W28419   6.023   3.601  15.805 -0.3344  0.4255  0.1682
12526W        W28420   5.429   4.985   3.792  0.1553 -0.2472  0.2298
12527W        W28421   0.086   3.908  14.733  0.0080  0.0572  0.0787
12528W        W28422  10.836   4.920   5.513 -0.0579  0.2223 -0.4616
12529W        W28423  11.160  11.840   2.618 -0.0691  0.1396  0.0270
12530W        W28424   4.636   8.066  15.106 -0.1352  0.1599  0.1117
12531W        W28425  13.184  11.510   5.733  0.1585 -0.1784 -0.1397
12532W        W28426   3.657  17.082   3.798  0.0751  0.1884 -0.1522
12533W        W28427   3.082  17.904   4.944  0.1676  0.0112  0.0987
12534W        W28428   1.437  17.434  15.237 -0.1702  0.0428 -0.0531
12535W        W28429  16.415  10.936  15.680  0.1278  0.0221  0.2232
12536W        W28430   6.208   4.996   2.370  0.0074 -0.1053  0.3840
12537W        W28431  15.974  11.684  15.667 -0.0391  0.1257  0.1166
12538W        W28432   0.639  15.518   0.410 -0.0169  0.0371  0.0187
12539W        W28433  13.362   9.180   0.797 -0.3464  0.0095  0.2438
12540W        W28434  10.821  16.023   2.139 -0.1862  0.0319 -0.1571
12541W        W28435   4.776  18.179   5.847  0.0697  0.0228 -0.1387
12542W        W28436   0.984  13.635  14.802  0.1870  0.0689  0.2247
12543W        W28437   0.148   7.756   2.663  0.3530  0.2814  0.2864
12544W        W28438   2.530   6.392   0.028 -0.0904  0.1405  0.0562
12545W        W28439   7.724   5.332   1.227  0.2550  0.3991 -0.2460
12546W        W28440   1.339  14.255   4.067 -0.3517 -0.1280  0.1022
12547W        W28441   7.296   3.227   4.801 -0.0581  0.1965 -0.1373
12548W        W28442  11.557   1.902  15.376  0.0799  0.1065  0.0073
12549W        W28443  10.118  13.490   1.937  0.0540 -0.2455 -0.0543
12550W        W28444  17.206   1.693  15.050 -0.2280 -0.1828  0.1292
12551W        W28445   2.128   7.942  13.244 -0.2321 -0.0805 -0.0767
12552W        W28446  17.808  13.445   5.913 -0.0617  0.1820  0.0459
12553W        W28447   5.889   1.904   2.392 -0.3374 -0.0536 -0.5220
12554W        W28448  11.816  14.432  13.148 -0.1537 -0.0135 -0.1126
12555W        W28449  17.133   6.307   2.448 -0.2925  0.1050  0.0125
12556W        W28450  17.472   7.933  11.731 -0.0890  0.0079  0.0082
12557W        W28451   4.826   3.107   0.766  0.2077  0.2127 -0.0185
12558W        W28452  10.099  12.690  16.103  0.1291  0.0115  0.3402
12559W        W28453  11.231  17.661   0.494 -0.2198  0.0796 -0.0462
12560W        W28454  11.308   1.861   1.277  0.2351  0.1457  0.0622
12561W        W28455   3.581  13.432   0.737 -0.1273  0.0224  0.0487
12562W        W28456  11.061   7.462  11.387  0.3113 -0.1775  0.0517
12563W        W28457   6.831  18.044  12.697 -0.2423 -0.0181 -0.2949
12564W        W28458  15.706  14.681   2.566  0.4085 -0.0375 -0.0186
12565W        W28459  11.390  13.217   3.167  0.1658 -0.0150  0.3007
12566W        W28460  12.474  17.971  13.447  0.2507  0.0439 -0.3852
12567W        W28461   7.122   0.852   2.182  0.5749 -0.0409 -0.0631
12568W        W28462  14.035   7.786   2.087  0.0633 -0.0988 -0.2402
12569W        W28463  15.211   8.027  15.918 -0.2501  0.0551  0.4410
12570W        W28464  16.553   4.862   0.790 -0.2985  0.2718 -0.0413
12571W        W28465   7.852   9.246  10.916 -0.2572  0.5275 -0.1208
12572W        W28466   5.674  15.104   5.416 -0.0816  0.1428  0.2395
12573W        W28467   7.793   9.389  15.070 -0.1640 -0.1750 -0.2482
12574W        W28468   6.524   7.627   1.919 -0.0422  0.1452  0.0443
12575W        W28469   8.373  14.409   6.024 -0.1220 -0.1833  0.0017
12576W        W28470  17.238   0.269   1.339 -0.1230 -0.0243 -0.3627
12577W        W28471  10.805  17.637   0.153 -0.2087  0.2219 -0.2240
12578W        W28472   6.168  13.540  13.643 -0.1576  0.1422  0.0119
12579W        W28473   6.930   2.750   5.177 -0.1010 -0.1974  0.2326
12580W        W28474   2.891  11.768   5.465  0.0913  0.2157  0.1004
12581W        W28475   5.419   9.307   2.793  0.0730 -0.1256 -0.0317
12582W        W28476  13.634  14.130   5.013  0.3593  0.0130 -0.0035
12583W        W28477   3.518  16.316   6.682  0.2458 -0.2892  0.0425
12584W        W28478   7.572   8.970   3.253 -0.0602 -0.1378  0.3041
12585W        W28479  11.622   7.102  10.746  0.1155 -0.5647  0.0581
12586W        W28480  18.144  17.230  10.018  0.1771 -0.3388 -0.0927
12587W        W28481   6.541   8.456  12.932 -0.0985 -0.3351 -0.0377
12588W        W28482   0.781  13.245   0.666  0.0517  0.1323  0.0042
12589W        W28483   7.397  18.153  11.261 -0.0780 -0.2919  0.0133
12590W        W28484  17.059  10.288  13.233 -0.3304 -0.2240 -0.1219
12591W        W28485   0.020  15.419   3.720  0.1316  0.0314  0.1284
12592W        W28486  11.285   9.330  11.276 -0.1678 -0.0974 -0.1725
12593W        W28487   5.477  17.202   1.651 -0.2435 -0.3737  0.1929
12594W        W28488   9.625  14.240  15.798  0.3661 -0.1215 -0.3392
12595W        W28489   0.720   3.102  14.675 -0.3194 -0.0947 -0.1292
12596W        W28490  17.148   0.718  12.136  0.0388 -0.1540  0.2212
12597W        W28491   7.396  15.786   1.129  0.1311  0.0019 -0.2399
12598W        W28492  12.376   9.562  16.436 -0.1679 -0.1033 -0.2758
12599W        W28493   9.323   3.337   3.421 -0.0528  0.3788 -0.1616
12600W        W28494   5.515   8.311  10.941 -0.1382 -0.2297  0.1741
12601W        W28495   9.052  17.554   5.968 -0.6104 -0.2513  0.2287
12602W        W28496   2.775   4.734   3.773  0.0524  0.0464 -0.4531
12603W        W28497  10.400  12.667  13.232  0.1131 -0.0060  0.2555
12604W        W28498   1.995   0.855   1.862  0.0285  0.3503 -0.0241
12605W        W28499   5.627  17.797  11.001  0.1944 -0.1432 -0.0138
12606W        W28500  14.879   1.264  12.606  0.0360 -0.0123  0.0457
12607W        W28501   5.299   4.884   1.225 -0.2615  0.2229  0.0746
12608W        W28502   2.637  17.992  15.523  0.2617 -0.0804  0.1303
12609W        W28503   2.027   0.262   5.657 -0.0292  0.1929  0.0654
12610W        W28504   4.547  16.234   3.695 -0.0996 -0.0300 -0.1201
12611W        W28505   0.666  16.928   1.446  0.0530 -0.3696 -0.1472
12612W        W28506   5.356   6.229   3.390  0.1067  0.2289  0.1070
12613W        W28507   6.299   2.887  15.258  0.0402  0.3293 -0.0537
12614W        W28508  15.668  10.330  13.088  0.1127 -0.0445  0.4370
12615W        W28509   3.170  17.959   3.643 -0.2420 -0.2299  0.0361
12616W        W28510  15.530  15.154  13.982 -0.1134  0.2364 -0.2005
12617W        W28511   4.406   7.857   1.042 -0.0838  0.0797 -0.4174
12618W        W28512   8.093  16.857  13.830  0.2527  0.1319  0.0261
12619W        W28513   2.683   8.702  13.212 -0.1242  0.1309 -0.1357
12620W        W28514   3.636   3.723   2.904  0.0326 -0.1406  0.1511
12621W        W28515   3.329  17.398   3.767  0.0343 -0.0552  0.2239
12622W        W28516  16.719   5.456   3.934  0.1577 -0.1588 -0.0665
12623W        W28517   5.884  12.518  14.702 -0.0863 -0.0237 -0.5232
12624W        W28518  16.952   0.391   3.867 -0.1170  0.2736 -0.1690
12625W        W28519  10.851   7.641  15.582 -0.0650  0.1444 -0.0249
12626W        W28520   6.621  13.801   1.410  0.2336  0.1796 -0.0551
12627W        W28521  11.406  16.644  14.553 -0.1816 -0.3465 -0.0438
12628W        W28522  16.819   8.625   2.397  0.0757 -0.1917 -0.0170
12629W        W28523  13.814   7.045  14.059 -0.0022  0.3522  0.0889
12630W        W28524   1.662  11.239  14.164 -0.3259  0.3250 -0.1403
12631W        W28525  10.752  13.450   4.613  0.0657  0.1858 -0.1656
12632W        W28526  13.889  11.990  11.980  0.0519 -0.0716 -0.0828
12633W        W28527  12.082  12.185  15.603  0.1223 -0.0061 -0.4372
12634W        W28528  16.944  11.081   4.547  0.0334  0.1035  0.0144
12635W        W28529  13.307   7.798   5.178 -0.1545 -0.1353  0.0858
12636W        W28530  11.035   6.158   1.814 -0.0275 -0.1181  0.0177
12637W        W28531  14.927   8.319   1.035 -0.0804 -0.1580  0.0632
12638W        W28532  17.389   2.693  14.193  0.0144  0.0704 -0.1821
12639W        W28533   1.619   7.096   0.055 -0.1636  0.1525 -0.2460
12640W        W28534   2.151  12.900  15.409  0.3958 -0.2975  0.0171
12641W        W28535   4.823  11.000   3.254 -0.0752 -0.2073 -0.0200
12642W        W28536   8.783   6.163  15.052  0.0169 -0.0138  0.1115
12643W        W28537   1.342  14.176  14.335  0.2395  0.2079  0.1379
12644W        W28538  11.291  15.135   1.760 -0.1193 -0.1904  0.3037
12645W        W28539   9.112  10.127   4.511  0.0191 -0.0599  0.2001
12646W        W28540   5.976  17.370   0.367 -0.3381 -0.0098 -0.2260
12647W        W28541   9.853   9.245   5.827  0.0527  0.0524  0.1968
12648W        W28542   5.332  15.988  11.197  0.0378  0.0025 -0.2036
12649W        W28543   8.883  16.839   4.091  0.1370  0.1851 -0.3492
12650W        W28544  12.266   3.936   4.824  0.0119 -0.1159  0.0231
12651W        W28545   5.420  10.014   1.042  0.0679 -0.2865 -0.1343
12652W        W28546  11.778   8.062  14.780  0.2489  0.1606  0.6493
12653W        W28547   2.900   1.460   1.738  0.2418 -0.2622 -0.1346
12654W        W28548  16.448  16.814  15.843 -0.0285 -0.0469 -0.1180
12655W        W28549   1.336   1.718  12.011 -0.1691 -0.0150 -0.1588
12656W        W28550   2.587  17.847  13.623 -0.2313 -0.1481 -0.2117
12657W        W28551  11.012   0.286  14.523 -0.2752 -0.1949 -0.0068
12658W        W28552  14.445  13.210  11.353  0.2816  0.0700 -0.2951
12659W        W28553  11.370  11.797   3.482  0.1917  0.3363  0.1960
12660W        W28554   5.363  15.942  16.338 -0.1316  0.0711  0.0975
12661W        W28555  17.543   5.611  14.874  0.0114 -0.1360 -0.1173
12662W        W28556   3.006   3.684   2.471 -0.0506  0.1615 -0.0506
12663W        W28557  17.544   4.409  15.508  0.1687 -0.0297 -0.2527
12664W        W28558   1.742  11.544  16.439 -0.0028 -0.0421 -0.0930
12665W        W28559  11.102  14.992  12.297 -0.2948 -0.1672 -0.2394
12666W        W28560  11.461   8.638  16.392 -0.2034 -0.0572  0.1229
12667W        W28561  11.225   5.504  12.620 -0.2069  0.0813  0.1669
12668W        W28562  14.377   5.136   3.698 -0.1165  0.0930 -0.0397
12669W        W28563   8.203  10.772  12.101 -0.1025 -0.1110  0.3094
12670W        W28564  16.679  10.287   0.059  0.1224 -0.2953  0.0526
12671W        W28565   9.239  13.410   0.572 -0.0895  0.1852  0.2069
12672W        W28566  14.933  14.538  15.195  0.0235  0.0785  0.2880
12673W        W28567   3.241   5.489   2.790  0.1217  0.0415  0.1150
12674W        W28568   2.701  10.139  15.592 -0.2319  0.1284  0.0047
12675W        W28569   1.651   7.474   2.499 -0.0899 -0.4341  0.1018
12676W        W28570   3.950   9.278   4.739  0.1678 -0.0235  0.0955
12677W        W28571   0.904   0.779  14.001  0.0350 -0.2236 -0.2119
12678W        W28572  11.010   8.987  14.089 -0.0571  0.1365 -0.1971
12679W        W28573  16.976   8.393   0.380  0.2150  0.2596 -0.0215
12680W        W28574  16.782   1.244   5.274  0.0842 -0.0810 -0.1169
12681W        W28575   5.755   9.625  15.425  0.0886  0.2703  0.5252
12682W        W28576   0.541   0.340  12.882 -0.2350 -0.2152  0.2133
12683W        W28577  12.465  13.595   4.814 -0.3104  0.0269 -0.1241
12684W        W28578   1.729   9.874  13.830 -0.2239  0.1689 -0.0579
12685W        W28579   8.539   5.485  13.448  0.1030  0.0973  0.2461
12686W        W28580  13.047  11.040   0.523  0.1599 -0.2219 -0.3726
12687W        W28581  11.261   4.697   0.374 -0.1521  0.0072 -0.3724
12688W        W28582   5.299  16.220   3.775 -0.0427  0.2464  0.2389
12689W        W28583   3.236  10.781   4.394 -0.0269  0.1471  0.0820
12690W        W28584   8.951  14.088   4.373  0.1200  0.0520 -0.0387
12691W        W28585  11.566  18.122   0.410 -0.0718 -0.2646 -0.0462
12692W        W28586  12.629   6.490  15.644  0.3752  0.0665 -0.0948
12693W        W28587   8.414   0.412   4.874  0.2842  0.1858  0.0046
12694W        W28588   9.449  14.974   4.559  0.2671 -0.1378  0.4536
12695W        W28589   5.010   4.415  13.544 -0.0271  0.1137 -0.0253
12696W        W28590   5.065   1.576  12.318  0.0406 -0.3978  0.1470
12697W        W28591   1.995  14.650  14.496  0.0471  0.0081 -0.0319
12698W        W28592  13.481   8.650  15.246  0.3480  0.0149 -0.0616
12699W        W28593   3.579  13.951   0.645 -0.1662 -0.0493  0.0341
12700W        W28594  13.428   1.526  14.743  0.1575 -0.0107 -0.0372
12701W        W28595   0.766   4.956   3.778  0.2294  0.1121  0.0489
12702W        W28596   5.623   2.108  11.309 -0.3508 -0.2136  0.0886
12703W        W28597   5.274  12.337   5.448  0.0650  0.0766  0.2645
12704W        W28598   1.767   2.669  16.093  0.2115  0.1565  0.0376
12705W        W28599   0.426  10.127   3.541 -0.2699 -0.1778 -0.1586
12706W        W28600   8.985   7.530   3.620  0.1949 -0.0612  0.2160
12707W        W28601  11.541   8.919  14.218  0.3326  0.0534  0.0981
12708W        W28602  16.891  16.853  16.265  0.4452  0.0312  0.2382
12709W        W28603  13.260   7.863   1.494 -0.2474  0.2068 -0.2094
12710W        W28604  12.466  16.251  13.367  0.0716  0.0146  0.1619
12711W        W28605   2.001   3.537   1.510  0.0803  0.0426  0.2724
12712W        W28606  10.060   8.737   3.659 -0.0558  0.1246 -0.1782
12713W        W28607   1.589  16.558   3.874 -0.0790 -0.0095 -0.1934
12714W        W28608   7.745   4.600  11.961 -0.4394  0.1279 -0.1199
12715W        W28609  14.391   5.234  13.842  0.1316  0.0509  0.0846
12716W        W28610  16.286   8.102   6.156 -0.0852 -0.0432 -0.3061
12717W        W28611  17.717   5.491   5.248  0.0563 -0.2031  0.2644
12718W        W28612   1.832   6.828   6.180  0.0821  0.0086 -0.1251
12719W        W28613   7.125  12.018   3.978  0.2196 -0.2787  0.1884
12720W        W28614   6.161   8.651  14.736  0.0036  0.1618 -0.1039
12721W        W28615  10.341   3.481   3.730 -0.1784  0.1345 -0.2536
12722W        W28616   1.919  10.799  16.374 -0.0540  0.0249 -0.1143
12723W        W28617  10.699   0.794  12.598  0.1363  0.0739  0.3244
12724W        W28618   4.983  10.782  14.800 -0.2108 -0.4280 -0.1611
12725W        W28619   6.091   3.514  14.530  0.2064 -0.0604  0.2654
12726W        W28620  14.474  14.385   5.696  0.4214 -0.0410  0.0340
12727W        W28621   6.453   6.119   0.947 -0.0993 -0.0401 -0.0766
12728W        W28622   3.645   1.229   2.953  0.4399  0.1096  0.0829
12729W        W28623   7.626   7.192   2.371  0.2004 -0.1950  0.1241
12730W        W28624   7.092   8.717   3.051 -0.2027  0.1518  0.1862
12731W        W28625   0.598   9.025  11.985  0.1663 -0.2055  0.2473
12732W        W28626  17.712   5.263  12.711 -0.1442 -0.1765 -0.2594
12733W        W28627  12.857   1.634   3.409 -0.3937  0.0439 -0.2237
12734W        W28628   4.725  10.912   1.466 -0.1031  0.0844 -0.1862
12735W        W28629  13.210   0.610  16.205 -0.0681  0.4191  0.0735
12736W        W28630   4.268   2.365  12.245 -0.0404 -0.1738 -0.0452
12737W        W28631  18.064   8.930  15.963 -0.3492  0.0560  0.0436
12738W        W28632   8.700   5.335   1.514  0.0275  0.1720 -0.2313
12739W        W28633   7.987   4.193  13.639  0.4604  0.2814  0.3029
12740W        W28634   7.996  13.734   4.693  0.1276 -0.4179 -0.1394
12741W        W28635  10.093  10.940  13.554  0.0392  0.0274 -0.1244
12742W        W28636  14.360  13.465   5.088 -0.2261 -0.0086  0.0498
12743W        W28637   6.311  13.876   4.865  0.0589  0.2706  0.0479
12744W        W28638   6.316  12.306  12.317  0.1534  0.2458 -0.1021
12745W        W28639  15.006   7.772   3.496  0.0078  0.0225  0.0520
12746W        W28640  17.643   5.729   4.441  0.0070 -0.1993 -0.0362
12747W        W28641  16.839  12.126  12.508 -0.1115  0.0541  0.0551
12748W        W28642  16.039   6.903  11.665  0.3224 -0.1031  0.0521
12749W        W28643   0.701   2.547   2.270  0.4754  0.2127  0.2391
12750W        W28644   3.254   0.846  11.244  0.0138 -0.1881  0.3102
12751W        W28645  17.545   6.473   2.177  0.1124  0.1649  0.0916
12752W        W28646   9.894  17.387   1.043  0.2302 -0.1395  0.0988
12753W        W28647  14.367  12.807   4.881 -0.1738 -0.2722  0.2232
12754W        W28648   4.023  16.085   2.883 -0.3981 -0.2362 -0.0487
12755W        W28649   0.253   7.788   0.699  0.0519  0.0199  0.0136
12756W        W28650   6.549  12.041   4.656  0.0565 -0.0906 -0.2096
12757W        W28651   9.147  15.191  14.540 -0.0612 -0.1642  0.0591
12758W        W28652  12.128   9.498  11.372  0.1150 -0.1382 -0.1063
12759W        W28653   8.691  13.283   1.617 -0.2413  0.0401 -0.2505
12760W        W28654  15.748   1.037   1.641  0.0505 -0.1988  0.1012
12761W        W28655  15.262   7.539  11.905  0.2613 -0.2869  0.2066
12762W        W28656   7.902   2.329   2.504  0.0482 -0.4642  0.1252
12763W        W28657  16.855   8.976   1.346 -0.3532 -0.0997  0.1347
12764W        W28658   2.804  12.042   4.942 -0.0569  0.1222  0.0054
12765W        W28659   7.200   1.797   4.450 -0.0031 -0.1430  0.0105
12766W        W28660  10.269   2.358   4.982 -0.0247 -0.2470  0.0903
12767W        W28661   3.637  15.862  11.875 -0.3038 -0.1753  0.3521
12768W        W28662  14.893   3.139   3.830  0.0660 -0.0563  0.1896
12769W        W28663  14.571   4.165  16.123 -0.2685  0.1841  0.1730
12770W        W28664  17.484  10.916  16.329  0.0760 -0.0398  0.0813
12771W        W28665   8.145  11.439   3.870 -0.1155  0.1016  0.1821
12772W        W28666   3.466   9.609   2.796 -0.2375  0.0734  0.0055
12773W        W28667   4.399   6.415   0.563 -0.4365  0.1894  0.4124
12774W        W28668   0.095   5.978   4.908 -0.3023  0.0287  0.3558
12775W        W28669   5.287   4.917   2.068  0.1981 -0.0427  0.3292
12776W        W28670   7.631  11.389  13.095  0.2337 -0.1051  0.2074
12777W        W28671  13.746  16.338   5.792  0.1353  0.0522  0.3640
12778W        W28672   1.112  11.209   1.579  0.0037 -0.0776 -0.1012
12779W        W28673  11.487   2.334   1.414  0.0800  0.2207  0.0830
12780W        W28674   5.055  12.291   2.831  0.2146  0.0516  0.0575
12781W        W28675   5.150  12.448  16.148 -0.0669 -0.0656 -0.0334
12782W        W28676   4.794   1.849  12.713  0.1149  0.1866  0.1142
12783W        W28677  11.001   0.455  12.361 -0.1267  0.0114  0.0845
12784W        W28678   8.221  11.271   1.758  0.0370  0.0376 -0.1384
12785W        W28679   5.909  11.668  13.467 -0.4939 -0.1535  0.3521
12786W        W28680   6.194  15.639  11.526 -0.1345  0.2834 -0.0788
12787W        W28681   7.063   6.838   0.784 -0.0663 -0.1461 -0.1667
12788W        W28682   8.520   9.967   3.911  0.2026  0.1194 -0.0813
12789W        W28683  14.247   6.017  10.950  0.0923 -0.2626 -0.0896
12790W        W28684  10.566  14.319  12.246 -0.2573 -0.0149 -0.1801
12791W        W28685   4.007  17.493  14.581  0.0211 -0.0554  0.1874
12792W        W28686   2.623   5.414   0.163  0.0974 -0.1511  0.0242
12793W        W28687  11.448  13.155  16.018 -0.2745 -0.2065  0.1690
12794W        W28688  15.128  11.466   5.433  0.1841 -0.0827 -0.0363
12795W        W28689   2.680  10.255   3.850  0.2999  0.1416 -0.1514
12796W        W28690   6.918   9.098   4.736  0.2211 -0.3425  0.2921
12797W        W28691  17.007   6.888   1.655 -0.3504  0.2090 -0.0651
12798W        W28692   3.745  13.948  15.145 -0.0716  0.0145  0.0815
12799W        W28693  15.830  12.105   3.053  0.1099 -0.0296  0.1956
12800W        W28694  16.970  17.470   5.082  0.1099  0.2247 -0.2809
12801W        W28695   8.876   1.166  14.171  0.0488  0.2102 -0.2124
12802W        W28696  12.146   5.393  12.432 -0.2025 -0.1520 -0.1406
12803W        W28697   9.230  10.388  11.892  0.0059  0.0774 -0.0978
12804W        W28698   9.414   7.319  11.958 -0.3281 -0.3209  0.2296
12805W        W28699  12.120   7.112   1.031 -0.0336 -0.0892  0.3187
12806W        W28700   6.678   6.884  14.525 -0.2058  0.1732  0.1784
12807W        W28701  10.869   2.132   3.890 -0.2279  0.2889 -0.3983
12808W        W28702   3.507   1.619   3.245 -0.0758  0.1894  0.3304
12809W        W28703   0.373  15.596  15.952 -0.0926  0.0120 -0.1114
12810W        W28704  11.526   7.925  10.110 -0.3918 -0.0968 -0.0677
12811W        W28705  10.209   2.335   4.405 -0.1460 -0.1096 -0.1874
12812W        W28706  12.820   8.239  11.153 -0.3999  0.0722 -0.0813
12813W        W28707   5.742  13.556  11.252  0.1176  0.2827  0.2748
12814W        W28708   1.775  10.040  15.872  0.1488  0.0239  0.0229
12815W        W28709  10.583   8.274   4.903  0.1668 -0.2365  0.1788
12816W        W28710   6.139  14.359   3.767 -0.1834  0.3631  0.0826
12817W        W28711   6.443  14.707   3.730  0.2271 -0.0372  0.0188
12818W        W28712  15.596   3.582  11.992  0.0985  0.1592 -0.0253
12819W        W28713  14.758  17.897   4.718  0.1767  0.1012 -0.1422
12820W        W28714  10.030  12.638  12.894  0.2353 -0.3365 -0.0823
12821W        W28715  14.123   6.059   5.306 -0.0551 -0.4427 -0.1610
12822W        W28716  12.854   9.564   3.543 -0.1012 -0.0893 -0.1987
12823W        W28717   4.926   7.182  15.030 -0.0311 -0.0111 -0.0172
12824W        W28718   6.669   7.830   1.086 -0.3071  0.0948 -0.0222
12825W        W28719  12.962   0.382  13.827 -0.1215  0.3943 -0.0342
12826W        W28720   7.196   1.793  16.045 -0.0818 -0.2080  0.1043
12827W        W28721   4.978  16.604  14.855 -0.1124  0.2460  0.1091
12828W        W28722  10.073   4.066   2.640 -0.1198 -0.0919  0.1346
12829W        W28723   6.738   9.929   4.764 -0.0722  0.2288 -0.1324
12830W        W28724   1.354   1.553  13.271  0.2364  0.0373  0.2341
12831W        W28725  13.398  14.289  12.056 -0.2653 -0.0692 -0.2907
12832W        W28726   9.943  18.221  14.699 -0.1218 -0.2412 -0.0793
12833W        W28727  15.198   6.188  13.447  0.0578 -0.0114 -0.1849
12834W        W28728  16.725  17.966   2.651  0.4334 -0.0035 -0.0831
12835W        W28729  14.041  12.815  14.506 -0.1142 -0.0070 -0.0141
12836W        W28730   4.327  12.364   3.407  0.3979 -0.0630  0.2998
12837W        W28731  10.453   0.441   1.379 -0.0814 -0.2493 -0.0278
12838W        W28732  16.238  16.925  11.687 -0.2495  0.0797 -0.3268
12839W        W28733  17.685   4.003   1.779  0.2397  0.1801 -0.3547
12840W        W28734  16.145  16.269   4.914  0.1995  0.0765  0.0371
12841W        W28735  11.417   9.796   4.091  0.0447  0.3324 -0.2900
12842W        W28736  13.966  14.942   2.640  0.0446  0.0203  0.0876
12843W        W28737  16.557   9.439  14.976 -0.0911 -0.0030  0.1013
12844W        W28738   1.939  16.365   1.431 -0.1854 -0.2695 -0.0438
12845W        W28739  15.627   5.369   1.849  0.3074 -0.1491  0.1040
12846W        W28740  14.867  15.771   4.736 -0.0561 -0.1533 -0.0887
12847W        W28741   6.874   8.610  13.810 -0.2385 -0.0077  0.0909
12848W        W28742   2.732  11.948   3.305 -0.0170  0.3090  0.1518
12849W        W28743   3.309   8.195  13.816 -0.0198  0.1043  0.0433
12850W        W28744  10.500   1.916  14.989  0.0431 -0.0454 -0.0186
12851W        W28745  17.329  11.738   4.803 -0.0039 -0.1237  0.0081
12852W        W28746  15.832   2.677  12.047  0.0201  0.3285  0.3401
12853W        W28747   7.106   9.046  13.667  0.2868  0.1295 -0.3363
12854W        W28748  12.157   3.153   5.889 -0.1949  0.0825  0.0153
12855W        W28749   8.033  12.185  13.012  0.0265 -0.0268 -0.0149
12856W        W28750   8.211   8.329  12.671 -0.2649 -0.1570 -0.0111
12857W        W28751   9.303   8.780  13.367  0.1563  0.0893 -0.1740
12858W        W28752  15.836  11.216   1.288  0.3093 -0.0824 -0.0810
12859W        W28753   6.043  13.760   0.139 -0.1192 -0.1789 -0.1540
12860W        W28754   7.883   8.941  14.846  0.2218  0.0497 -0.1442
12861W        W28755   8.311   3.718   4.292  0.3392  0.3239  0.2685
12862W        W28756  15.100   1.795  11.295 -0.0419  0.0397 -0.0781
12863W        W28757  10.967   3.213   4.948  0.1877  0.3922 -0.0595
12864W        W28758   3.500  16.313   5.514 -0.4391  0.1309 -0.1212
12865W        W28759   5.974  17.629  12.411  0.2659 -0.1766 -0.3100
12866W        W28760   6.845   7.903   2.521 -0.0714 -0.1236  0.2127
12867W        W28761  15.291   4.441   4.455 -0.1135 -0.2740 -0.5074
12868W        W28762  13.145  13.115   3.651  0.1722 -0.0523 -0.0517
12869W        W28763   1.937   2.737   0.951 -0.1895  0.2189 -0.0441
12870W        W28764   9.000   3.637   1.934  0.2890  0.2445 -0.0853
12871W        W28765   2.117  11.669  14.141  0.0272 -0.0154 -0.2230
12872W        W28766   2.262  13.192   4.568 -0.0352 -0.1139  0.1366
12873W        W28767  13.867   3.982   3.252 -0.0331  0.3956  0.1145
12874W        W28768  10.845  12.724  12.975  0.2427 -0.0182 -0.0965
12875W        W28769   0.261  13.289   6.239 -0.2807 -0.0491 -0.1906
12876W        W28770   0.314   9.148  12.436 -0.3050 -0.0318  0.2386
12877W        W28771  15.320   4.971   4.284 -0.0877  0.0842 -0.1206
12878W        W28772  14.514   9.467  15.187 -0.1248  0.0084 -0.1159
12879W        W28773   2.858   4.200   1.424 -0.4358 -0.1323  0.1378
12880W        W28774  12.534   8.140   0.977  0.3032 -0.0398 -0.0013
12881W        W28775   1.441  16.029  11.585 -0.1511 -0.2780 -0.0267
12882W        W28776  12.886   8.990  13.733 -0.3360 -0.0466 -0.1983
12883W        W28777   3.099  14.044   2.805 -0.1363 -0.2842  0.2245
12884W        W28778   0.918  15.748   0.789 -0.0765  0.1929 -0.1116
12885W        W28779  15.282   6.552   1.020  0.2181  0.0053  0.3583
12886W        W28780   5.583  14.523   2.134  0.1196  0.0568  0.1446
12887W        W28781  12.253  11.285  11.880 -0.0539  0.0019  0.2077
12888W        W28782  15.043   1.359  15.663  0.1838 -0.0544  0.1816
12889W        W28783   1.354  12.667  15.225  0.0911  0.0649 -0.0669
12890W        W28784   8.219  10.272   5.759  0.5612  0.1900 -0.1930
12891W        W28785  11.511   4.444   1.807 -0.3531 -0.2373  0.2058
12892W        W28786   6.817   8.227   2.881 -0.1472  0.0743 -0.0725
12893W        W28787   1.578  12.878   0.235 -0.1350 -0.0552 -0.1632
12894W        W28788  10.288   7.625  15.149 -0.0079 -0.0653  0.3134
12895W        W28789  13.515   6.334  13.331  0.1531  0.2831  0.0379
12896W        W28790  16.456   3.322   3.839 -0.1033 -0.3330 -0.2226
12897W        W28791   0.479   4.058  14.460  0.0832  0.2286 -0.0422
12898W        W28792   8.761   4.428   4.361  0.2219  0.0741  0.4330
12899W        W28793  10.665  11.570   5.795  0.0210 -0.1319  0.0682
12900W        W28794  11.061  12.257  14.925 -0.0824  0.2666 -0.0108
12901W        W28795   1.869  11.262   2.876 -0.2535  0.2384  0.1125
12902W        W28796   2.950   6.496   0.955  0.0715  0.1013  0.0977
12903W        W28797   7.099   7.523  15.156  0.0534 -0.0923  0.0247
12904W        W28798  11.124   0.330   0.755 -0.2457  0.0441 -0.1043
12905W        W28799  11.082   4.035   3.494 -0.2568 -0.1001  0.1879
12906W        W28800  13.126   2.345   0.578 -0.0987 -0.1665 -0.0326
12907W        W28801   8.667   0.471  11.626  0.0947  0.0493 -0.0978
12908W        W28802  10.102   0.743   3.808  0.0150  0.1442 -0.0446
12909W        W28803  16.405  10.719   3.763  0.0806 -0.0138  0.0275
12910W        W28804   9.245   7.966  14.865  0.0756  0.2108  0.0837
12911W        W28805   3.267  14.064  14.888 -0.2086 -0.2387 -0.1206
12912W        W28806  15.846   8.807  14.823 -0.0316  0.1288  0.2223
12913W        W28807   3.439  10.109   3.075 -0.2584  0.0111  0.2081
12914W        W28808  12.836   4.172   0.269  0.0239 -0.0521  0.3496
12915W        W28809  13.331  16.960  11.688 -0.3015  0.0551 -0.2699
12916W        W28810   0.553   0.189  11.359  0.2649 -0.0817 -0.1453
12917W        W28811   7.064   0.423   0.112  0.0789  0.2822  0.1439
12918W        W28812  12.001   9.901   5.475  0.0829 -0.3656  0.1444
12919W        W28813  10.255  17.191  13.881  0.0767 -0.0808 -0.4422
12920W        W28814  12.186   5.871   0.860 -0.0821  0.1955  0.2978
12921W        W28815   0.479   4.953   1.521 -0.0248 -0.2525  0.1817
12922W        W28816  17.990  12.397   5.657  0.0439  0.0269  0.3000
12923W        W28817  11.736   0.552   1.177  0.0059 -0.0340  0.3308
12924W        W28818   9.248   2.288   5.843  0.3625 -0.0617 -0.1380
12925W        W28819   9.440   0.610  13.070  0.2367  0.0461  0.0942
12926W        W28820   2.167   1.974   0.307  0.1282  0.0993  0.3938
12927W        W28821   9.857   8.875  10.032 -0.0281 -0.0251  0.4097
12928W        W28822  12.849   5.872   5.308  0.2971  0.2147 -0.1800
12929W        W28823  11.297  13.479   5.564 -0.2590  0.1084  0.0648
12930W        W28824   1.484  14.686  14.473  0.0710 -0.0544  0.0493
12931W        W28825  12.403   7.735  14.507 -0.3520  0.0883  0.3356
12932W        W28826   3.549   8.585  13.074  0.3028  0.1084 -0.1060
12933W        W28827  16.962   2.826   1.748  0.4140 -0.1461  0.2431
12934W        W28828  10.417   3.232  14.222  0.1400  0.1531  0.2151
12935W        W28829  11.639  13.803   1.402  0.0094  0.2056  0.1051
12936W        W28830   1.700  11.483   0.536 -0.0064  0.0361 -0.0155
12937W        W28831  16.167   6.626   2.262 -0.1018 -0.0399  0.3770
12938W        W28832  17.009  10.336   0.544 -0.0134 -0.0051  0.0230
12939W        W28833   0.136   3.265  12.141  0.5908  0.0382 -0.2347
12940W        W28834  11.726   4.122  13.606 -0.0598  0.0385 -0.1777
12941W        W28835  11.675   9.938   2.343 -0.1387 -0.1599 -0.1216
12942W        W28836  11.370   6.614  12.050 -0.2200 -0.2385  0.0579
12943W        W28837  15.373   5.960   3.485  0.0436 -0.0461  0.1529
12944W        W28838   7.895   7.304  13.693  0.3864 -0.2263 -0.0554
12945W        W28839   5.823   4.279  13.618 -0.2030  0.0152  0.1983
12946W        W28840   1.236   5.029   0.951 -0.1363 -0.1477 -0.1461
12947W        W28841   2.112   9.475  15.044  0.1512  0.4750 -0.0084
12948W        W28842   9.622  17.488   3.188  0.1064  0.0806 -0.0135
12949W        W28843   5.999   0.475   4.203  0.2431  0.0032  0.0210
12950W        W28844   9.795   5.570  12.441 -0.0005 -0.2490  0.0108
12951W        W28845  15.822   6.966   3.689 -0.1356  0.0683  0.1025
12952W        W28846   9.930  16.647   2.550  0.3734  0.0732 -0.1584
12953W        W28847  14.164   2.705  16.425 -0.1663  0.0592  0.0162
12954W        W28848  12.195   5.075  13.405 -0.0232  0.1705  0.1513
12955W        W28849  17.374  10.809  15.767  0.1414 -0.2970 -0.1363
12956W        W28850  12.191  16.926   4.895  0.0355  0.0189  0.1322
12957W        W28851  11.059  17.031   2.638  0.2468  0.1954  0.0443
12958W        W28852   8.437   7.389  15.098  0.0052 -0.4054 -0.2338
12959W        W28853   2.020   1.404   1.885  0.1617 -0.4379  0.1444
12960W        W28854   7.153  17.696   4.401  0.2975  0.0062 -0.3017
12961W        W28855  17.407  11.862  16.205 -0.1832 -0.0653  0.4655
12962W        W28856  10.164   2.481   0.172 -0.1107 -0.1575  0.0494
12963W        W28857   1.994   6.146  12.277  0.0493 -0.0936  0.3013
12964W        W28858  18.020   7.043  14.115 -0.0328  0.2431  0.1319
12965W        W28859  14.008   8.042  12.471 -0.0994 -0.3753  0.2469
12966W        W28860   9.273   3.974  15.232 -0.1289 -0.0376 -0.1447
12967W        W28861  12.447   4.710  11.149 -0.3258  0.0698  0.0092
12968W        W28862  15.202  10.812  10.826  0.1340 -0.2725 -0.0561
12969W        W28863   5.308   3.179   0.728 -0.2177 -0.0485 -0.2528
12970W        W28864   2.814   7.716   1.774 -0.2059 -0.0280  0.1024
12971W        W28865  15.684  11.212   2.329 -0.2323  0.2301 -0.1638
12972W        W28866   9.180  13.202   5.098 -0.4664 -0.0874  0.3474
12973W        W28867   1.649   4.473  14.943 -0.3556  0.0453  0.4503
12974W        W28868   1.897   0.418  16.322 -0.0078 -0.0192 -0.0201
12975W        W28869   8.408   2.359  11.722  0.2179  0.3083  0.0917
12976W        W28870   2.336   4.825  14.105 -0.3494  0.2965 -0.1035
12977W        W28871  12.503   1.332  15.692  0.0538  0.0480  0.0258
12978W        W28872  10.546  12.603  13.769 -0.4471  0.2800 -0.1684
12979W        W28873   0.530   6.805   0.905 -0.0527 -0.1215 -0.0040
12980W        W28874   3.031  10.542  14.775  0.1490  0.2216  0.0251
12981W        W28875  10.715   6.961  13.282  0.1128  0.0018 -0.0901
12982W        W28876   2.460   5.273  13.277  0.0591  0.1241  0.4337
12983W        W28877   2.168   8.078  15.643  0.2188  0.0542 -0.1333
12984W        W28878  14.406   7.500   1.702 -0.0839 -0.0263 -0.1315
12985W        W28879  13.839   5.408  12.942  0.0985 -0.0402 -0.1360
12986W        W28880   9.220   2.990  15.106 -0.0327 -0.0621 -0.0847
12987W        W28881  12.776  10.650   3.244 -0.2543  0.0751  0.0075
12988W        W28882   1.026   0.572  12.861  0.2431 -0.0933  0.0573
12989W        W28883  11.597   5.508  13.438  0.2362  0.2434  0.1062
12990W        W28884   7.130  17.673  16.427  0.0845 -0.0533 -0.1104
12991W        W28885   0.853   8.578  15.023 -0.3808 -0.2188  0.2332
12992W        W28886   1.251   3.964   1.020 -0.1335  0.2085 -0.1641
12993W        W28887   0.037  12.158  13.621 -0.0580 -0.2414  0.2123
12994W        W28888  16.801  15.176  11.788  0.0110  0.0086 -0.0035
12995W        W28889  14.400  13.842  15.340  0.0919 -0.2242  0.4694
12996W        W28890   1.837   5.733   1.693  0.1484 -0.3039  0.1135
12997W        W28891   5.346  16.770   3.146  0.1733 -0.1788 -0.2215
12998W        W28892   5.915   5.169   0.805  0.1576 -0.3171  0.0425
12999W        W28893  10.382   9.157  13.285  0.0016 -0.0007  0.0982
13000W        W28894   9.012  12.664   3.614 -0.1657 -0.1907 -0.2214
13001W        W28895   7.217   5.719   0.535  0.0738  0.0037  0.2311
13002W        W28896  12.416   6.331  12.170  0.0320  0.1042 -0.0044
13003W        W28897   5.481  12.705   3.091 -0.0911  0.0528 -0.1348
13004W        W28898   2.351   0.217  15.211 -0.2945  0.1723 -0.2597
13005W        W28899   0.435   6.154   1.454 -0.0137  0.0575 -0.1484
13006W        W28900   0.461  12.536   3.042 -0.1729  0.2224  0.0730
13007W        W28901  11.307   8.196   0.103  0.0650  0.0866 -0.0359
13008W        W28902  17.562   2.153   2.878 -0.2570  0.1081  0.0111
13009W        W28903  12.473   1.138  16.243 -0.2128 -0.4247  0.1067
13010W        W28904  10.838   4.101  11.675 -0.3556 -0.0473 -0.0047
13011W        W28905   0.644   2.871  13.725 -0.0957 -0.0563  0.2272
13012W        W28906  14.236   0.472   0.107  0.1313  0.0346  0.2134
13013W        W28907   7.311  11.820  13.358  0.0005  0.1147 -0.2567
13014W        W28908  17.542   9.691   0.416 -0.1795  0.0217  0.0762
13015W        W28909   3.618   7.098  11.509 -0.1036  0.1240 -0.0594
13016W        W28910   4.722   9.263  11.667 -0.5332  0.1627  0.0022
13017W        W28911   8.702   2.360   0.444  0.0419  0.0444 -0.1885
13018W        W28912   6.134   1.979   4.130 -0.0563 -0.0470  0.0754
13019W        W28913   2.547   9.537  12.177 -0.0030 -0.0339 -0.1745
13020W        W28914   3.770   5.833  15.926  0.0045  0.0543  0.1620
13021W        W28915  11.972   2.992   0.798 -0.1321 -0.0866  0.0281
13022W        W28916  12.005   6.916   4.853  0.3628  0.1164 -0.1591
13023W        W28917   1.682  12.597  13.701  0.0898 -0.3016 -0.0524
13024W        W28918  15.975   9.435   4.429 -0.1319  0.0106  0.0447
13025W        W28919   2.528   0.131  11.420 -0.0074  0.0868  0.1887
13026W        W28920   5.326  14.731   1.204 -0.0297  0.0696  0.0808
13027W        W28921  11.099   3.566  12.693  0.1340  0.1965 -0.0219
13028W        W28922  13.378   4.168  11.379 -0.3639  0.0790  0.1102
13029W        W28923   5.640   4.858  10.800 -0.1769  0.2718 -0.2394
13030W        W28924   3.362  13.210   3.337 -0.1210 -0.0884 -0.0696
13031W        W28925   7.068   9.677   2.265  0.4450 -0.0348  0.0352
13032W        W28926  16.234  17.053  13.473  0.0608 -0.0374 -0.1737
13033W        W28927  17.659  13.389   6.389 -0.3791 -0.2513  0.2449
13034W        W28928   7.247   1.364  11.644  0.0414 -0.1491 -0.4759
13035W        W28929   9.196   0.093  15.544  0.0291 -0.2734  0.2244
13036W        W28930  16.345  16.681  14.087 -0.1124 -0.0118 -0.0464
13037W        W28931  13.396  15.471   6.055 -0.0540  0.0163  0.0887
13038W        W28932  12.708  14.569   4.077  0.0446 -0.1008 -0.2018
13039W        W28933  16.111  17.580   4.970  0.0587 -0.2629  0.2954
13040W        W28934  16.968  10.239  14.493  0.2995 -0.0317  0.2279
13041W        W28935  14.214   3.087  15.915  0.2649  0.1628  0.0726
13042W        W28936  14.392   8.779  15.712 -0.0942 -0.0748 -0.0149
13043W        W28937   8.781   3.548   1.501 -0.1080  0.0715  0.1026
13044W        W28938  10.520  14.070  13.096  0.1820  0.0179  0.2893
13045W        W28939   5.291  13.437  12.758 -0.5061 -0.0134 -0.2930
13046W        W28940   2.695  13.371   0.136  0.1515 -0.0246  0.0746
13047W        W28941   5.810  16.334   0.770  0.0157 -0.2334 -0.0410
13048W        W28942  16.035   3.270  15.437  0.0307  0.2842 -0.1229
13049W        W28943  12.829   8.547   3.572 -0.0281 -0.2390  0.0842
13050W        W28944  15.094   2.081   4.367  0.3263 -0.1843 -0.2571
13051W        W28945  13.733   4.544  15.203 -0.1531  0.2419  0.1634
13052W        W28946   9.186  10.695  13.813  0.0258  0.0839  0.1893
13053W        W28947  14.971   6.205  12.885  0.2839 -0.0794 -0.0793
13054W        W28948  10.882   1.275  13.415 -0.0323  0.1919 -0.0682
13055W        W28949   0.984   8.837  13.075  0.0348  0.0821 -0.0569
13056W        W28950   0.461   3.834   2.951 -0.0067  0.1104 -0.0397
13057W        W28951   8.842  11.817   6.177  0.0909 -0.0266 -0.0492
13058W        W28952  10.478   7.447  14.096  0.0908 -0.1077 -0.1495
13059W        W28953   1.891  11.430   3.785  0.2303  0.2006  0.1568
13060W        W28954  10.158  15.465   1.185 -0.0932 -0.0080  0.1860
13061W        W28955   3.948  10.166   3.153 -0.1741  0.2794 -0.1692
13062W        W28956  10.524  16.218   4.773 -0.0883 -0.3577 -0.2115
13063W        W28957   5.824  17.409  14.193 -0.0431  0.2398  0.2269
13064W        W28958   4.025  17.765   2.093  0.2509  0.2147  0.2047
13065W        W28959   9.513  12.017  11.315 -0.1407 -0.2971  0.2948
13066W        W28960   4.866   1.341  14.129  0.3328  0.0466 -0.1957
13067W        W28961  12.038  10.754  12.070 -0.1463 -0.2044  0.1486
13068W        W28962  13.878   5.152   3.697  0.1020  0.4590 -0.0313
13069W        W28963  10.176  18.017   3.093 -0.1824 -0.1742 -0.2712
13070W        W28964   3.738  17.841  12.269  0.1104 -0.0594 -0.2606
13071W        W28965   0.525  14.563   0.534 -0.0847  0.0805  0.1180
13072W        W28966   0.587   7.223  12.799 -0.2296  0.2531 -0.4012
13073W        W28967  14.969   7.704   0.440 -0.0396 -0.1985 -0.0777
13074W        W28968  10.534  17.690   5.029  0.0626 -0.2770  0.2524
13075W        W28969   1.251   4.924  13.600 -0.1213  0.3575  0.1912
13076W        W28970  14.473   3.900  13.457 -0.1446 -0.2896  0.0054
13077W        W28971   8.607   3.941   2.238  0.0633 -0.0650  0.4500
13078W        W28972  15.468  12.546   2.990  0.2797 -0.3049  0.0380
13079W        W28973  13.426   8.165   0.475  0.1566 -0.0371 -0.0185
13080W        W28974   2.517  11.160   3.684 -0.1782 -0.0145  0.2035
13081W        W28975   8.235   4.696  14.875 -0.1824  0.0280  0.0711
13082W        W28976   0.095   5.385  11.664  0.1558  0.1312  0.0392
13083W        W28977   2.257  14.009  11.776 -0.2301  0.3914 -0.2807
13084W        W28978  10.924  10.141  10.910 -0.2116 -0.3201 -0.1284
13085W        W28979   7.719  13.924   2.616  0.4722  0.1069 -0.2741
13086W        W28980   5.529  11.167  12.578 -0.3012  0.0060  0.0695
13087W        W28981  15.123   9.405   0.291 -0.2177  0.0397  0.1560
13088W        W28982   8.520  11.509  13.965  0.2631 -0.0887  0.0117
13089W        W28983  13.571   7.917  12.695 -0.1720 -0.1717  0.1310
13090W        W28984  17.759   1.220   5.243 -0.0804  0.1793  0.1245
13091W        W28985   1.812   7.485   3.068  0.0026 -0.0009 -0.0693
13092W        W28986   8.718   0.770   5.285 -0.1920  0.3778 -0.0106
13093W        W28987   7.251  13.041   5.189 -0.1147  0.2002 -0.2211
13094W        W28988  14.216   3.363  14.619  0.1813 -0.0522  0.3171
13095W        W28989  11.773   8.472  13.124  0.1961 -0.2674 -0.3721
13096W        W28990   8.662  10.799   0.475  0.0974 -0.1786  0.0654
13097W        W28991   3.513   3.373   1.237  0.4019 -0.0506 -0.0681
13098W        W28992  14.938   8.174  13.200  0.0927 -0.0742 -0.5059
13099W        W28993  16.270   5.801  15.629  0.0309  0.0643 -0.1518
13100W        W28994  14.323   3.067   2.476 -0.1602 -0.1459  0.0096
13101W        W28995   8.338   7.576   2.794  0.4408  0.0198 -0.0998
13102W        W28996  11.794   0.822  12.766 -0.1320  0.1159 -0.1225
13103W        W28997  15.583  12.815   0.221 -0.1856 -0.0836 -0.0494
13104W        W28998  12.817   4.249   1.535  0.1111  0.0140 -0.0446
13105W        W28999  10.146   6.233   1.074  0.0658  0.0714 -0.1380
13106W        W29000   6.373   7.663  13.797  0.0014  0.2422 -0.1802
13107W        W29001   4.512   0.488  15.274 -0.0382  0.1498 -0.1208
13108W        W29002  10.799   1.736   1.437  0.0128 -0.2456  0.1560
13109W        W29003   8.051   0.136   4.606 -0.0235  0.2719 -0.0435
13110W        W29004  17.687  10.096   0.808 -0.2560 -0.0790 -0.1334
13111W        W29005   6.690   6.390   4.538 -0.0725 -0.1941 -0.2719
13112W        W29006  13.321  14.895  14.369 -0.0245  0.0391 -0.2988
13113W        W29007   6.375   8.225   2.609  0.1343  0.0551  0.3492
13114W        W29008  17.213  16.590  12.240  0.2466 -0.0166 -0.3601
13115W        W29009  16.421   6.758  14.634  0.2783 -0.2460 -0.0245
13116W        W29010  16.585   2.713   2.148 -0.1297  0.2982 -0.0364
13117W        W29011   8.579   4.512  11.713 -0.2196  0.1767 -0.3018
13118W        W29012   5.868   7.569   2.535 -0.2076  0.0588  0.1828
13119W        W29013  12.932   4.813  11.893 -0.2379 -0.1166 -0.0577
13120W        W29014   8.602   5.735   3.198 -0.0985  0.0311  0.0961
13121W        W29015  14.076   8.151   4.713 -0.1614 -0.2263 -0.3944
13122W        W29016   1.019   9.146  13.635  0.0008  0.3172  0.1061
13123W        W29017  18.053   2.782  16.177 -0.0949 -0.2931 -0.2347
13124W        W29018  13.367  14.711  12.913  0.2420 -0.0087  0.1897
13125W        W29019   0.443   8.081  13.366 -0.3141  0.1099 -0.0037
13126W        W29020  13.924  15.591  16.110  0.1897 -0.3073  0.1622
13127W        W29021   7.511   7.712  11.070  0.2112 -0.1527 -0.0322
13128W        W29022   0.369   4.733  13.235 -0.2140  0.3358 -0.3219
13129W        W29023   0.265   5.878  16.112  0.2298  0.2326  0.1539
13130W        W29024  16.635   8.404  11.991  0.2491 -0.2191  0.3308
13131W        W29025   6.083  12.696   5.253  0.1500 -0.2812  0.2315
13132W        W29026   5.231   1.137   0.409  0.2893 -0.1968 -0.3466
13133W        W29027   9.925   6.667   0.154 -0.0861 -0.1398  0.1451
13134W        W29028  16.959   5.888   3.181 -0.0375  0.0290  0.1581
13135W        W29029   0.704  16.066   1.312 -0.0402  0.2788  0.1261
13136W        W29030  12.225   7.307   5.722 -0.0837 -0.0492  0.1226
13137W        W29031   9.173   7.201   2.731  0.3350 -0.1564  0.0890
13138W        W29032   3.609   6.716   5.469  0.0711  0.1418  0.1726
13139W        W29033  12.081   3.516  12.405  0.2418  0.2835  0.2088
13140W        W29034  18.232  11.592  15.829  0.3003  0.4693  0.1271
13141W        W29035  10.412  12.162   5.060  0.1063  0.0510  0.1023
13142W        W29036   4.742   7.835  13.831 -0.4272  0.2894 -0.0993
13143W        W29037   5.194   0.442   1.410  0.1486 -0.0421  0.1136
13144W        W29038   2.952  10.493  11.660 -0.0445  0.0065 -0.1934
13145W        W29039  12.419   6.748   3.822  0.2210 -0.1466 -0.1433
13146W        W29040  17.806  11.218   0.763  0.2235 -0.1620  0.2176
13147W        W29041   4.176   9.799   0.223  0.0413 -0.4790  0.0149
13148W        W29042   6.549  15.175   4.191 -0.1854  0.1409 -0.3633
13149W        W29043  11.350   4.087   5.058 -0.2235  0.3564 -0.2503
13150W        W29044  16.510   2.006   0.931 -0.0975 -0.1369  0.2224
13151W        W29045  11.393   6.207  15.057 -0.1315 -0.1000 -0.0037
13152W        W29046   8.612   4.005  10.284 -0.0331 -0.0243  0.2065
13153W        W29047  12.445   4.867  16.039 -0.1716  0.0597  0.3834
13154W        W29048   5.837   7.541   0.030  0.2819  0.1330 -0.1085
13155W        W29049  14.518  10.663  12.166  0.0313  0.0169 -0.1083
13156W        W29050   6.224   9.425   2.113  0.2220  0.2820  0.1285
13157W        W29051   5.128  14.152   3.469  0.0272  0.0800 -0.2684
13158W        W29052  14.222   0.636  10.841 -0.1417  0.1937  0.3154
13159W        W29053  18.126   0.596   1.104 -0.2253 -0.1357 -0.0918
13160W        W29054  16.810  13.964   4.168  0.1099 -0.0926 -0.2073
13161W        W29055   6.630   0.395  15.518 -0.1364 -0.0674  0.0889
13162W        W29056  12.854   0.350  16.037  0.1198 -0.1649 -0.1314
13163W        W29057   2.108   7.474  12.557 -0.2906  0.0759 -0.0381
13164W        W29058  17.710   8.366   2.527  0.5902 -0.3077  0.0389
13165W        W29059   4.930   8.512  12.803  0.4428  0.1422 -0.1525
13166W        W29060  12.639  16.705  13.084 -0.1883 -0.2131  0.4984
13167W        W29061  13.087   5.025  14.508 -0.3738 -0.3363 -0.1212
13168W        W29062   7.746   0.860  14.168  0.0552 -0.0272  0.1502
13169W        W29063  13.760   8.724  14.868  0.5037 -0.1459 -0.1038
13170W        W29064   2.789   6.191  12.598  0.2530 -0.2385 -0.0889
13171W        W29065  16.728   7.069   0.604  0.4681  0.4085 -0.2085
13172W        W29066  10.031  13.355  13.782  0.0913  0.1345  0.2888
13173W        W29067  14.521   3.838  11.704 -0.2990  0.0296  0.2312
13174W        W29068   6.834  17.574  12.416  0.0884 -0.3169 -0.0734
13175W        W29069   4.822   2.102   5.256  0.2073 -0.0862  0.0909
13176W        W29070  12.661   4.504  15.590  0.1675  0.0013 -0.0232
13177W        W29071  11.689  10.168   4.629  0.2943 -0.0021  0.1162
13178W        W29072  13.513   1.663   3.640 -0.2644 -0.3042  0.0474
13179W        W29073   1.355   4.417   2.600  0.2340  0.0556 -0.1432
13180W        W29074   0.369   0.473   0.828  0.1365 -0.0011  0.0559
13181W        W29075   7.602   2.204   2.974 -0.3369 -0.0106 -0.0696
13182W        W29076  17.953  17.416  14.960 -0.0635  0.3340 -0.0789
13183W        W29077  16.780   2.272   0.600  0.0919 -0.0100  0.0236
13184W        W29078  11.686  13.890   5.440  0.0173 -0.1374  0.0988
13185W        W29079  13.402   8.046  16.240  0.0579  0.1523  0.0569
13186W        W29080  14.092   4.654   0.239  0.0604 -0.1913  0.2341
13187W        W29081  10.632   8.381  12.101  0.2130  0.0085  0.2046
13188W        W29082  10.497   2.247   1.495 -0.0690 -0.0355  0.1084
13189W        W29083   0.283  14.161   0.396 -0.0221 -0.1277  0.0721
13190W        W29084   3.284   4.387  10.420  0.0989  0.3125 -0.1243
13191W        W29085  11.840   5.885  12.536 -0.0815 -0.0364 -0.1125
13192W        W29086   6.578  14.183   4.539  0.0395  0.0884 -0.2005
13193W        W29087   8.620  13.761  13.790  0.0596 -0.1312  0.0736
13194W        W29088   7.132   0.815  11.424  0.1472  0.1695  0.0832
13195W        W29089  17.060  15.528   3.547  0.1460  0.0776  0.0032
13196W        W29090  14.457   3.325   1.681 -0.2553  0.0063  0.4179
13197W        W29091   7.698  18.025  10.737 -0.0970  0.2240 -0.0237
13198W        W29092   8.817   1.944  12.373  0.1254 -0.1250 -0.0246
13199W        W29093  18.142   8.893  14.741  0.0102  0.1091 -0.0009
13200W        W29094   5.534  13.847  11.969 -0.0125 -0.1333  0.0488
13201W        W29095   6.520   7.357  13.441  0.1305  0.2312  0.1840
13202W        W29096  15.017  11.694   4.493  0.0422  0.1925  0.0254
13203W        W29097   7.779   6.827  13.328  0.1566 -0.0664  0.0195
13204W        W29098  11.204   3.449   4.556 -0.0256  0.3503 -0.0315
13205W        W29099  12.127   6.129  13.528  0.0852  0.1656 -0.1232
13206W        W29100   8.913   4.615   5.153  0.0013 -0.0510  0.1843
13207W        W29101   4.628   4.844   1.153 -0.4507  0.1449 -0.1773
13208W        W29102  13.050   6.148  11.009 -0.2374  0.2834  0.3000
13209W        W29103  17.826   3.577   0.301 -0.4606  0.1324 -0.1853
13210W        W29104   9.890   2.213   2.424  0.7130 -0.3917  0.1405
13211W        W29105   3.784  12.104   1.170 -0.0030  0.0902 -0.0952
13212W        W29106   6.861   7.907  13.533 -0.0626  0.3274 -0.0816
13213W        W29107   2.898   6.867  13.815  0.4802  0.0077  0.1257
13214W        W29108  12.047   3.035  12.602 -0.2436 -0.0969 -0.1310
13215W        W29109  11.898   5.382   2.634  0.2584 -0.3746  0.1080
13216W        W29110   0.964   7.701  16.033 -0.2848 -0.1580  0.1585
13217W        W29111  10.399   2.424  12.450 -0.1699 -0.2165 -0.0995
13218W        W29112  15.960   1.098   2.118 -0.0067  0.0372  0.0178
13219W        W29113   4.302  16.236   2.492  0.0293 -0.1242 -0.1312
13220W        W29114  18.047   7.219   0.142  0.4242 -0.0493 -0.3029
13221W        W29115   1.305  10.279   2.688  0.0714  0.2836  0.2513
13222W        W29116  11.190   1.624  13.889 -0.0297  0.1225  0.0049
13223W        W29117   4.693  13.568  13.332 -0.0107  0.1053  0.2773
13224W        W29118  17.320   8.722   2.496  0.1646 -0.3193 -0.1597
13225W        W29119  15.028  17.864   3.338  0.0157 -0.2796 -0.0020
13226W        W29120  10.157  10.370   5.781  0.0057 -0.2540  0.0891
13227W        W29121   2.272   2.276  16.397 -0.2077 -0.0023  0.2102
13228W        W29122   0.156  17.091   2.892  0.0994 -0.2637  0.1152
13229W        W29123  12.672  12.558   5.009  0.1555  0.1638  0.0681
13230W        W29124   1.816   8.823  12.986  0.1981 -0.1762  0.1594
13231W        W29125   0.534  16.600  11.894 -0.3899  0.1403 -0.0744
13232W        W29126   3.102  17.578  13.701  0.0852 -0.1309  0.1540
13233W        W29127  10.280   1.679   1.445  0.2473 -0.0007  0.3546
13234W        W29128  17.782   0.070   4.391 -0.0221  0.1845 -0.0875
13235W        W29129   0.800   4.726  15.169 -0.2172 -0.3259 -0.1334
13236W        W29130   4.389   7.333   3.522  0.0489  0.3018 -0.0493
13237W        W29131  12.097  15.535  12.166  0.0757 -0.2090 -0.1283
13238W        W29132  14.632  15.349   5.584  0.1891  0.2558  0.1748
13239W        W29133  12.940   5.546  11.608  0.2439 -0.0366 -0.0845
13240W        W29134   5.253  12.330   4.488 -0.1732 -0.2278 -0.2530
13241W        W29135  15.070  17.462  13.598 -0.0193  0.0977 -0.0065
13242W        W29136   3.874  10.595  13.495 -0.2159  0.0941  0.2035
13243W        W29137   2.866   7.298   2.013  0.1449  0.0190 -0.0395
13244W        W29138  15.308   4.012  12.919  0.1076  0.0113 -0.1339
13245W        W29139  12.197   5.069  11.456  0.0624 -0.1873  0.1098
13246W        W29140  17.636   9.787   1.162 -0.1421  0.1378 -0.4613
13247W        W29141   5.619   5.923  15.784  0.3065  0.2802 -0.0967
13248W        W29142  13.903  10.438   3.617 -0.3230  0.0353 -0.1031
13249W        W29143  16.600   4.516   3.540 -0.0796 -0.0809 -0.0636
13250W        W29144  13.191  18.024  11.912  0.1217 -0.0573  0.0657
13251W        W29145  18.007   5.404   0.163 -0.1476  0.0990  0.1907
13252W        W29146  13.270  10.524  12.378  0.1857  0.3553 -0.0120
13253W        W29147  16.624   3.031   1.066  0.1249 -0.2697  0.4127
13254W        W29148   6.737   3.365   0.137  0.1688  0.2187 -0.2157
13255W        W29149   5.714   9.354   4.839 -0.1618 -0.0332 -0.5143
13256W        W29150   6.621   0.692   2.192 -0.0795 -0.2247 -0.0954
13257W        W29151   3.202  13.928   1.896 -0.1608 -0.2297  0.1784
13258W        W29152  15.431   8.437   0.349  0.1175  0.0667  0.0531
13259W        W29153   5.791   6.353   3.026 -0.2121  0.1046  0.0096
13260W        W29154  11.647  14.918   0.109 -0.2393 -0.0174 -0.4137
13261W        W29155   7.088   8.208  15.888  0.0251  0.0345 -0.0930
13262W        W29156   1.803   0.051  11.942 -0.3508  0.0098 -0.0464
13263W        W29157  11.247   8.660   2.687 -0.1709  0.0321 -0.1878
13264W        W29158   6.659   1.263   1.266  0.1036  0.0244  0.0240
13265W        W29159   7.261   4.980   3.474 -0.0484 -0.0787  0.1465
13266W        W29160   0.854   4.249   2.904 -0.1865 -0.1580 -0.1385
13267W        W29161  12.541  17.916   2.742 -0.0232  0.1958 -0.0450
13268W        W29162  12.713   5.939  11.922 -0.1714  0.3033  0.2878
13269W        W29163   7.963  11.637   4.287  0.0760  0.1494 -0.3398
13270W        W29164   1.952  10.955   1.501 -0.1172  0.2478  0.2283
13271W        W29165   0.662   4.486   1.624 -0.1463 -0.0818 -0.0593
13272W        W29166   1.355   6.974  12.298 -0.1141 -0.0618  0.1211
13273W        W29167  14.879  10.352   3.480  0.0210 -0.1525  0.4221
13274W        W29168  14.159   8.586   3.762  0.4301 -0.0107 -0.1935
13275W        W29169  10.387  13.968  16.241 -0.0484 -0.1319 -0.0894
13276W        W29170   7.005  12.798  16.323 -0.1481 -0.0928  0.0693
13277W        W29171   4.329  10.802   0.720 -0.1826  0.1589 -0.0669
13278W        W29172  11.331  17.495   2.754 -0.2159  0.0390  0.1382
13279W        W29173   7.976   1.501   2.124 -0.0615  0.0326 -0.0046
13280W        W29174  17.783   2.364  13.908 -0.0771  0.2106 -0.2244
13281W        W29175  10.434  15.426  14.729 -0.1834 -0.0603  0.3609
13282W        W29176  11.659  15.232   4.938  0.0133  0.0010  0.0094
13283W        W29177   7.900   9.647  13.281  0.0816 -0.5136 -0.0403
13284W        W29178  17.099   7.381   0.198 -0.1724  0.0574 -0.1515
13285W        W29179   4.664  16.465  13.692 -0.0281 -0.0649 -0.2189
13286W        W29180   8.136   9.647  15.288 -0.3144  0.1404  0.3993
13287W        W29181  12.208  10.815  15.886  0.2041 -0.0956 -0.0923
13288W        W29182   5.535   4.386   1.309  0.1787 -0.2884  0.0462
13289W        W29183   4.239  17.477   0.212 -0.0609  0.0477 -0.1720
13290W        W29184  14.561   1.420  15.586  0.1069  0.0677  0.2225
13291W        W29185  13.578  16.925  15.725  0.1088 -0.2254 -0.3322
13292W        W29186  16.321   0.849  12.664 -0.1173 -0.3280 -0.0547
13293W        W29187  15.826  12.842  15.623  0.0463  0.0881 -0.1119
13294W        W29188   2.365   0.430   0.634 -0.1445 -0.0776 -0.6292
13295W        W29189   5.079   9.860   2.380 -0.2467  0.0866  0.0961
13296W        W29190   0.058   4.128  13.792  0.0339  0.1093 -0.0930
13297W        W29191   5.784  11.703   2.699 -0.3314 -0.1200 -0.1472
13298W        W29192  17.551   1.971  14.845 -0.1823  0.0328 -0.3495
13299W        W29193   0.246   1.379  13.357 -0.0953 -0.1085 -0.1518
13300W        W29194   1.517  12.898   5.565 -0.1608  0.1401  0.0410
13301W        W29195   1.182  11.722   4.533 -0.0345  0.1388  0.0557
13302W        W29196   3.912   8.711   3.500  0.3568  0.0461 -0.2703
13303W        W29197  10.106   5.941   5.198  0.0959 -0.2778 -0.0723
13304W        W29198  12.043   0.896  14.005 -0.1892  0.0147 -0.4268
13305W        W29199   0.302   8.814   5.019 -0.0883  0.0746  0.2055
13306W        W29200  10.945   3.940  12.369  0.2353 -0.0934 -0.0649
13307W        W29201   4.125   6.740  13.524  0.0428 -0.0746  0.0891
13308W        W29202   4.304   0.395  13.443  0.2937  0.2079 -0.0721
13309W        W29203  13.129   1.930   5.258  0.4094  0.1198  0.2018
13310W        W29204  15.736  15.774   4.575  0.1757 -0.0417  0.0924
13311W        W29205  12.977   1.333  13.108  0.1394  0.0912  0.0840
13312W        W29206   4.491  10.901   2.609 -0.0569 -0.0764 -0.0411
13313W        W29207  15.109  10.371  13.826 -0.2064 -0.1735  0.2459
13314W        W29208   9.779   7.239   1.090 -0.1149 -0.3222  0.0249
13315W        W29209  12.340   6.391  16.040 -0.1703  0.1217  0.1457
13316W        W29210   6.994  14.948  16.340 -0.1916 -0.1810 -0.1571
13317W        W29211   3.962  17.942  15.624 -0.0434 -0.0015  0.2238
13318W        W29212   7.293  14.791   0.501 -0.1317 -0.0710  0.0026
13319W        W29213   6.626  15.055  12.850 -0.4314 -0.2402  0.0902
13320W        W29214   6.405  10.218  15.045  0.1158 -0.2726  0.0421
13321W        W29215  13.534   7.409  14.179 -0.2362 -0.0868  0.0002
13322W        W29216   6.625   5.480   2.867 -0.2493  0.1510  0.1339
13323W        W29217  16.880  13.161  16.239  0.2656  0.0204  0.2787
13324W        W29218   0.883  14.796  13.508 -0.0724 -0.0598  0.0478
13325W        W29219   5.984  11.411   3.118  0.1784 -0.1760  0.0046
13326W        W29220   4.319   9.416  14.917  0.1816  0.0478  0.1036
13327W        W29221   7.107   7.537   3.945 -0.2001 -0.2074  0.0496
13328W        W29222   3.641  12.788  13.073  0.2792 -0.2825  0.0436
13329W        W29223  13.240  15.630  13.214  0.3299  0.4738  0.0392
13330W        W29224   9.098   6.845  11.166  0.0026  0.1510 -0.0197
13331W        W29225   6.491   5.647  10.341 -0.3848 -0.2805 -0.0588
13332W        W29226   3.457  12.613   5.458 -0.1042  0.2332  0.1457
13333W        W29227  16.718  11.900  15.438  0.0195  0.0694  0.1277
13334W        W29228   4.541  13.925  13.621  0.2766  0.1024 -0.1093
13335W        W29229   5.097   5.511  15.080  0.1407 -0.4586 -0.0259
13336W        W29230  17.693  16.356  13.688 -0.0636 -0.0659 -0.0103
13337W        W29231  17.169   5.153   0.201 -0.0930  0.0193  0.1028
13338W        W29232   0.295  16.922  16.308  0.0680 -0.1899 -0.0112
13339W        W29233   7.496   8.071   0.496  0.0589  0.2593 -0.1433
13340W        W29234  10.602   2.766  15.025 -0.0376  0.2311  0.1801
13341W        W29235   1.559  15.015   0.237  0.0220 -0.4224 -0.2893
13342W        W29236   7.919  12.849   1.869  0.2013  0.0049 -0.0196
13343W        W29237   5.012  16.473   3.433 -0.1413  0.1132  0.0734
13344W        W29238  17.315  16.570   1.555  0.1242  0.0749 -0.3852
13345W        W29239  16.678  14.156  13.224 -0.1264 -0.1203  0.0688
13346W        W29240   0.099   7.696  15.326 -0.1144  0.0394  0.1570
13347W        W29241  17.594   5.085   3.370  0.0617 -0.0993  0.1635
13348W        W29242  10.576   1.544  10.343 -0.2103  0.1077  0.1043
13349W        W29243   5.283   3.224   3.542  0.0256 -0.1688  0.2813
13350W        W29244   2.938  12.340   1.885 -0.0617  0.0742  0.0568
13351W        W29245   8.678   3.910   1.189 -0.0558  0.1648  0.0738
13352W        W29246  12.575   4.429   3.451  0.2401  0.2644  0.1940
13353W        W29247   9.925  14.726  14.303 -0.0833 -0.0770 -0.4787
13354W        W29248   5.192  15.755  13.260  0.1423  0.0421 -0.2256
13355W        W29249   2.487   4.521   1.544  0.4085  0.3213  0.1345
13356W        W29250  14.053   8.857  11.873 -0.0493  0.0797 -0.1524
13357W        W29251   6.686   3.460   2.368 -0.1655  0.2585  0.1615
13358W        W29252  11.911   2.516   0.110 -0.2470 -0.1251  0.2611
13359W        W29253   4.163  14.009  14.923  0.0161  0.1355  0.1246
13360W        W29254   2.047   9.758   2.523  0.0069 -0.4967 -0.3842
13361W        W29255   9.124   6.490  11.829  0.2205 -0.0723 -0.3336
13362W        W29256   5.951  10.149  15.352 -0.1761 -0.1214 -0.1049
13363W        W29257  11.551   2.797   3.925 -0.1702 -0.1603 -0.0319
13364W        W29258  17.055  16.359  16.273  0.2129  0.2701 -0.1999
13365W        W29259   9.013  10.778   2.453 -0.0347  0.0005  0.1285
13366W        W29260   8.155   3.506   3.328 -0.0446  0.0378  0.3719
13367W        W29261   0.103  11.362   5.493  0.1180  0.0411 -0.0465
13368W        W29262   4.383  11.835  13.816  0.1707 -0.2177  0.1872
13369W        W29263   6.162  17.535   3.118  0.0583  0.1319 -0.2167
13370W        W29264   8.730   6.315  13.712 -0.4403  0.1565 -0.2331
13371W        W29265  12.019   0.970   0.408  0.2581 -0.4102  0.0329
13372W        W29266  17.757  15.263   0.626 -0.2805 -0.1376  0.1403
13373W        W29267   1.826   3.971   5.354 -0.1787  0.4369  0.0737
13374W        W29268   2.301  17.602   3.059  0.0296  0.0964  0.3145
13375W        W29269  10.275  16.629  14.175  0.0009  0.0529 -0.2176
13376W        W29270   7.156   0.343   4.862  0.1208  0.3984  0.0020
13377W        W29271  16.426  12.576   3.963 -0.3135 -0.1234  0.0557
13378W        W29272   7.703  17.455   4.251  0.0527  0.1350  0.0807
13379W        W29273   2.303  13.387  15.445  0.1109  0.2491  0.0183
13380W        W29274  13.028   3.021  15.884  0.0739 -0.3013  0.2545
13381W        W29275  15.713   1.523   2.421 -0.0200 -0.1835  0.3395
13382W        W29276   2.127   3.617   5.155 -0.0652  0.2073  0.3345
13383W        W29277   6.678  16.751   0.052  0.2408 -0.1345 -0.1426
13384W        W29278   7.350  11.378  16.157  0.3257  0.3063 -0.3272
13385W        W29279   7.697   3.399  16.194  0.0088 -0.1041  0.2856
13386W        W29280  12.242   3.792  12.828  0.0518 -0.0349 -0.0111
13387W        W29281  11.738  14.056   0.167 -0.0746  0.2812  0.2208
13388W        W29282   2.034  11.205   2.321  0.0260 -0.3322 -0.0417
13389W        W29283  10.489   4.671   5.820  0.0941 -0.0954 -0.1323
13390W        W29284   8.302  11.122   5.644 -0.1133  0.0189  0.4819
13391W        W29285  15.486  18.154   3.901  0.2139  0.1829  0.2107
13392W        W29286  12.319  12.763   5.259 -0.0707 -0.0661  0.4573
13393W        W29287   1.511  17.589   2.464 -0.4261 -0.3539 -0.0659
13394W        W29288   7.582   6.112   0.946 -0.2591 -0.1088 -0.1323
13395W        W29289  10.148   8.858   1.644 -0.0390  0.3715 -0.1119
13396W        W29290   0.915  13.558   2.064  0.0593  0.0694  0.1956
13397W        W29291   3.164  15.480  13.720  0.0128 -0.0567  0.0352
13398W        W29292   2.433  10.688   3.947 -0.0397  0.2546 -0.1353
13399W        W29293   9.979  13.146  12.902  0.0210 -0.2040  0.1916
13400W        W29294  16.125  15.545   4.385  0.1772 -0.0313 -0.1510
13401W        W29295  15.361  10.912   1.397  0.3185 -0.0722 -0.0073
13402W        W29296   0.646   5.034  16.152 -0.0054 -0.0441 -0.1752
13403W        W29297  11.477   5.896   0.787 -0.2322  0.0012  0.1507
13404W        W29298  12.405  13.140   2.169  0.0820 -0.0480 -0.1313
13405W        W29299   4.006   6.986   4.607  0.1365  0.1391 -0.0937
13406W        W29300   9.396   2.564   5.194 -0.3573 -0.0451  0.0644
13407W        W29301  13.433   2.387   5.163  0.0139  0.1378 -0.0013
13408W        W29302  12.998  10.006   3.929 -0.2241  0.0350  0.1409
13409W        W29303  11.444  14.555  12.251 -0.1238  0.2004  0.0799
13410W        W29304  16.410   7.922   5.290 -0.2352 -0.0150 -0.3269
13411W        W29305  15.154   5.399   3.275  0.0097 -0.1103  0.2793
13412W        W29306  17.113   3.005   3.366  0.1966 -0.1386  0.1804
13413W        W29307   8.265  15.167   0.137 -0.0139 -0.0586  0.2890
13414W        W29308  11.080   1.863  15.706 -0.0248  0.1699 -0.3419
13415W        W29309  15.460  10.309  16.270  0.3034  0.0011  0.0254
13416W        W29310  13.502  10.069  12.458 -0.0223  0.1558 -0.2555
13417W        W29311   6.150   7.463   5.188 -0.0369  0.3003 -0.1889
13418W        W29312  16.380  17.122  12.120  0.0390  0.0553  0.1190
13419W        W29313   2.821  11.784   2.850 -0.3910  0.1719  0.0033
13420W        W29314   4.439   9.365   4.313  0.0503 -0.1720  0.1493
13421W        W29315  12.242   1.386   0.238  0.0006 -0.0362  0.0742
13422W        W29316   3.867   9.689  15.687 -0.2538  0.0564  0.0673
13423W        W29317  13.924   6.115  15.651 -0.1441  0.3909 -0.0198
13424W        W29318   3.491   6.053  15.009 -0.2023 -0.3601  0.0562
13425W        W29319   0.239  12.356   0.346  0.3729  0.3495 -0.1511
13426W        W29320  10.415  13.457  14.668  0.1169 -0.1674  0.0974
13427W        W29321   9.313   3.836  12.663  0.0971 -0.1696 -0.2344
13428W        W29322  13.888   0.315   2.990  0.2521 -0.3691 -0.0604
13429W        W29323   8.098   0.934  11.515  0.0924 -0.1380 -0.1499
13430W        W29324  15.737   1.639   1.351 -0.0788 -0.1895 -0.0007
13431W        W29325  15.398   4.924   1.281 -0.0626  0.1945 -0.2221
13432W        W29326   4.913   0.181  12.607  0.0412 -0.2072 -0.0286
13433W        W29327  11.631  12.446   5.958  0.0726 -0.0164 -0.2960
13434W        W29328   8.841  14.605   3.752  0.2100  0.1080 -0.2349
13435W        W29329  12.246   0.116   2.486  0.0453  0.0221 -0.2093
13436W        W29330  12.957  15.684   0.124  0.1412  0.1542 -0.3494
13437W        W29331  11.442   9.152   3.742 -0.0002 -0.0450  0.0741
13438W        W29332   7.899  17.463  11.063 -0.4552  0.1377  0.1076
13439W        W29333   8.862  10.774   4.065 -0.0827 -0.0730  0.0073
13440W        W29334  11.065   7.691  13.357 -0.0781 -0.1448 -0.2106
13441W        W29335   5.236  14.180  14.394  0.1197  0.1044 -0.0452
13442W        W29336  16.212   9.791   0.859 -0.3033 -0.1218 -0.1487
13443W        W29337  14.692   9.192  13.459  0.1105 -0.2062 -0.1168
13444W        W29338   8.415  15.433  15.547 -0.1269  0.0766 -0.1099
13445W        W29339  16.738   9.384   4.128  0.2952  0.0119 -0.0757
13446W        W29340   4.387   7.998   4.420 -0.0070 -0.1718 -0.1661
13447W        W29341  12.168  10.921   0.728 -0.0937 -0.4612 -0.1102
13448W        W29342  14.522  10.082   0.760 -0.3760 -0.2863  0.1455
13449W        W29343  17.256   8.311   0.777  0.0828  0.2667 -0.2050
13450W        W29344   2.450   7.385  13.718 -0.2789 -0.0588 -0.2191
13451W        W29345  16.302   0.865  12.170  0.0727 -0.2940 -0.1464
13452W        W29346   2.132  16.570   0.960 -0.0694  0.3803 -0.0818
13453W        W29347  14.400   8.356   0.648  0.1474 -0.0660  0.3183
13454W        W29348   2.754   8.260  12.962 -0.1532 -0.1480  0.2938
13455W        W29349  17.061   5.996   3.728  0.1056 -0.1361 -0.0105
13456W        W29350   4.075  12.356   4.196  0.0987  0.0978  0.3180
13457W        W29351  15.599   1.969  15.170  0.0602 -0.0317  0.3835
13458W        W29352   0.080   3.021  15.434  0.1119 -0.2237  0.1580
13459W        W29353   9.098   7.883  13.694 -0.4836 -0.2527 -0.1250
13460W        W29354   2.180   5.689  12.971 -0.2098  0.2735  0.1309
13461W        W29355   4.512   6.488  13.241 -0.2698 -0.0488  0.1482
13462W        W29356   9.270  14.122   4.925  0.2328  0.1686  0.0666
13463W        W29357   1.628   7.276   1.492  0.1402  0.1668  0.2755
13464W        W29358  10.200   4.172  11.841  0.2362  0.3128 -0.2529
13465W        W29359   2.068   3.174  13.304  0.1807 -0.1186  0.0132
13466W        W29360   8.478  17.954  12.689  0.1784  0.1337 -0.2243
13467W        W29361   9.860   7.394  11.465 -0.1211  0.0395 -0.0077
13468W        W29362  17.093   2.467  13.883 -0.0242  0.1300 -0.0510
13469W        W29363   9.402   3.672  16.030 -0.1499 -0.0160  0.0466
13470W        W29364   9.468  11.097   2.840 -0.1701 -0.1457  0.4803
13471W        W29365  13.956   3.923   3.835 -0.2538  0.1910  0.0268
13472W        W29366   1.846   8.405   5.355 -0.0273  0.1872 -0.0117
13473W        W29367   9.638  12.858   5.713 -0.1367 -0.0640 -0.1271
13474W        W29368  18.218  12.398   1.619 -0.1582  0.0120  0.0320
13475W        W29369   3.992  11.936  14.246  0.0193  0.0235 -0.3647
13476W        W29370  10.230  18.156  12.720  0.0024 -0.3398 -0.2801
13477W        W29371   3.541   4.243  11.210  0.0497  0.0650 -0.2192
13478W        W29372   8.304  11.835   0.920  0.0399 -0.1586  0.0446
13479W        W29373   9.019   5.443  14.871 -0.3720  0.2694  0.1141
13480W        W29374  11.867   0.728  15.303  0.0953 -0.3689 -0.1785
13481W        W29375   8.829  14.500  12.840  0.2102 -0.1184  0.0706
13482W        W29376  17.810  14.912  14.817  0.0465  0.0520 -0.4270
13483W        W29377   5.107  11.296  11.157  0.1350 -0.3009 -0.0234
13484W        W29378   4.677  10.612   1.064  0.4065  0.3607  0.0013
13485W        W29379  11.790  15.824  11.739  0.1339  0.1756  0.2615
13486W        W29380   7.192  11.985   2.587 -0.2924 -0.0914  0.0614
13487W        W29381  11.186  14.465   2.340  0.0408  0.1833 -0.0289
13488W        W29382   5.573   3.692  12.167 -0.0735 -0.0483 -0.0937
13489W        W29383   3.422  17.695   4.604 -0.0056  0.0100  0.1143
13490W        W29384   5.230   8.055  13.159 -0.2025 -0.1349  0.1103
13491W        W29385  10.511   8.180   3.162  0.2852  0.2535 -0.3402
13492W        W29386   0.535  10.119   0.822 -0.1517 -0.0633 -0.0060
13493W        W29387   0.305   6.241   4.472  0.4776 -0.0141  0.1847
13494W        W29388  14.391   2.661  15.758 -0.1729  0.1117  0.1013
13495W        W29389  11.454   9.315   4.782  0.0365 -0.0946  0.3192
13496W        W29390   9.825  12.930   4.041  0.0745 -0.0715  0.1267
13497W        W29391  15.880   5.522   5.106 -0.0113  0.0085  0.1576
13498W        W29392  12.405   4.947  12.579 -0.0814 -0.0063  0.0233
13499W        W29393   2.087   3.863   2.351 -0.1398  0.1541 -0.0866
13500W        W29394  16.047  13.820   2.167 -0.0108  0.1272 -0.0094
13501W        W29395   7.619   0.876  11.522  0.0279 -0.1088  0.1111
13502W        W29396  16.134   7.964   3.473 -0.0086 -0.2076 -0.2391
13503W        W29397   9.897   1.473  13.639 -0.0441 -0.2173  0.0299
13504W        W29398   0.083   5.327   5.138 -0.1089  0.0767 -0.0865
13505W        W29399   4.268  11.215   5.555 -0.3460  0.0090  0.1741
13506W        W29400   0.155  15.275  12.346  0.1954  0.1186 -0.4485
13507W        W29401  15.966  10.511   6.576  0.2257 -0.0676 -0.0602
13508W        W29402   8.519   2.281  15.081 -0.0369  0.1031  0.0242
13509W        W29403   5.570   0.534   1.020  0.1271 -0.0471 -0.6427
13510W        W29404  14.902   4.081   1.924  0.1368 -0.1298  0.0452
13511W        W29405   5.361  13.125   2.377  0.0310 -0.3832  0.2501
13512W        W29406   8.624   4.086  10.974  0.1825 -0.1095  0.0617
13513W        W29407  12.163  13.667  13.661 -0.2204 -0.4293  0.0826
13514W        W29408  14.880  13.641   3.706 -0.1208  0.1075 -0.0740
13515W        W29409   1.574   5.902   1.174 -0.1419 -0.1519 -0.0120
13516W        W29410   9.571   2.227   2.008 -0.0503 -0.0532 -0.3117
13517W        W29411   9.374  13.412   3.441 -0.1726 -0.2077  0.0059
13518W        W29412   1.702  10.203   0.576  0.0102 -0.1967 -0.1297
13519W        W29413   7.116   9.651   4.844 -0.3226 -0.0557 -0.0922
13520W        W29414   5.147   6.288  11.831 -0.1723  0.0075  0.0605
13521W        W29415  15.575  15.650  11.026 -0.1196  0.2063 -0.1336
13522W        W29416  11.972   2.393  12.049 -0.3362 -0.2531  0.0437
13523W        W29417  17.473  15.221  15.167 -0.1222  0.0683 -0.3638
13524W        W29418   7.047  17.647   2.649 -0.3387 -0.2414  0.0498
13525W        W29419   9.349  17.112  13.652  0.1226  0.2401 -0.1293
13526W        W29420   5.374   7.328  14.119  0.4640  0.0694 -0.1336
13527W        W29421  17.577   7.910   4.547  0.1819 -0.0395  0.1501
13528W        W29422  16.212  12.412  12.996  0.0935 -0.0200 -0.2671
13529W        W29423   7.205   4.625  13.257 -0.0282  0.0069 -0.0505
13530W        W29424  17.119   8.748   5.029 -0.0449 -0.0300  0.0509
13531W        W29425   5.201  17.433  15.597  0.0191  0.0354 -0.0773
13532W        W29426  13.520  16.581   3.391 -0.0922  0.1849 -0.0163
13533W        W29427   2.153   7.562   3.969  0.0008 -0.1984  0.2502
13534W        W29428   2.921   0.884   5.317 -0.0698 -0.2355  0.0266
13535W        W29429   4.167   1.140   0.484 -0.0702  0.2163  0.0088
13536W        W29430   4.895  17.945   5.392 -0.0948  0.0997 -0.0023
13537W        W29431  13.005  13.788   4.869 -0.4520 -0.2724 -0.0703
13538W        W29432   1.222  16.099   1.083  0.0138 -0.1026 -0.2703
13539W        W29433  15.819   6.384  14.247  0.1447  0.0609 -0.5611
13540W        W29434   3.231   8.624   4.364 -0.2281 -0.3468 -0.1114
13541W        W29435  16.226   8.153   6.676  0.1272  0.0596  0.0704
13542W        W29436  15.898   6.800  12.163  0.0485 -0.1194  0.0591
13543W        W29437  14.206  16.639  14.439  0.0206  0.0569  0.0994
13544W        W29438   4.309  14.088   2.891  0.0432  0.2399 -0.0621
13545W        W29439   2.498   0.041  14.191  0.0184 -0.0855 -0.3596
13546W        W29440  15.124   0.935   3.977  0.0633  0.0345  0.3943
13547W        W29441  15.812   2.548   1.805  0.1077 -0.0165  0.1774
13548W        W29442  11.146   6.694   2.389  0.0369  0.1103 -0.2112
13549W        W29443  12.335  15.162   2.167 -0.0907  0.0014 -0.1825
13550W        W29444   2.185   4.183   6.059 -0.0076 -0.1239  0.0551
13551W        W29445   6.610   9.467   4.953 -0.3361 -0.2947 -0.1216
13552W        W29446  16.117   7.782   1.712  0.1206 -0.2055  0.1669
13553W        W29447  15.076   2.784  14.822 -0.0373 -0.1503  0.1784
13554W        W29448   4.666  17.702   3.354  0.3175 -0.1005 -0.0848
13555W        W29449   7.599   6.123  13.990 -0.1345 -0.1935 -0.0179
13556W        W29450   6.475  13.335   0.648 -0.1189  0.1710 -0.1709
13557W        W29451  13.516  17.418  14.291  0.1435 -0.1733 -0.0967
13558W        W29452  17.998   5.504   1.960  0.0695  0.2801 -0.2972
13559W        W29453   7.928  13.868   3.100  0.3705  0.2607  0.3874
13560W        W29454   8.201   4.815  11.955 -0.0511 -0.1534  0.0538
13561W        W29455  11.050   5.968   2.798  0.1426 -0.2173  0.0197
13562W        W29456   5.052  16.469   5.616 -0.2833  0.1195  0.0302
13563W        W29457  10.777   3.824  10.746  0.1125  0.1549  0.0477
13564W        W29458   6.776  11.263  15.995  0.2952 -0.0108 -0.2059
13565W        W29459   9.855  17.975  13.011 -0.5428 -0.0860  0.0988
13566W        W29460   9.078   5.005  13.457 -0.2229  0.3280 -0.2122
13567W        W29461  15.057   8.746   1.317  0.2052 -0.0289  0.2492
13568W        W29462  12.802  17.225   2.821  0.1577  0.0992  0.3904
13569W        W29463  14.012  12.090   4.082  0.2153  0.2269 -0.2336
13570W        W29464   9.198  11.011   5.019 -0.0935 -0.1384 -0.1924
13571W        W29465   3.207  13.008  15.654 -0.0962  0.0565  0.0419
13572W        W29466   6.649   2.645  16.246  0.2545 -0.0143 -0.0504
13573W        W29467  10.776   3.160   3.587  0.1260  0.0635 -0.1899
13574W        W29468  15.192   3.276  13.557  0.1595 -0.1486  0.0315
13575W        W29469   3.911  13.051  14.694 -0.1361  0.0675  0.0737
13576W        W29470  13.573   3.949  16.312 -0.0161 -0.2563 -0.0909
13577W        W29471   6.079   2.085  11.060  0.0210 -0.2658 -0.0191
13578W        W29472  13.073  14.979  13.887 -0.2393 -0.0308 -0.2719
13579W        W29473   3.712   0.309  15.018 -0.1282 -0.0564  0.1721
13580W        W29474   4.943  10.580  16.240  0.3436 -0.0658 -0.3557
13581W        W29475   7.406   2.934   1.884  0.2749  0.1915 -0.2353
13582W        W29476   4.194   7.233   5.032  0.2579 -0.0999  0.1358
13583W        W29477  17.162   1.069  14.203  0.0773 -0.1654 -0.2149
13584W        W29478   7.431  14.915   2.404  0.4625  0.1408 -0.0160
13585W        W29479  16.711   8.095   0.107  0.1264  0.0482 -0.1145
13586W        W29480   8.301  13.361   4.383 -0.0892 -0.1577  0.1165
13587W        W29481   0.946  14.738   2.900  0.1153  0.3799 -0.0748
13588W        W29482   7.244   5.096  13.338  0.2883  0.1456  0.1503
13589W        W29483   2.094  17.853   5.021  0.0138 -0.0109  0.4398
13590W        W29484  13.492  17.904  16.419 -0.0995  0.1377 -0.1707
13591W        W29485  16.709  16.766  11.539  0.0774 -0.0612  0.2730
13592W        W29486  10.214  14.636   1.026  0.0993 -0.0723 -0.0103
13593W        W29487   1.364  12.367   1.605 -0.2123 -0.2686 -0.0977
13594W        W29488  13.449   5.513  15.575 -0.0844  0.1060  0.2287
13595W        W29489   3.687   1.829   4.667  0.0962  0.0652 -0.1370
13596W        W29490  15.107  15.188   5.419  0.1725  0.3612  0.0648
13597W        W29491  11.657  14.944  13.080  0.0196 -0.0298  0.0515
13598W        W29492   9.229   9.591   4.503  0.4265  0.1592 -0.0981
13599W        W29493  10.098  15.014  14.700  0.0875 -0.1101  0.3555
13600W        W29494   8.032  14.117   1.351 -0.2906 -0.0041 -0.1281
13601W        W29495  14.941   4.211   4.227 -0.2090  0.3481  0.0028
13602W        W29496   1.281  12.946  13.108 -0.0261 -0.0570  0.2486
13603W        W29497   5.144   2.337   1.800 -0.1179  0.1209  0.1053
13604W        W29498  12.045  14.478  12.271 -0.0359 -0.3226 -0.1480
13605W        W29499  12.826  15.570  11.670  0.0689 -0.0346  0.1210
13606W        W29500   5.150  14.553  14.075 -0.0319  0.2848  0.1460
13607W        W29501  10.099  15.672  14.353  0.2215 -0.2368  0.0597
13608W        W29502   5.208   1.993   3.509  0.2299 -0.1751  0.2748
13609W        W29503   8.632  15.681   5.282 -0.0086  0.0923 -0.0958
13610W        W29504  13.545   9.883  13.409  0.1507 -0.2143  0.2043
13611W        W29505   9.473   0.848  11.925 -0.1696 -0.1195 -0.2128
13612W        W29506   9.741  17.074   1.872 -0.2323 -0.0633  0.0424
13613W        W29507   2.876  15.588  10.982 -0.0760  0.1727  0.0258
13614W        W29508   0.892  13.507   3.669 -0.1055  0.1063  0.2409
13615W        W29509  16.173   2.858   3.423  0.3544  0.3871  0.3123
13616W        W29510  14.074  13.885  12.090 -0.3217 -0.1328 -0.1981
13617W        W29511  10.734  13.532   2.390  0.1271  0.0030  0.3303
13618W        W29512  13.876   0.466  12.580 -0.1311  0.0143  0.3701
13619W        W29513  15.515   5.010  13.006  0.1956 -0.4904 -0.0798
13620W        W29514   0.991   0.851  11.060  0.0773  0.3362 -0.0189
13621W        W29515   9.237  13.359   2.395 -0.2617  0.2146  0.0859
13622W        W29516  17.755   8.826   2.671  0.4554  0.0152  0.1223
13623W        W29517  15.090   9.926   3.478  0.2710  0.0458 -0.0353
13624W        W29518  11.321   2.500   2.107  0.0009 -0.2458 -0.0733
13625W        W29519   2.303   7.863  11.641 -0.1207  0.0892 -0.1585
13626W        W29520   6.236   7.793   5.569  0.2629  0.2793  0.1816
13627W        W29521  16.058  15.809  13.391  0.0933 -0.4341  0.1136
13628W        W29522   0.775  14.671   1.482 -0.4096  0.0591  0.2679
13629W        W29523   5.823  10.958  10.721  0.2176 -0.2813 -0.0887
13630W        W29524   4.105   4.552  15.438  0.1058 -0.0698 -0.1350
13631W        W29525  16.851   5.441   2.403  0.1423  0.0810 -0.1070
13632W        W29526   2.267   4.684   2.586 -0.0684 -0.1894  0.0886
13633W        W29527   5.884  16.038   2.111 -0.0342 -0.1592  0.0811
13634W        W29528   5.537   0.324  14.137  0.3708  0.1794 -0.1788
13635W        W29529   5.970   5.472  12.493 -0.1139 -0.1478  0.0991
13636W        W29530  16.698   8.924   0.294  0.2032  0.1036  0.2611
13637W        W29531   2.042  16.423   5.102 -0.0292 -0.3233 -0.0978
13638W        W29532   8.711   0.886   4.246 -0.1257 -0.1235  0.0845
13639W        W29533  10.895  15.655  14.750  0.0004  0.0742  0.0814
13640W        W29534   2.060   0.974  11.982  0.2596  0.0267 -0.2902
13641W        W29535  12.230  11.698   1.030  0.5675  0.0830 -0.1049
13642W        W29536  12.423   5.832  13.209  0.0741 -0.1265  0.0995
13643W        W29537  16.679   2.072   1.465 -0.3271 -0.1623  0.0852
13644W        W29538   8.821   9.932   5.215 -0.1659 -0.0141 -0.3368
13645W        W29539   5.431   5.883  15.097  0.0167 -0.1019 -0.2398
13646W        W29540  16.890   9.268  13.125 -0.0853 -0.1686 -0.1484
13647W        W29541  17.929  14.643   1.582  0.1677 -0.0687  0.0867
13648W        W29542  17.021   0.545   2.981  0.0856  0.0967  0.0521
13649W        W29543   9.477   5.612  14.807 -0.0418 -0.0323 -0.0351
13650W        W29544   6.292   3.317   5.893  0.0359 -0.0811 -0.0315
13651W        W29545   1.996  12.114   4.492  0.3805 -0.0336  0.3202
13652W        W29546   0.802  17.578   1.062 -0.1530 -0.3676  0.0341
13653W        W29547  10.579  13.240   1.959 -0.1016 -0.0830 -0.4979
13654W        W29548  14.809   4.985   2.364 -0.2202 -0.0838  0.1974
13655W        W29549  16.127  17.865  14.971  0.2107 -0.0017  0.1269
13656W        W29550  13.834   3.441   1.900  0.0851 -0.2587  0.2436
13657W        W29551  15.607  15.366   5.445 -0.0796 -0.5985 -0.4076
13658W        W29552   6.500  10.009   5.463  0.0123 -0.1833  0.0835
13659W        W29553   2.199  16.110  11.747 -0.1560  0.4531  0.0136
13660W        W29554  16.257  10.872  13.432 -0.1550 -0.3134 -0.1625
13661W        W29555   2.908   6.354  13.940 -0.0845 -0.3980 -0.3399
13662W        W29556  12.792  10.353   4.246  0.2212  0.2275  0.1049
13663W        W29557  11.798  11.490  11.793  0.1794  0.2270  0.0455
13664W        W29558  13.619   8.420   4.533  0.0226 -0.1970 -0.2127
13665W        W29559   6.675  14.570  11.552  0.0814  0.1182  0.0619
13666W        W29560   4.611   8.455  15.889  0.0797  0.0983 -0.3279
13667W        W29561   7.732   5.537   0.347  0.1694 -0.0820  0.2284
13668W        W29562  18.019   3.746  15.999 -0.0507 -0.1651  0.1530
13669W        W29563  13.262   8.347  12.435 -0.0589  0.2178 -0.4733
13670W        W29564   4.889   0.160   3.488 -0.0974  0.2617 -0.0578
13671W        W29565   7.548   1.255   2.844  0.2128  0.3035  0.1823
13672W        W29566   0.719  13.996   3.530 -0.0622  0.0481 -0.2000
13673W        W29567   7.835  13.681  15.214 -0.2635 -0.0562  0.0021
13674W        W29568   4.171  16.070   1.257 -0.2268 -0.2781 -0.1815
13675W        W29569   6.490  12.566  15.477 -0.1014 -0.0586  0.0499
13676W        W29570  10.967  17.738  12.283 -0.0209 -0.0390 -0.0692
13677W        W29571   5.464  10.176   3.845 -0.1405  0.2662  0.0179
13678W        W29572  16.430   7.467   2.141  0.0638 -0.1080 -0.0606
13679W        W29573   5.790  14.562  10.400  0.2201  0.2481 -0.2237
13680W        W29574   3.941   0.201   0.555  0.0554 -0.2452  0.5192
13681W        W29575  15.828  14.015  11.692 -0.0974  0.3874 -0.0747
13682W        W29576  12.225   4.437  12.578 -0.0126  0.0492 -0.0940
13683W        W29577   2.331  14.646   2.453 -0.1870  0.0252 -0.1535
13684W        W29578   1.261   9.809  13.985  0.1386  0.0062 -0.0342
13685W        W29579   7.307  11.520  13.971 -0.0567  0.1669 -0.0434
13686W        W29580   4.671   1.760  14.568  0.1020  0.1229 -0.2727
13687W        W29581   0.806  14.227  12.821 -0.2589  0.0647 -0.0762
13688W        W29582   2.783   3.084  12.641  0.1746 -0.0819 -0.2817
13689W        W29583   3.974  17.371  11.112  0.0722  0.0232  0.3195
13690W        W29584  13.114   4.246   5.328 -0.2406  0.1119 -0.0118
13691W        W29585  11.361   8.895  13.755 -0.0570 -0.1739 -0.1804
13692W        W29586   5.535   3.156   1.554 -0.0523  0.0284 -0.0293
13693W        W29587  14.666  16.732   6.086 -0.5069 -0.1001  0.0985
13694W        W29588  13.690  13.337   4.788  0.2189 -0.1900  0.3578
13695W        W29589   9.366   8.990  12.149  0.0715  0.1609 -0.4836
13696W        W29590   6.768   4.373  13.283 -0.1001 -0.0823  0.0700
13697W        W29591   7.446  14.925  11.974 -0.0353 -0.1185  0.1133
13698W        W29592   7.050   0.646  15.596 -0.2192 -0.1101  0.3185
13699W        W29593   0.577  14.179   1.477  0.0442 -0.1781 -0.0235
13700W        W29594   2.965   2.299   4.499  0.2859  0.2601 -0.0899
13701W        W29595  16.072   9.482   5.396 -0.0148 -0.4614  0.1563
13702W        W29596  15.217  11.368  12.942 -0.3062 -0.2302  0.0748
13703W        W29597   4.573   9.810  16.387  0.2339  0.1342 -0.1312
13704W        W29598   4.878   4.808  15.883  0.2112 -0.0974  0.1296
13705W        W29599  12.416   4.234  13.049  0.1787 -0.0371  0.0437
13706W        W29600   1.972   9.281  13.512 -0.2323  0.1527  0.2134
13707W        W29601   6.323   5.102   3.893 -0.2564 -0.1445  0.0686
13708W        W29602  12.431   6.378   2.519 -0.1379  0.2466 -0.0640
13709W        W29603   3.845   5.486  12.382  0.0252 -0.2174  0.1632
13710W        W29604   9.652  13.983   2.758 -0.0382 -0.2652  0.0509
13711W        W29605   8.027  17.388   2.475  0.0474  0.0555 -0.0638
13712W        W29606   4.812  14.171   5.103  0.2735 -0.1477  0.0573
13713W        W29607  13.122  15.716  13.695 -0.1428  0.3032 -0.1413
13714W        W29608   0.022   3.918   2.406 -0.3944 -0.1872  0.1736
13715W        W29609   2.113  15.733   4.326 -0.0930 -0.0277 -0.1262
13716W        W29610  14.472  16.729  14.955 -0.1188 -0.2082  0.2764
13717W        W29611  12.932   8.192   5.210 -0.0339  0.1147 -0.0244
13718W        W29612  16.486   4.094  12.161 -0.1228 -0.1031 -0.6514
13719W        W29613  15.532  15.584  14.381  0.0964  0.0370  0.0365
13720W        W29614  14.440  16.173   3.854 -0.1911  0.1021  0.4965
13721W        W29615   2.910  11.901   4.436  0.1714  0.2199  0.2040
13722W        W29616   6.895   2.542  11.285 -0.0043  0.2034  0.2051
13723W        W29617  13.311   2.483   1.930  0.1767  0.0615 -0.1610
13724W        W29618  10.870  13.521  11.770  0.2208  0.0252 -0.1469
13725W        W29619  12.692   4.749   1.593  0.1226  0.3040 -0.1335
13726W        W29620   3.558  13.875  15.574  0.1988 -0.2715  0.1344
13727W        W29621   6.565   1.652   3.190 -0.1967 -0.1996  0.2886
13728W        W29622  15.729   2.255  12.984 -0.0570 -0.1106 -0.0609
13729W        W29623   1.851   7.016  15.290  0.0308 -0.3785  0.0814
13730W        W29624  11.877  15.155   1.385 -0.0004 -0.1141 -0.0044
13731W        W29625  10.159  15.764  13.411 -0.0961 -0.2467 -0.1243
13732W        W29626  17.799   4.210   3.236  0.0610 -0.2690  0.0242
13733W        W29627   5.050  17.623   4.167 -0.2097 -0.0466 -0.1062
13734W        W29628  11.673  12.193  13.232  0.0683 -0.2859 -0.1194
13735W        W29629  12.847  10.783  13.320 -0.0841  0.0948  0.0870
13736W        W29630  11.089  15.786  14.320  0.1194 -0.1021  0.0683
13737W        W29631  18.105  15.241   4.565 -0.0904  0.0962 -0.0766
13738W        W29632  12.897  13.688  14.283  0.0258  0.0550 -0.2189
13739W        W29633  10.988  17.861   3.065 -0.3301 -0.1272  0.0434
13740W        W29634  14.004  16.966   0.987  0.0909 -0.0399 -0.1917
13741W        W29635   5.722  14.021  11.569 -0.1751 -0.2881  0.4665
13742W        W29636   4.617   8.936   4.179 -0.0869  0.0301 -0.1246
13743W        W29637  12.710  14.733  15.615  0.0960  0.0960 -0.1690
13744W        W29638   7.283   5.255  11.397 -0.1729  0.0268 -0.1814
13745W        W29639   0.174   1.536   4.123  0.4442  0.1176  0.1513
13746W        W29640   9.487  15.573  12.884 -0.2703  0.1537 -0.1495
13747W        W29641  12.955   2.074  14.448 -0.1876 -0.1754  0.0956
13748W        W29642  10.613   1.784  15.468 -0.0115  0.0337 -0.2178
13749W        W29643  15.337   4.567   5.891 -0.0402 -0.1000  0.0925
13750W        W29644   4.291   4.633  12.602  0.0471  0.1444  0.5720
13751W        W29645  13.486  13.858  13.887  0.2094  0.1175 -0.1983
13752W        W29646  16.375   5.541   0.427  0.0127 -0.1925  0.1568
13753W        W29647   2.251   7.797  15.254 -0.2310 -0.0691  0.0483
13754W        W29648  18.180  17.584  11.358 -0.1269  0.1215 -0.2132
13755W        W29649   2.830  10.924   1.459 -0.2777 -0.1319  0.0975
13756W        W29650  17.806  16.234  11.498 -0.2066 -0.0463 -0.1830
13757W        W29651   1.544   4.026   1.425  0.2715 -0.1202 -0.0303
13758W        W29652  13.829   8.342   3.349 -0.3893 -0.1908  0.3411
13759W        W29653  17.771  11.610  14.998  0.2661 -0.0102  0.1922
13760W        W29654   9.451  16.702  11.349  0.2024 -0.1162  0.2071
13761W        W29655   9.889  14.116  14.688 -0.1353 -0.0546  0.0047
13762W        W29656  10.649   1.491  12.249 -0.1967 -0.0874  0.2431
13763W        W29657  17.721  17.361  12.266  0.0474 -0.0292  0.0095
13764W        W29658   8.573  13.406  12.353  0.1334  0.0897 -0.0407
13765W        W29659   2.194   1.442  11.679  0.1071  0.1529 -0.2733
13766W        W29660   0.475  10.463   0.334 -0.1222  0.1810  0.1302
13767W        W29661   3.985   5.861  13.292  0.2100  0.1281  0.1702
13768W        W29662   2.522   2.365  12.088 -0.0244  0.1142 -0.2118
13769W        W29663   6.323   5.739   3.839 -0.2672 -0.0984  0.1499
13770W        W29664   8.993   5.518   2.340  0.0821  0.1094 -0.1508
13771W        W29665  15.471  12.532   1.257 -0.0226 -0.2965 -0.0012
13772W        W29666  12.211   6.219  15.473 -0.0938  0.1711 -0.0218
13773W        W29667   3.857  15.164   2.317 -0.1839 -0.3749  0.2168
13774W        W29668   2.970  16.169   2.237 -0.0894  0.1297 -0.1138
13775W        W29669   0.238  11.789   5.199  0.1708 -0.0496  0.2503
13776W        W29670   9.822  13.361   4.972 -0.0287  0.2184  0.1945
13777W        W29671  12.389  14.933   2.602 -0.0386  0.0847  0.1776
13778W        W29672  16.134   5.852  15.036 -0.0123 -0.1204 -0.1095
13779W        W29673   0.238   4.450  12.788  0.0943 -0.0700  0.0406
13780W        W29674   9.153  17.501  11.430  0.1617 -0.0785  0.0564
13781W        W29675  14.707   1.933   1.349 -0.0799 -0.3108  0.1955
13782W        W29676   4.079  16.553   1.352 -0.0157  0.0207 -0.0744
13783W        W29677   0.793  13.096   2.059  0.0389  0.2374 -0.0013
13784W        W29678  15.652   1.826   0.814  0.1415 -0.2256 -0.2439
13785W        W29679   2.765  14.857   2.999  0.1631 -0.0742 -0.1943
13786W        W29680  14.925   8.421  12.789  0.0155 -0.0195  0.4145
13787W        W29681  13.699   5.105  13.449  0.0618  0.0802  0.0822
13788W        W29682   9.325   1.800  16.415  0.1002  0.2463 -0.0539
13789W        W29683   2.835   8.155  13.865 -0.2548  0.0986 -0.0169
13790W        W29684  13.658   2.849   1.916  0.2166  0.1833 -0.1248
13791W        W29685   8.877   5.482   5.158 -0.0316 -0.0172  0.0481
13792W        W29686   0.443  11.709  16.334  0.0259  0.0641  0.1641
13793W        W29687   1.899   7.910   0.140 -0.1146 -0.0679 -0.0427
13794W        W29688   0.201  12.910   4.507  0.2916 -0.1649  0.0705
13795W        W29689  10.246   7.602  12.292 -0.3379 -0.0969  0.4041
13796W        W29690   8.635   2.200  15.988  0.0676 -0.4683 -0.2368
13797W        W29691   1.677   6.575  15.135 -0.3987  0.0617 -0.3123
13798W        W29692   9.642  10.282   0.565  0.2024 -0.3612 -0.0419
13799W        W29693  11.022  10.831   3.065  0.0380  0.1877 -0.0144
13800W        W29694   2.558  17.563  14.058  0.2873 -0.1055  0.3662
13801W        W29695   2.161  18.229   0.219 -0.0078 -0.1520  0.1218
13802W        W29696   6.503  12.462   5.107 -0.2323  0.3279 -0.2304
13803W        W29697  14.805  16.536  14.015  0.1219 -0.0504 -0.0040
13804W        W29698  15.085   0.778  14.791  0.0617 -0.0738 -0.3159
13805W        W29699   8.214   9.995  11.555  0.0801 -0.0643  0.2810
13806W        W29700  16.755   3.111   2.940 -0.0341  0.1017  0.2424
13807W        W29701  17.331   6.403   3.460  0.0926 -0.0103 -0.2618
13808W        W29702   2.496   9.621  16.449 -0.1823 -0.0838  0.6530
13809W        W29703  14.914   7.130   4.383 -0.2153  0.2788  0.1378
13810W        W29704   0.297   3.943   4.602 -0.1218  0.1841  0.3300
13811W        W29705  10.401   7.331   2.839  0.0443  0.3055 -0.3196
13812W        W29706   6.263   4.525  13.594  0.1993  0.1488 -0.1205
13813W        W29707  11.418   8.558  10.767  0.0958  0.1854  0.1556
13814W        W29708  12.930   1.708   4.437  0.0870  0.2538 -0.1004
13815W        W29709  15.485  13.903  14.169 -0.0068 -0.2998 -0.2397
13816W        W29710   9.996  13.683  12.891 -0.2627 -0.1156  0.0974
13817W        W29711  14.462  18.070  12.270  0.3967  0.3096  0.1574
13818W        W29712   3.959  18.155   3.523 -0.0998  0.0308 -0.1350
13819W        W29713  17.294   7.630   2.710 -0.1976  0.1930 -0.1157
13820W        W29714   8.654   2.258   3.041  0.0488 -0.0766 -0.1516
13821W        W29715   9.468   9.712   1.188  0.0830 -0.3317 -0.0557
13822W        W29716   8.584   7.278   4.355  0.0895 -0.0942  0.0522
13823W        W29717  17.403   5.403  14.050 -0.2634  0.2161 -0.1271
13824W        W29718   0.920   2.392   0.311  0.3073 -0.1014 -0.2943
13825W        W29719  13.530   2.546  13.493  0.0446 -0.0783 -0.2011
13826W        W29720  12.115  13.423  12.791  0.0351  0.2404  0.5082
13827W        W29721   5.303   8.142   0.665 -0.3073  0.1534 -0.3473
13828W        W29722   2.743   7.739   3.398  0.0112  0.0260 -0.0032
13829W        W29723  12.684   5.444  12.506 -0.1578 -0.1058 -0.2072
13830W        W29724   7.694  16.856   2.569 -0.2926 -0.1072  0.0586
13831W        W29725   4.451  15.307  13.374 -0.0773 -0.1634 -0.1459
13832W        W29726   8.276  10.270  15.547  0.1357 -0.0828 -0.2424
13833W        W29727   9.997  15.045  11.596  0.2473  0.1412  0.0122
13834W        W29728   8.047  10.351  12.281 -0.3986  0.0650 -0.4970
13835W        W29729  15.486   1.225   2.025  0.1266 -0.3049  0.1292
13836W        W29730  13.709  15.533  15.291 -0.2530 -0.1682 -0.0633
13837W        W29731   2.363  11.622   3.703 -0.1174 -0.2805  0.0014
13838W        W29732  14.241  10.234   4.782 -0.1552 -0.1260 -0.1276
13839W        W29733  16.752  12.485  14.294  0.2242 -0.3050  0.3360
13840W        W29734  16.359  17.537   5.407  0.2500  0.2679 -0.0372
13841W        W29735   2.168   6.680   2.852 -0.1920 -0.1892 -0.0139
13842W        W29736   4.313  14.519  14.774 -0.3232  0.2473  0.0189
13843W        W29737  13.311   1.615  15.249 -0.0999 -0.0811  0.0920
13844W        W29738  10.429  18.126   0.932 -0.0403  0.1386 -0.0793
13845W        W29739  14.834   0.832   2.972  0.4019 -0.1071 -0.0711
13846W        W29740  12.525   2.223  14.268 -0.0627  0.1249 -0.1836
13847W        W29741  15.878   4.652  13.035  0.1161 -0.1826  0.0023
13848W        W29742  15.989   6.529   5.715  0.2084 -0.3581  0.1007
13849W        W29743   2.337   3.685  14.230 -0.0724 -0.2168 -0.0036
13850W        W29744  14.882  10.980   2.871 -0.1638 -0.0671  0.1328
13851W        W29745   0.881   0.929   3.240  0.1400  0.1651 -0.2519
13852W        W29746   9.721  16.840   5.592  0.0181  0.1512  0.1030
13853W        W29747   1.842   8.608  14.684 -0.2179 -0.2432  0.0926
13854W        W29748   8.217   5.421  16.009 -0.0390  0.0877 -0.1510
13855W        W29749   0.658  12.829   1.026  0.0239 -0.0037 -0.2281
13856W        W29750   0.857   9.682   3.372 -0.1246 -0.0821 -0.3028
13857W        W29751  16.669   2.676  13.683 -0.1300 -0.0242  0.1623
13858W        W29752   6.232  11.705  11.732 -0.0479  0.1184  0.1669
13859W        W29753   4.821   3.183   3.768 -0.1828 -0.0875  0.1522
13860W        W29754   6.693   1.180   2.288  0.1846 -0.1284  0.0811
13861W        W29755   5.996   0.085  10.900  0.0653  0.1369 -0.0010
13862W        W29756  13.068   6.481  15.258  0.0805  0.4708  0.0992
13863W        W29757  15.247  14.106  15.443  0.1444  0.0438 -0.1507
13864W        W29758  16.152  13.079   4.639 -0.0634  0.0794 -0.1780
13865W        W29759  11.719  12.943  14.847 -0.3491  0.0239 -0.0793
13866W        W29760  12.784   0.562   4.133 -0.2765  0.1318 -0.1814
13867W        W29761   9.680   4.608  16.370 -0.1314  0.3464  0.3955
13868W        W29762   7.492   0.399  15.783 -0.0860 -0.4426 -0.0418
13869W        W29763  12.776  14.394  12.772  0.0861  0.1716  0.0483
13870W        W29764  13.364   2.267  12.754 -0.0057 -0.2196  0.2044
13871W        W29765  12.754   8.119  11.755  0.0030 -0.1759 -0.0097
13872W        W29766   4.853  10.013  13.593 -0.1591  0.3214 -0.0332
13873W        W29767   2.245  13.480   2.150  0.1913 -0.0793 -0.0440
13874W        W29768   2.909   9.832   2.109 -0.1736  0.0728 -0.0775
13875W        W29769   3.357  14.033   3.845 -0.0556  0.0054  0.2768
13876W        W29770   0.167   8.162   4.681  0.4017 -0.1840  0.1313
13877W        W29771   3.445  10.792  12.251  0.2351  0.1495  0.0940
13878W        W29772   3.354  12.758  16.393  0.1137  0.0308  0.0692
13879W        W29773  12.617  12.896   1.446  0.1671  0.0732  0.1041
13880W        W29774  14.159  16.185   5.596 -0.1118 -0.0658 -0.1323
13881W        W29775   4.453  11.207  11.724 -0.0435  0.1233  0.0454
13882W        W29776  10.852  13.406   1.546  0.0497 -0.1333 -0.1606
13883W        W29777  13.357  15.483   0.788 -0.2654 -0.1535  0.2336
13884W        W29778   4.179   2.000  15.530 -0.0017  0.0331 -0.2137
13885W        W29779  12.484  14.838   1.755 -0.0385  0.0286  0.0078
13886W        W29780   6.098  11.737   2.246 -0.0067  0.1162  0.1129
13887W        W29781  17.187  11.743  15.777 -0.0957  0.0400 -0.1962
13888W        W29782  13.084  13.098   0.194 -0.2498 -0.1078 -0.3154
13889W        W29783  12.682  15.308  12.100  0.0042 -0.2443 -0.0464
13890W        W29784  13.393  17.060   2.610 -0.0382  0.1935 -0.1393
13891W        W29785   4.099  10.532   0.330  0.0392  0.0747 -0.1167
13892W        W29786  16.043  11.505   0.179 -0.0969 -0.1944  0.1137
13893W        W29787   0.848   6.398   3.032  0.0677  0.0244 -0.4214
13894W        W29788   9.589   4.708  11.490 -0.1736 -0.0328 -0.2546
13895W        W29789   0.626   2.157   6.047  0.0538 -0.1177 -0.0374
13896W        W29790   6.114  12.813  12.603 -0.1354  0.0369  0.1661
13897W        W29791  11.479   0.722   2.680 -0.0074  0.0786  0.1250
13898W        W29792  17.507   0.397  11.326 -0.1957  0.1843 -0.0048
13899W        W29793  12.700   6.777  12.149  0.2178 -0.1125 -0.0350
13900W        W29794   9.724   4.402  11.158  0.0057  0.2043 -0.0153
13901W        W29795   8.534   7.956   2.983  0.3380  0.0793 -0.1355
13902W        W29796   9.799  15.385  12.522 -0.0273  0.2273  0.0998
13903W        W29797  14.199   2.970   5.811 -0.1110  0.0482 -0.1259
13904W        W29798  17.928   6.901  11.567 -0.1777 -0.0367  0.0357
13905W        W29799   3.837  15.307  13.234 -0.1055 -0.0468 -0.0901
13906W        W29800  14.821   0.487  11.549 -0.0875  0.0896 -0.1721
13907W        W29801   5.562   0.073   1.348 -0.2124  0.0102  0.2858
13908W        W29802   9.243  10.407   4.015  0.0845 -0.1084 -0.2872
13909W        W29803   1.675  11.048   3.363 -0.3353 -0.0187  0.1047
13910W        W29804   5.050   0.886  13.248  0.0238  0.1758  0.2869
13911W        W29805   2.746  13.664   1.486  0.1012  0.0496 -0.2406
13912W        W29806  11.122  14.673  13.597  0.2866  0.0970  0.0068
13913W        W29807   7.254   1.439  12.247  0.1562  0.3543 -0.2087
13914W        W29808  14.761   9.341  12.112  0.2291 -0.0692  0.0667
13915W        W29809  13.423   0.240   5.094  0.0072  0.0585  0.0060
13916W        W29810   9.716   1.823  10.075 -0.0777 -0.1834 -0.1766
13917W        W29811   7.754   6.366   3.627 -0.0200  0.0453 -0.1597
13918W        W29812   3.048  11.203   5.207  0.0074 -0.1037 -0.0580
13919W        W29813   3.667  14.516   4.763 -0.1068  0.3947  0.2520
13920W        W29814  17.025  15.592  14.599 -0.1606 -0.0387  0.0476
13921W        W29815  12.680   3.616   4.728 -0.0686 -0.1462  0.1867
13922W        W29816  11.784   1.717   3.332 -0.1641  0.1386 -0.0078
13923W        W29817   3.641  11.524  15.882 -0.1334 -0.3016  0.0106
13924W        W29818   0.617  16.611  15.444  0.2466  0.1021  0.1369
13925W        W29819  17.359  14.568  15.914  0.0515  0.0203  0.0911
13926W        W29820  17.270  13.553  16.343  0.0429 -0.0448  0.0312
13927W        W29821   2.826   8.834   1.622  0.0543  0.2299 -0.5944
13928W        W29822   4.505   3.728   0.816 -0.0228 -0.2323  0.0650
13929W        W29823   6.859   0.064   3.056 -0.2448  0.1279  0.0492
13930W        W29824  12.258   6.143   0.373  0.1669 -0.0691 -0.0291
13931W        W29825  17.918  18.054   1.082 -0.1300 -0.2312  0.1338
13932W        W29826   5.359   3.805   6.073  0.1837 -0.0839 -0.1548
13933W        W29827   9.402  16.272  15.322 -0.1478 -0.4581  0.1075
13934W        W29828   5.599   3.194  11.281 -0.3587  0.0629  0.0266
13935W        W29829   8.045   1.347   1.655 -0.4430  0.2676 -0.3197
13936W        W29830   8.182   4.810  13.655  0.0186 -0.1134 -0.3746
13937W        W29831   2.939   7.723  10.496 -0.2680  0.1715 -0.2187
13938W        W29832  12.576   9.585  13.591 -0.1698 -0.0983 -0.1123
13939W        W29833   8.720  10.900   0.975  0.1248 -0.0219  0.0154
13940W        W29834   6.443   6.621  15.151 -0.0835  0.0227 -0.1937
13941W        W29835  11.097   9.546   2.118  0.1994  0.3071 -0.1505
13942W        W29836   0.901   0.129  11.945 -0.2813  0.1043  0.1570
13943W        W29837  15.026   3.605  12.801 -0.0586  0.3187  0.2522
13944W        W29838  11.459   4.647  16.025 -0.1765  0.1813  0.2188
13945W        W29839  15.735  13.199  13.554  0.1907  0.3485  0.0147
13946W        W29840  15.269   3.250  14.773 -0.2928 -0.3281 -0.0767
13947W        W29841   0.883   1.724   0.722  0.5466 -0.2064  0.3169
13948W        W29842  18.224   2.633   0.960  0.1097 -0.0048  0.1256
13949W        W29843   4.594  17.687   1.874 -0.1305  0.0438  0.1981
13950W        W29844  18.068  18.117  16.141 -0.0329  0.0955 -0.2426
13951W        W29845  13.991  17.787  16.266  0.1220  0.3209 -0.2014
13952W        W29846   6.909  14.690   4.965  0.1728  0.1652 -0.0260
13953W        W29847  18.082  15.146  11.340 -0.1513  0.3442  0.0613
13954W        W29848  17.237  14.002   4.481  0.0616 -0.2750 -0.0785
13955W        W29849   5.790  16.109   3.428  0.0278  0.2951  0.1972
13956W        W29850   4.114   0.842   2.153  0.0821 -0.4081  0.1233
13957W        W29851   4.424   7.060   4.125  0.2353 -0.0218 -0.0755
13958W        W29852  10.299   2.728  14.556  0.0258  0.0860  0.0304
13959W        W29853  14.740   7.237   5.846 -0.0884  0.3661 -0.0744
13960W        W29854  15.166   1.829   1.087  0.0871 -0.1934 -0.1520
13961W        W29855   4.089  12.543   2.910 -0.1125  0.1735 -0.0128
13962W        W29856   4.532   7.749   2.535 -0.1631  0.1975 -0.0272
13963W        W29857   7.456  13.241  13.168 -0.2646 -0.0981 -0.3542
13964W        W29858   8.204   8.373   3.064 -0.1996 -0.0650  0.0474
13965W        W29859   7.374  11.491   4.144  0.1211 -0.1156 -0.1067
13966W        W29860  14.100   3.358   5.475 -0.1691  0.0607  0.0911
13967W        W29861   0.762  10.846  14.545 -0.2531  0.1363 -0.0213
13968W        W29862   8.216   3.236  16.165  0.0817 -0.0688 -0.1671
13969W        W29863  11.678  15.707   4.332  0.2362  0.0060  0.0158
13970W        W29864  11.500  11.207  13.926  0.2359  0.0697  0.3024
13971W        W29865   3.136   2.531  16.249  0.4437 -0.0631  0.1875
13972W        W29866   0.203   5.090   4.059  0.0295  0.3048 -0.0605
13973W        W29867   1.358   8.765   4.521  0.1375  0.2701  0.0064
13974W        W29868   6.643  15.880   0.900 -0.0940 -0.1980  0.0370
13975W        W29869  12.272  11.622   4.403 -0.0150  0.1220  0.0539
13976W        W29870  15.019   9.600   4.700 -0.0133 -0.2838 -0.2273
13977W        W29871   8.304   4.470   1.582  0.0025  0.1625  0.0878
13978W        W29872   0.413   5.005   5.003  0.0017 -0.2180 -0.1920
13979W        W29873   5.187   2.536  12.786 -0.1294 -0.0577  0.0641
13980W        W29874  17.981   7.666  16.350 -0.0056  0.1318 -0.4263
13981W        W29875   7.274  16.040  14.850  0.8818  0.0129 -0.0277
13982W        W29876  12.002  10.901  16.419  0.0568 -0.2154 -0.3357
13983W        W29877  16.392   7.934  11.927  0.4135  0.0415 -0.0918
13984W        W29878  13.800   7.732  16.081 -0.1484  0.0412 -0.2813
13985W        W29879   4.333   9.038   2.282 -0.4422  0.2186 -0.3036
13986W        W29880  16.965   6.698   2.775 -0.0436  0.1591 -0.1091
13987W        W29881  10.730   5.018   3.612  0.1475 -0.0393 -0.1193
13988W        W29882   6.986   8.662  15.708 -0.1028 -0.2800 -0.2915
13989W        W29883  17.085   6.599  11.608 -0.1718  0.3114  0.1371
13990W        W29884   7.724  15.489  11.997  0.0406  0.1118  0.1410
13991W        W29885   5.386   6.670  12.110  0.2641  0.1007 -0.2427
13992W        W29886   1.904   2.789  12.377 -0.0772  0.2947  0.0724
13993W        W29887   4.076   6.270  14.462  0.1712  0.1515 -0.1063
13994W        W29888   2.420   9.270   5.360  0.0737 -0.2484 -0.0405
13995W        W29889  17.994   3.099   1.180 -0.2078  0.1627  0.0030
13996W        W29890  13.351  10.582  14.190  0.1032 -0.0973 -0.2376
13997W        W29891  14.742   7.475  12.635 -0.1785  0.0045  0.0302
13998W        W29892   1.425   3.146   6.121 -0.4629 -0.1624  0.1609
13999W        W29893   2.279  10.645  16.067  0.1471 -0.0507 -0.0242
14000W        W29894   8.294  13.189  15.614 -0.2918  0.2940 -0.0459
14001W        W29895  10.845  15.804   4.690 -0.0440  0.3027  0.2774
14002W        W29896  11.562   3.689   3.856  0.1570  0.1245  0.2431
14003W        W29897  17.393   0.405  14.473 -0.0811  0.1792 -0.3397
14004W        W29898   0.515   0.090   4.678  0.2538 -0.0750  0.1194
14005W        W29899   9.423   4.022   2.471  0.0366  0.0672  0.1150
14006W        W29900  14.621   8.033  15.464 -0.0564 -0.1078  0.1321
14007W        W29901   9.623  11.846   0.722  0.1017 -0.1756 -0.0845
14008W        W29902   5.698   6.493  14.100  0.0080 -0.3267  0.0591
14009W        W29903   3.573   5.680   0.848 -0.0555  0.0075 -0.0024
14010W        W29904   9.777   3.589   0.053 -0.2405 -0.3863  0.0445
14011W        W29905  13.947  14.240   1.284  0.4123 -0.3648 -0.3166
14012W        W29906   3.908   3.988   2.523 -0.0295  0.0338 -0.2538
14013W        W29907  17.229  13.819  13.848 -0.4338  0.1102 -0.1252
14014W        W29908   4.366  13.763  15.881  0.2227  0.3449 -0.0942
14015W        W29909  11.469   5.129  16.021  0.1105 -0.0117 -0.0941
14016W        W29910  15.637   9.435   0.192  0.0936  0.1357 -0.1155
14017W        W29911  11.400   5.794  13.070 -0.1879 -0.2966 -0.0722
14018W        W29912  14.181   4.383  13.829 -0.0818  0.3740  0.2133
14019W        W29913  13.989   3.596  13.628 -0.0050 -0.2321  0.0517
14020W        W29914   8.415   1.203   3.463 -0.1156  0.3664  0.0080
14021W        W29915  14.822   7.596  13.215 -0.2218  0.4646 -0.2346
14022W        W29916  10.973   6.996   0.120 -0.0434  0.0551  0.2179
14023W        W29917   3.952   5.804   5.017  0.0959  0.0689 -0.0126
14024W        W29918  10.580  13.699   2.855 -0.2008  0.2504  0.1486
14025W        W29919   0.087   4.468   4.844 -0.0470  0.0973 -0.0920
14026W        W29920  10.295   4.319  11.240 -0.1321  0.1004  0.2155
14027W        W29921  12.818   3.975   1.091 -0.0114 -0.1571  0.1799
14028W        W29922   1.252   2.005  13.413  0.5298 -0.3697 -0.0723
14029W        W29923   1.845   0.832  13.697 -0.0490  0.3922 -0.1413
14030W        W29924   0.242   0.276   5.983  0.3439 -0.0137  0.3195
14031W        W29925  12.855   4.012   3.374  0.4933  0.0271 -0.1079
14032W        W29926   0.664   7.615  14.728  0.2152  0.1065  0.1101
14033W        W29927  16.015   9.658  12.484 -0.1906 -0.1209 -0.0971
14034W        W29928   2.465  12.625  12.177  0.2604 -0.1644 -0.1390
14035W        W29929   8.076  12.742   3.522 -0.5017  0.1633 -0.1520
14036W        W29930   3.329  13.066  14.317 -0.1704  0.4760 -0.1988
14037W        W29931  15.880   6.042   5.320 -0.1709 -0.0896 -0.1123
14038W        W29932  13.811  11.287  14.913 -0.0350 -0.0490 -0.3024
14039W        W29933  10.458   2.824   2.742 -0.4271 -0.0649 -0.3045
14040W        W29934   2.917   4.057   5.200 -0.3534 -0.1846 -0.2404
14041W        W29935   6.354   9.128  16.136  0.0399  0.3517 -0.0513
14042W        W29936  18.181   2.661  12.522  0.0357  0.1099 -0.0619
14043W        W29937   8.655  14.987  11.383 -0.0636 -0.2895 -0.2005
14044W        W29938  10.548   7.297   1.878  0.4047  0.3270 -0.0423
14045W        W29939   5.589   2.890  10.102 -0.1142 -0.0615 -0.0603
14046W        W29940   1.672   8.980   1.646  0.0400 -0.1883  0.0364
14047W        W29941   3.979   5.055   2.507  0.1330 -0.1816  0.1299
14048W        W29942  14.801   6.227   2.849 -0.1616 -0.0825 -0.1290
14049W        W29943  13.102  11.129   5.311 -0.0476 -0.2553 -0.0785
14050W        W29944  16.262   1.382  16.096  0.2057 -0.1045 -0.2942
14051W        W29945   5.485   7.349   1.558 -0.0488  0.1055  0.0686
14052W        W29946  15.107  10.768  12.207 -0.1109 -0.0663 -0.1187
14053W        W29947  10.508  12.088  13.609  0.0204  0.0130  0.2482
14054W        W29948   9.347  12.266   0.047 -0.2997  0.1760 -0.0686
14055W        W29949   7.179   4.675   3.022  0.0731 -0.0546  0.1262
14056W        W29950  11.693   3.525  14.616 -0.1325  0.0672 -0.1594
14057W        W29951   0.240  12.988  13.884  0.0154  0.2344 -0.1071
14058W        W29952   6.341   1.507   3.956 -0.0916  0.0073 -0.1143
14059W        W29953   1.405  16.061   1.662  0.1204  0.1494 -0.1085
14060W        W29954   0.287  10.875  14.789  0.1294  0.3780 -0.1353
14061W        W29955   7.330  18.171  15.243  0.1835  0.2361 -0.1837
14062W        W29956   1.958   5.613   4.344  0.1139  0.1984 -0.2649
14063W        W29957   0.607   8.494  13.105  0.0780 -0.3681  0.1281
14064W        W29958   6.445  12.343   2.811  0.1251 -0.0804 -0.1845
14065W        W29959   3.200   3.067   4.237  0.2165 -0.1191  0.2495
14066W        W29960  10.461   6.542  11.349  0.0933  0.2676  0.0652
14067W        W29961   9.500   3.199   2.929  0.1324 -0.0835 -0.1038
14068W        W29962   9.042  13.210   3.759  0.0610  0.1806 -0.0348
14069W        W29963   6.770   1.214  15.407  0.2952 -0.1027 -0.0058
14070W        W29964  15.316  15.490   4.457 -0.0266  0.2800 -0.1692
14071W        W29965  12.069  15.644   2.420  0.2660  0.0141 -0.0131
14072W        W29966   7.048   4.225   2.928 -0.0265  0.1571 -0.1608
14073W        W29967   1.709  11.221   4.286 -0.0648  0.2246  0.5886
14074W        W29968   7.678   5.046  13.834  0.3964 -0.0785 -0.0770
14075W        W29969  17.944   4.753  14.369 -0.1210 -0.2365 -0.2629
14076W        W29970   9.932   2.649   5.308  0.0004  0.3717 -0.1551
14077W        W29971  16.730  17.306   1.907 -0.3359 -0.0634 -0.1813
14078W        W29972   5.147  10.980  12.200 -0.0394  0.1854 -0.1774
14079W        W29973  13.859  15.537  14.209 -0.3807  0.0875 -0.0389
14080W        W29974  13.639  14.754   0.415 -0.2695  0.1053 -0.1865
14081W        W29975  16.356   9.640   6.320 -0.0208  0.0046  0.1214
14082W        W29976   6.601   5.302  12.129 -0.1531  0.1816  0.2691
14083W        W29977   9.247   5.251   1.264  0.1428 -0.3577  0.2238
14084W        W29978  13.380  13.272  14.488 -0.0191 -0.0070  0.1507
14085W        W29979   8.378  14.153   0.650 -0.0007  0.1001 -0.1341
14086W        W29980   5.499   5.317   0.240 -0.2339  0.0633  0.3033
14087W        W29981  12.450   1.505  12.503  0.1808  0.1302  0.1415
14088W        W29982   1.735  17.334   4.931  0.0585 -0.1150 -0.0631
14089W        W29983  10.263   8.408  14.622 -0.1320  0.3056 -0.3156
14090W        W29984   5.237  16.452  11.413 -0.0862 -0.1328 -0.3959
14091W        W29985   8.896  12.450  16.232 -0.0328  0.0117 -0.0872
14092W        W29986   5.321  16.331   1.980 -0.0248  0.2573 -0.2647
14093W        W29987  14.272   6.386   1.919 -0.1740  0.1354  0.2334
14094W        W29988  14.531  17.506  14.441 -0.0920  0.0905 -0.0537
14095W        W29989   7.009  11.598  12.839  0.1056  0.0653 -0.1298
14096W        W29990  17.781  13.663   3.204  0.1132  0.0868 -0.1510
14097W        W29991  15.766   6.144  11.653 -0.0350 -0.1164 -0.0513
14098W        W29992   8.658  11.487  12.077  0.2974  0.1777 -0.2671
14099W        W29993  15.340  16.076  15.965 -0.0426 -0.2322 -0.3100
14100W        W29994   3.615   9.937   4.121 -0.1101 -0.1298 -0.2035
14101W        W29995   7.476   8.279  13.005 -0.0545 -0.0332  0.2682
14102W        W29996  16.982   6.931  12.965  0.2559 -0.1060  0.1570
14103W        W29997   0.570   8.308  12.372 -0.2180 -0.0147 -0.2583
14104W        W29998   7.509   3.341   4.062 -0.0132 -0.1115  0.0938
14105W        W29999   5.099  11.160  12.812  0.2295 -0.0021  0.3154
14106W        W30000  12.903   1.273   2.425  0.1612 -0.2334  0.2146
14107W        W30001   5.744  12.889   0.153 -0.0874 -0.0119 -0.0673
14108W        W30002   3.403  13.298  13.819  0.2638 -0.4090 -0.0271
14109W        W30003   8.183   2.374   1.277  0.0804 -0.2463 -0.0516
14110W        W30004   2.893   7.042   3.706 -0.3337  0.2352  0.1515
14111W        W30005   9.719   6.850   4.837  0.2679  0.2342  0.0765
14112W        W30006  15.469   7.570  15.980  0.0255  0.0791  0.3479
14113W        W30007   6.973   8.359  13.390  0.2590  0.0304  0.1554
14114W        W30008  17.588  17.818   2.094  0.4775  0.0235  0.1127
14115W        W30009   0.323  13.619  16.401  0.2705 -0.2395  0.0054
14116W        W30010   2.304   2.619   0.248  0.0831 -0.2482  0.0547
14117W        W30011  15.920  11.784   4.391 -0.0925 -0.0282  0.0601
14118W        W30012   6.666  11.140   4.971 -0.1411  0.4222  0.2477
14119W        W30013   6.930   5.179  16.293  0.1621 -0.3566 -0.0792
14120W        W30014   7.986   8.111   2.081 -0.2359 -0.3414  0.0493
14121W        W30015   4.710   5.492   3.145 -0.1562 -0.3854  0.1369
14122W        W30016  14.359   9.898   2.302 -0.1204  0.0160  0.0631
14123W        W30017  16.971   0.798   5.138  0.2027  0.4796  0.0597
14124W        W30018  14.271  14.288  11.854 -0.1781  0.1904 -0.0363
14125W        W30019  16.996   5.162   5.569  0.3568  0.0777  0.1087
14126W        W30020  16.675  14.347  13.730  0.2862  0.1340 -0.0286
14127W        W30021   2.013   7.100  13.993 -0.3032  0.1449 -0.3348
14128W        W30022   1.537  16.718   4.375  0.1832 -0.1693  0.1486
14129W        W30023  11.812  10.994   6.014 -0.1876  0.0121  0.0626
14130W        W30024   0.021  18.107  13.462  0.0635  0.0783 -0.3315
14131W        W30025  10.016  14.742   3.545  0.2190  0.2453 -0.0614
14132W        W30026  16.506  11.967   1.914 -0.1123  0.0415 -0.0161
14133W        W30027  11.805  10.708   0.352 -0.0950 -0.1579  0.0862
14134W        W30028   2.381   9.462  11.716  0.0503 -0.1207  0.0497
14135W        W30029   8.694  17.555   5.607 -0.4000 -0.0078 -0.3317
14136W        W30030   0.506   9.724   5.677 -0.2372 -0.0073 -0.1604
14137W        W30031   6.692  11.603  12.072  0.1288  0.1026  0.0430
14138W        W30032  13.902  13.089  15.567  0.2145  0.2828  0.4381
14139W        W30033  18.010  11.461  12.555 -0.0717  0.3257  0.2023
14140W        W30034  10.564   6.751   9.896  0.2062 -0.1236 -0.0859
14141W        W30035  12.163   8.125  14.258  0.1691  0.3272  0.1914
14142W        W30036  16.939   8.752  15.649 -0.1819 -0.0591 -0.0639
14143W        W30037   0.506  11.312   3.364  0.0597 -0.1302  0.0411
14144W        W30038  17.027  11.532  13.097  0.0296 -0.0656  0.1551
14145W        W30039  10.565   0.817  15.785  0.0069 -0.1659 -0.1237
14146W        W30040   9.376  14.694  15.298  0.0289 -0.2292 -0.0677
14147W        W30041  15.684  10.969  12.342 -0.1210  0.3796  0.2983
14148W        W30042  13.229  10.628   2.978 -0.1414 -0.1567 -0.0382
14149W        W30043   5.871   7.066  14.279 -0.0773 -0.2914  0.0230
14150W        W30044   8.450   4.810  12.448  0.0796 -0.1819 -0.0545
14151W        W30045   3.989  13.718  13.984  0.0758  0.0217  0.0102
14152W        W30046  13.181  15.223  13.497 -0.0208  0.0997  0.1627
14153W        W30047   0.086  11.273  12.188 -0.1181  0.0998 -0.1292
14154W        W30048   4.011  11.991  16.063  0.1504 -0.2118  0.2364
14155W        W30049  14.068  12.483  11.961 -0.0917 -0.0408 -0.1096
14156W        W30050   0.049  11.385   4.204 -0.0830  0.1179 -0.0036
14157W        W30051   4.868   8.078   0.997  0.3692  0.0613  0.0741
14158W        W30052   7.203  10.216   5.191  0.1573 -0.0117  0.1325
14159W        W30053   0.706   4.491  11.879  0.3280  0.0103  0.1134
14160W        W30054  11.149  14.099   4.313 -0.0329  0.3917 -0.3157
14161W        W30055  11.944  14.604   4.478  0.2492  0.0032 -0.1442
14162W        W30056   3.048   0.296   2.697 -0.2927 -0.2518 -0.1210
14163W        W30057   2.336  16.971   4.408 -0.0960  0.0185 -0.3927
14164W        W30058   3.707   1.949  15.892 -0.0493 -0.0999 -0.3485
14165W        W30059   2.602   5.178  14.430  0.3789  0.2163  0.0737
14166W        W30060  10.321   9.734  11.420 -0.1848 -0.1292  0.1109
14167W        W30061   3.775   5.341  15.101  0.0406  0.0358  0.0614
14168W        W30062   0.067   3.351  15.944 -0.0986 -0.2932 -0.2988
14169W        W30063   2.369  13.810  15.794  0.0670  0.1539  0.0145
14170W        W30064  16.459   5.141  12.295  0.0997 -0.1092 -0.2512
14171W        W30065  16.137   1.694   0.981  0.3433  0.0660  0.1430
14172W        W30066   1.117   0.962   0.058 -0.2201 -0.0427 -0.1459
14173W        W30067   4.372  14.295  11.508 -0.1585 -0.2125  0.0813
14174W        W30068  14.898   6.836   2.388 -0.0344 -0.1530 -0.2445
14175W        W30069  14.425  13.555  14.830 -0.1368 -0.3108 -0.0479
14176W        W30070   4.741   9.011   5.168 -0.0590  0.0244  0.0238
14177W        W30071  14.103  13.548  15.543  0.0685 -0.2375  0.1950
14178W        W30072  11.554  13.825   4.476 -0.0096  0.3280  0.2136
14179W        W30073   4.830  13.263   0.523 -0.0300  0.2085 -0.1055
14180W        W30074   9.323  16.689  13.946  0.1653  0.1411 -0.1591
14181W        W30075  14.138   1.806   3.662  0.1206 -0.0270 -0.0147
14182W        W30076  17.904   1.241   1.267  0.1681 -0.0605 -0.0893
14183W        W30077  11.686  12.896   0.423  0.0488 -0.0128  0.2347
14184W        W30078   5.686   6.917   1.682  0.2355  0.3234  0.2385
14185W        W30079  15.691  11.887   3.956 -0.0118 -0.2363  0.0426
14186W        W30080   5.358   3.055  14.981  0.0209  0.2586 -0.1228
14187W        W30081   8.170  12.331  12.478  0.1468 -0.0461  0.0217
14188W        W30082  12.271   3.743  13.368  0.0988  0.3080  0.3023
14189W        W30083  12.515   1.677   6.095  0.2155  0.2090 -0.1351
14190W        W30084   7.714  12.309  15.938  0.0565 -0.0826 -0.1953
14191W        W30085   4.794   6.647  15.612 -0.0236 -0.0221  0.1651
14192W        W30086   5.364  17.102  14.241  0.1916 -0.0737  0.3834
14193W        W30087   6.021   0.161  16.295  0.1333 -0.0475  0.0913
14194W        W30088   0.502   1.739   1.602 -0.2043 -0.1117 -0.1354
14195W        W30089   1.988   4.061   1.000 -0.1125  0.2093 -0.2892
14196W        W30090  16.671   6.411   5.105  0.1914  0.0628 -0.0639
14197W        W30091   7.051   8.392   3.919  0.1027  0.2854  0.1026
14198W        W30092   3.365   9.563  13.010  0.0406  0.1771 -0.0588
14199W        W30093  17.275  16.203   3.066 -0.3901  0.1253 -0.1754
14200W        W30094   8.011   4.112   1.249  0.3221  0.0242 -0.0663
14201W        W30095   8.743  14.115   5.816 -0.0460 -0.0068  0.2165
14202W        W30096  15.920  12.918   3.450  0.1208  0.0730 -0.3008
14203W        W30097  17.986   3.410  15.498  0.4149 -0.1708 -0.1666
14204W        W30098  17.203  15.853   2.623 -0.1977  0.1990 -0.4251
14205W        W30099  13.241  17.381   3.067 -0.2640  0.0614 -0.0481
14206W        W30100  15.477  14.189   4.681 -0.0369  0.1949  0.0263
14207W        W30101   9.321  16.605   4.052 -0.1355  0.2857 -0.2646
14208W        W30102  16.269  17.091  14.488  0.2238  0.1023  0.1729
14209W        W30103  14.205  13.590  14.092  0.0897  0.2883  0.0253
14210W        W30104   9.245   5.905   4.086 -0.0068 -0.3472 -0.0162
14211W        W30105   6.655   2.024   5.773  0.0022 -0.2951 -0.0195
14212W        W30106  13.784   1.282  16.181 -0.2207  0.1347  0.1838
14213W        W30107  14.935  16.549   4.054 -0.0570 -0.0415  0.2386
14214W        W30108   9.023  10.691   6.329 -0.0144 -0.1960 -0.0854
14215W        W30109   3.664   8.368   2.225 -0.0084  0.0034 -0.2449
14216W        W30110   4.587   2.649  16.152 -0.1710 -0.1504 -0.1227
14217W        W30111  13.132   7.278  15.944  0.1273  0.0354  0.0251
14218W        W30112   3.265   5.174   1.967  0.3482  0.0545 -0.1645
14219W        W30113  10.935  13.074  14.487  0.0980 -0.0633  0.0406
14220W        W30114  11.071   5.747  12.029 -0.1118  0.3170 -0.1850
14221W        W30115  17.276   8.809  14.209  0.2682  0.1603 -0.1590
14222W        W30116  10.945  12.518  11.834 -0.2579  0.1235 -0.1076
14223W        W30117   3.713   3.650  15.353  0.1896 -0.0823  0.1583
14224W        W30118  15.531   9.053   2.009 -0.1930  0.2442  0.3227
14225W        W30119   1.501  15.352  13.045 -0.0598  0.0926 -0.1566
14226W        W30120   3.073   7.092   2.446  0.0288  0.1566  0.0957
14227W        W30121   6.543   7.561   3.773  0.1431  0.1812 -0.2098
14228W        W30122   2.765   7.215   5.194 -0.1007 -0.0680  0.0939
14229W        W30123   4.615   8.019   1.461 -0.1389  0.1771  0.1277
14230W        W30124   6.640   4.161  12.824  0.0118 -0.1595 -0.0456
14231W        W30125  16.995   6.260  13.975  0.1933 -0.0633 -0.3577
14232W        W30126   8.627   3.181   3.318  0.0878  0.0413 -0.0399
14233W        W30127  15.316  12.468   0.401 -0.1316 -0.2600 -0.1295
14234W        W30128  15.295  14.543   0.166  0.1884 -0.0079  0.0086
14235W        W30129   0.434  13.178  13.358  0.4867 -0.1197 -0.1436
14236W        W30130  15.664   5.908   4.352  0.2416 -0.0469 -0.0083
14237W        W30131  11.223  16.054  13.400  0.1416 -0.0135  0.1377
14238W        W30132  14.936  16.463  15.857 -0.1520 -0.0213 -0.1359
14239W        W30133   6.812   4.280  14.171  0.0567 -0.1337 -0.0286
14240W        W30134  11.344   4.412  14.249  0.2701  0.1871 -0.0916
14241W        W30135  12.891   1.147   3.489  0.0993  0.0021  0.2073
14242W        W30136   2.152   6.553   0.280  0.0833  0.1329 -0.0041
14243W        W30137   5.249   1.552  13.443 -0.3654  0.3199 -0.0142
14244W        W30138   4.549  12.736   3.138 -0.1533  0.0490  0.2486
14245W        W30139  11.158  10.586  15.789  0.0426 -0.1402  0.0125
14246W        W30140   7.208   3.028  13.242 -0.0894  0.0270 -0.2303
14247W        W30141   4.502   2.142   2.710  0.1006 -0.0932  0.1573
14248W        W30142  17.161   0.764   1.672 -0.3522  0.3655 -0.2375
14249W        W30143   8.184   0.814   5.097 -0.0900 -0.2144 -0.0009
14250W        W30144   7.723   1.920   5.103 -0.0017 -0.1365  0.0734
14251W        W30145  14.873   9.190   1.066  0.5032 -0.0930  0.1684
14252W        W30146   7.270   7.727  15.982  0.1290 -0.2891  0.1891
14253W        W30147  11.671  10.360  14.823  0.0346 -0.0191 -0.3695
14254W        W30148   6.803  12.853   3.607  0.0626  0.0273 -0.0106
14255W        W30149   9.365  10.896   4.215  0.1812  0.1938 -0.4137
14256W        W30150  13.822  14.596   1.608 -0.1804  0.1340  0.3099
14257W        W30151   5.791  10.479  14.826  0.2573  0.0868 -0.3405
14258W        W30152  13.956  16.143   0.638 -0.0564 -0.1996  0.3105
14259W        W30153  16.466   8.554   2.004  0.3170  0.0009  0.0102
14260W        W30154   8.253   5.995   0.323 -0.0306  0.3342 -0.2284
14261W        W30155  13.304   1.681  11.536 -0.0896  0.2984  0.1523
14262W        W30156  17.573  15.328   3.786 -0.1733  0.1633 -0.3024
14263W        W30157  13.237   8.080   4.744  0.1302  0.1141  0.5286
14264W        W30158  15.308   1.409   5.098  0.0926  0.0840 -0.1841
14265W        W30159   6.159  13.111   2.231  0.2231  0.0620 -0.1940
14266W        W30160   7.399   9.468   4.013 -0.0076  0.2162  0.4498
14267W        W30161   8.669   3.991  14.506  0.1354 -0.1417  0.3585
14268W        W30162   6.135  13.857   2.258 -0.2342 -0.0995  0.1959
14269W        W30163   5.047  15.874  14.130  0.1513 -0.0838  0.2302
14270W        W30164   9.282   8.009   0.679  0.1415  0.0912 -0.0165
14271W        W30165  13.631   9.346  13.504 -0.5356 -0.0429 -0.1430
14272W        W30166   5.314  14.302  12.179 -0.2781  0.0705  0.1782
14273W        W30167   6.153  15.895   0.763  0.0978 -0.3068 -0.1167
14274W        W30168   8.769  17.819  11.650  0.1659 -0.0958  0.0884
14275W        W30169   9.434  11.994   3.252  0.2376 -0.0854  0.0015
14276W        W30170   8.962  12.935   0.718  0.1467  0.2005 -0.3100
14277W        W30171  10.451   4.774  12.488  0.0302  0.1790  0.0085
14278W        W30172  11.069  11.640  15.190 -0.1025  0.0519  0.1795
14279W        W30173   6.891   6.773  14.086 -0.1613 -0.3121 -0.0455
14280W        W30174   4.999   6.097   4.728 -0.3031  0.0661  0.0760
14281W        W30175  16.211  18.161  12.169  0.0914  0.0349  0.0474
14282W        W30176   4.201   7.575   2.231  0.2972 -0.0317  0.0206
14283W        W30177  15.231  14.339   4.284  0.3626  0.2459  0.3884
14284W        W30178   6.811   1.465  13.274 -0.2833  0.0629 -0.1112
14285W        W30179   9.990  11.111  14.061 -0.1581 -0.2826  0.0992
14286W        W30180   0.840   7.491   1.040 -0.2020  0.0177  0.3206
14287W        W30181  17.049  12.234  15.592  0.1887  0.0730 -0.1913
14288W        W30182  16.741   2.150   2.969  0.2300  0.2749  0.1363
14289W        W30183  16.418   5.629   1.989 -0.0695 -0.3243 -0.0762
14290W        W30184   1.033   8.038   3.193 -0.0262  0.1975  0.1990
14291W        W30185  12.981   6.717   1.165 -0.0408  0.3742  0.2394
14292W        W30186  13.421   1.884  12.152  0.1913  0.1306 -0.0207
14293W        W30187   6.403  11.096   0.169 -0.1587  0.0084  0.0548
14294W        W30188   7.168  16.109   5.361 -0.1918 -0.3084 -0.1551
14295W        W30189   1.574   4.978   1.843 -0.1569 -0.3411 -0.0968
14296W        W30190  10.354   0.967   4.680 -0.1857 -0.0969 -0.1705
14297W        W30191   2.656   6.135   3.390 -0.1081 -0.0332  0.1450
14298W        W30192  10.785   4.887  11.992  0.0924  0.3136  0.1633
14299W        W30193  14.085  15.129  13.343 -0.0360  0.0636  0.1510
14300W        W30194   2.358  14.016   2.069  0.1407 -0.4333  0.0118
14301W        W30195   2.970  15.365  15.706 -0.0385  0.2993  0.0257
14302W        W30196   2.251   7.943   5.745 -0.2852  0.3644  0.1061
14303W        W30197   4.028  17.185   5.293 -0.3464 -0.1892  0.0425
14304W        W30198   6.954   7.620   2.904 -0.1135 -0.2396 -0.1030
14305W        W30199  13.419   5.227   2.056 -0.0165  0.1090  0.0621
14306W        W30200   5.758  14.293   0.621  0.2953  0.2067  0.2561
14307W        W30201   5.024  15.639  15.205 -0.0728  0.0689  0.2227
14308W        W30202   8.800  16.070  13.034  0.1095  0.1465  0.3051
14309W        W30203  17.022   0.244  11.981 -0.2223 -0.0498 -0.1343
14310W        W30204   8.618  11.010  12.280  0.0431 -0.1474  0.0567
14311W        W30205   8.704  14.666  11.987  0.1559 -0.2108  0.4620
14312W        W30206  13.553  12.369  16.221 -0.1832 -0.2858  0.2079
14313W        W30207   3.635  14.406  16.396 -0.1650 -0.4041  0.1085
14314W        W30208   2.086   2.328  12.236  0.3132  0.0628 -0.0039
14315W        W30209   2.811   8.233   0.466  0.4217 -0.0885  0.1431
14316W        W30210   5.858  16.235   1.271  0.0870  0.1395  0.1816
14317W        W30211   2.928  11.692  13.377 -0.0065 -0.0844  0.2611
14318W        W30212  15.149  16.842   1.819 -0.2183  0.1363  0.0717
14319W        W30213  12.884  17.241  12.979 -0.3119  0.2300  0.0816
14320W        W30214   4.623  10.845  14.022 -0.0194 -0.0052 -0.0565
14321W        W30215  14.105  18.088  13.324 -0.1710 -0.0780  0.0397
14322W        W30216  11.480   6.513   5.174  0.0488 -0.0833 -0.0412
14323W        W30217   9.357  10.341   2.405 -0.1727  0.1695  0.0669
14324W        W30218  11.406  15.425  13.667 -0.2414  0.1080 -0.2963
14325W        W30219   8.901  18.141  16.255  0.0869 -0.0429  0.0303
14326W        W30220  14.887   5.978   5.339 -0.2133 -0.1392  0.0578
14327W        W30221   0.512  14.990   3.027 -0.1692 -0.1338  0.1460
14328W        W30222   4.988   3.619   0.757  0.2345  0.4520  0.1338
14329W        W30223   1.782   8.665   6.322 -0.2984 -0.3539 -0.1937
14330W        W30224  17.249   9.173  13.514  0.0511 -0.2353  0.0669
14331W        W30225   5.579   5.674   5.090 -0.2760  0.0189  0.3142
14332W        W30226   3.304   6.594  13.699  0.0024 -0.0830  0.2908
14333W        W30227   8.108  14.626  12.043 -0.3187 -0.2087  0.0375
14334W        W30228  15.100   9.869  12.428  0.1727 -0.1944  0.2661
14335W        W30229  11.288  17.451   4.799 -0.0871 -0.1823  0.2264
14336W        W30230   0.241   4.447   0.685 -0.0430  0.0280  0.3751
14337W        W30231  15.227  15.278   2.241  0.1955 -0.1559 -0.0015
14338W        W30232  10.520   7.389  15.817 -0.0417  0.0974 -0.0008
14339W        W30233  10.140  12.670  15.184 -0.2141 -0.0081 -0.1490
14340W        W30234   1.811  13.929   2.019 -0.0010  0.0696 -0.1020
14341W        W30235  14.138  17.249  12.651 -0.0048  0.0280 -0.1537
14342W        W30236  14.303   3.479   5.006  0.0409 -0.2222  0.0571
14343W        W30237   6.944   3.709   3.903 -0.1674  0.3918  0.0880
14344W        W30238  15.854   1.354  14.205 -0.0014 -0.2448 -0.2212
14345W        W30239   1.174  12.744   1.169 -0.3598  0.1403 -0.1560
14346W        W30240   9.809   5.124  16.377  0.1674  0.2466 -0.1779
14347W        W30241   2.079   9.369   3.896  0.0257  0.1596 -0.0161
14348W        W30242   9.390  11.380  11.802  0.0948 -0.1242  0.2806
14349W        W30243   9.529   7.756  14.427 -0.0730  0.1334  0.1212
14350W        W30244   3.519  12.995  15.231 -0.0673  0.0937 -0.0292
14351W        W30245   0.420  10.121   2.554  0.3421  0.1441  0.1373
14352W        W30246  17.011   0.871  16.268 -0.0483  0.2125  0.0530
14353W        W30247   0.338  17.722   5.676  0.0291 -0.3460 -0.0176
14354W        W30248   9.374  14.396   0.678 -0.0054  0.2514  0.3172
14355W        W30249   0.348   6.110   2.956 -0.0349  0.1347 -0.0968
14356W        W30250   3.530   5.787  11.572 -0.3496 -0.0578  0.0168
14357W        W30251  16.824  11.578   2.119  0.0884 -0.3006  0.2307
14358W        W30252   8.902  17.579   3.009  0.0244  0.1796 -0.1300
14359W        W30253  12.364   3.282   5.429  0.0856 -0.1537 -0.1203
14360W        W30254   0.029  17.961   3.372 -0.0201  0.1459  0.0450
14361W        W30255   3.509   2.841  12.982  0.0064  0.2531 -0.0006
14362W        W30256   4.551   7.582  14.950 -0.0169 -0.1072  0.1705
14363W        W30257   0.362   1.473   0.604 -0.0547 -0.4769  0.0364
14364W        W30258  16.137  12.953   1.518 -0.0579  0.0527 -0.3376
14365W        W30259   7.104  17.706  14.519 -0.2858  0.0916  0.0163
14366W        W30260  11.011   9.000   3.504  0.0332  0.1158  0.2284
14367W        W30261  15.190   7.268  13.316  0.3419 -0.3671 -0.0474
14368W        W30262   8.139   5.318  13.730  0.0342  0.0255 -0.2383
14369W        W30263   8.025   5.861   0.806 -0.0560 -0.0281 -0.1868
14370W        W30264   9.379   2.362  11.502 -0.2317 -0.0963 -0.2916
14371W        W30265  12.332  15.569   0.057 -0.0271  0.2370  0.1007
14372W        W30266  17.756   9.980   6.064  0.0554  0.1890  0.1809
14373W        W30267   4.537   9.953  12.250  0.1275  0.0420 -0.1295
14374W        W30268   5.527  15.892  14.380  0.3175 -0.2740  0.4405
14375W        W30269   2.032   2.238   3.270  0.0085  0.0173  0.1147
14376W        W30270   8.581   8.703  14.579  0.0848  0.1630  0.0525
14377W        W30271  17.054  14.889  15.446  0.1284 -0.0640 -0.3479
14378W        W30272  11.300  10.146   3.764 -0.1334  0.1738  0.1779
14379W        W30273  17.467  17.958  16.086  0.0810 -0.0533 -0.1078
14380W        W30274   9.509   6.512  16.448  0.3407  0.3483 -0.2241
14381W        W30275   9.372   4.530   2.262 -0.2181  0.2382 -0.1097
14382W        W30276  17.251  13.293  15.885 -0.2918 -0.0806 -0.0576
14383W        W30277  10.418  17.485  15.825  0.0145 -0.0075 -0.1531
14384W        W30278   0.265  16.832  15.122  0.0067  0.0503 -0.0218
14385W        W30279   5.883   1.499   2.928  0.0107 -0.0792 -0.0390
14386W        W30280  16.871  14.027   5.713 -0.3096 -0.2651 -0.0355
14387W        W30281  18.113   5.909   0.507  0.1892  0.1746  0.0387
14388W        W30282   9.007  15.970   3.492 -0.1017 -0.2289 -0.1167
14389W        W30283  10.625   0.634   1.816  0.3244 -0.1003  0.1545
14390W        W30284   1.930  14.843   6.383 -0.0650  0.0657  0.3321
14391W        W30285  15.047   9.622  14.235  0.2768  0.2237 -0.0408
14392W        W30286  14.781   8.753  13.193 -0.0504 -0.1027 -0.0360
14393W        W30287  12.275   2.469   2.184  0.0786  0.2206  0.2101
14394W        W30288   6.436   3.787   2.682 -0.0174  0.0846  0.0227
14395W        W30289  14.914   0.718  13.411 -0.1835  0.3371 -0.0125
14396W        W30290   0.334   2.105   3.052  0.3214  0.2661 -0.0805
14397W        W30291   9.525  16.937   3.213  0.0396  0.1876  0.0993
14398W        W30292   7.941   2.780  13.898 -0.2346  0.0721 -0.3335
14399W        W30293  16.012   3.209   3.729  0.3041  0.1149 -0.0577
14400W        W30294   4.765   1.460  11.858  0.0839  0.2995  0.2100
14401W        W30295   7.182  14.127  13.774  0.1422 -0.1268  0.1458
14402W        W30296   5.036  11.549   2.265  0.2518 -0.1881  0.2678
14403W        W30297  14.982  15.679  12.866 -0.3775 -0.0566 -0.1396
14404W        W30298  17.877   8.270   0.701 -0.1402 -0.1250  0.0308
14405W        W30299   9.903  12.703   3.593 -0.2514  0.1120 -0.3300
14406W        W30300  15.076  13.576   0.108 -0.1301 -0.2527 -0.1586
14407W        W30301   7.264  14.562  16.031  0.0625  0.0168  0.1529
14408W        W30302   5.159  11.701   1.048 -0.2729  0.0835  0.1126
14409W        W30303  11.736  13.003   0.942 -0.0696 -0.1164 -0.0640
14410W        W30304  10.843  14.309   3.870  0.0246  0.1167 -0.0956
14411W        W30305  13.564   4.114  13.155  0.0508 -0.1300 -0.0190
14412W        W30306   5.493   2.699   6.804  0.3605 -0.0084 -0.1299
14413W        W30307   5.902  15.883   1.629 -0.1860 -0.1263  0.1304
14414W        W30308  10.057  16.401  11.789  0.3382 -0.0240 -0.0934
14415W        W30309   7.713  15.316   1.066  0.2908 -0.2478  0.0983
14416W        W30310  17.281  16.611  15.863 -0.1498  0.0436  0.3387
14417W        W30311   6.288  12.431  13.964  0.0644 -0.0062  0.3557
14418W        W30312   1.759   8.433   1.692 -0.0341 -0.0888 -0.0105
14419W        W30313   7.386   8.763   2.630  0.0305 -0.0059  0.0040
14420W        W30314   7.807   7.847   4.691 -0.0511  0.0547 -0.1487
14421W        W30315   4.158  12.403  14.296 -0.2778  0.0734  0.1435
14422W        W30316   1.502   2.599  11.476  0.0887  0.2191  0.1665
14423W        W30317  16.550  11.964  14.256  0.0292 -0.0897 -0.0944
14424W        W30318   9.343  12.806  14.212  0.0652  0.0265  0.0345
14425W        W30319  11.165  14.391   1.086  0.3530  0.2943  0.1858
14426W        W30320   1.736   4.732   2.627  0.1026  0.0307 -0.4757
14427W        W30321   3.636   0.827  10.894  0.1342 -0.0008 -0.4120
14428W        W30322   9.426  11.391  14.612  0.1053 -0.2640  0.1196
14429W        W30323   2.409   4.358   4.623 -0.2898  0.0357 -0.0325
14430W        W30324  12.762  14.151   4.461 -0.1011  0.2311 -0.0759
14431W        W30325  16.987  10.219   3.202 -0.1173 -0.3241 -0.0062
14432W        W30326   0.242   9.991   4.089  0.0037  0.0687 -0.0143
14433W        W30327   3.053   8.613   3.840  0.0851  0.0390 -0.0385
14434W        W30328   1.085   5.344   3.627  0.1210  0.1551  0.0434
14435W        W30329   0.885  17.381  12.259 -0.3318  0.0418 -0.0327
14436W        W30330  16.800   6.202  12.860 -0.1864 -0.2949  0.1355
14437W        W30331  13.035   6.588   2.526  0.1006  0.1387  0.2773
14438W        W30332   7.768  10.572  15.531 -0.3526 -0.2253  0.0695
14439W        W30333  10.052  14.980  10.509 -0.1574 -0.1140  0.2628
14440W        W30334   5.688   7.184   2.038 -0.0839 -0.2702  0.2452
14441W        W30335  15.242  11.679  15.028 -0.1507  0.0679  0.2389
14442W        W30336   4.577  16.478  15.156 -0.1324 -0.0409 -0.0512
14443W        W30337   7.538   6.688   3.329  0.0068 -0.3045  0.0981
14444W        W30338   7.032  14.073  13.324  0.0374 -0.1909 -0.2387
14445W        W30339   0.322   7.640  14.292 -0.2307  0.0354 -0.1210
14446W        W30340   6.212   1.253  15.559  0.0147  0.0501  0.1518
14447W        W30341  10.689   3.847   0.317 -0.1341 -0.3149 -0.0429
14448W        W30342   6.300   6.721   4.508 -0.2538  0.0671 -0.0584
14449W        W30343   6.146   3.996  10.763  0.2154 -0.1398 -0.0998
14450W        W30344   3.740  10.421  14.490 -0.0760  0.0705  0.0154
14451W        W30345  12.708   1.077   2.962 -0.0736  0.2564 -0.2557
14452W        W30346  13.918   4.291   2.801  0.0069 -0.1675 -0.0279
14453W        W30347   6.015  13.401   0.849  0.0929 -0.0239  0.2871
14454W        W30348   1.059   9.295  11.876  0.1429 -0.0137  0.1725
14455W        W30349  11.033  16.233  11.806 -0.0034 -0.1060  0.3358
14456W        W30350   4.702   2.255   3.766  0.1790 -0.0833 -0.0087
14457W        W30351  16.254  13.172  15.651  0.4118 -0.0450 -0.1567
14458W        W30352  12.677   3.044   3.158 -0.1551  0.1708  0.0267
14459W        W30353  14.367   6.078   0.232 -0.1621  0.0256 -0.1624
14460W        W30354  16.121   4.609   3.839  0.2551  0.3352 -0.2656
14461W        W30355   2.794   5.001   5.332 -0.3352  0.1999  0.4333
14462W        W30356   6.904  15.524  12.570  0.1179 -0.0099  0.2241
14463W        W30357  11.483  10.782  16.090 -0.0726 -0.3019  0.1792
14464W        W30358   1.417  18.193   2.817  0.1085  0.1212  0.0798
14465W        W30359   3.413  10.726  15.115  0.0717 -0.0374 -0.1648
14466W        W30360   7.253  16.766  13.398 -0.3275  0.1792  0.1205
14467W        W30361   7.152  14.171  15.681 -0.3131 -0.1046  0.2718
14468W        W30362  10.344   5.620   2.556 -0.4671 -0.0876 -0.2169
14469W        W30363   2.115   9.347  16.072 -0.1278  0.1872 -0.2018
14470W        W30364   1.003   7.339   5.814 -0.3050 -0.2471  0.1915
14471W        W30365   1.403  12.399  16.379 -0.0835  0.3479  0.0049
14472W        W30366   5.456   1.110  15.266  0.1400 -0.1160  0.1399
14473W        W30367  11.602  10.573   5.780 -0.0456  0.1034  0.1408
14474W        W30368   4.931  16.805   5.010 -0.0282 -0.0962  0.1779
14475W        W30369   9.964   0.012  11.805  0.1721 -0.1872  0.1187
14476W        W30370  12.160   2.539  16.058  0.1618 -0.0441 -0.1546
14477W        W30371   7.572   2.927  13.560  0.2277 -0.2096  0.0295
14478W        W30372  10.053   2.767   4.811  0.0812  0.0176  0.1336
14479W        W30373   3.951  10.629   3.422  0.0249  0.1115 -0.1693
14480W        W30374  10.875  14.539  16.337 -0.1220  0.0358  0.0609
14481W        W30375   6.051  11.324  12.543  0.1696 -0.0546 -0.3161
14482W        W30376   5.533   7.844  16.205 -0.0337  0.0137  0.5309
14483W        W30377   4.659   1.608  10.597  0.0000  0.3439 -0.1479
14484W        W30378   2.763   2.051  13.277  0.1976 -0.1158 -0.2759
14485W        W30379  10.643   0.983   0.097  0.4982  0.0021 -0.1916
14486W        W30380   9.206   9.423   0.851 -0.1253  0.0333 -0.2103
14487W        W30381  11.653  13.291  12.524  0.1642  0.2210 -0.1322
14488W        W30382   2.642  10.113  14.792 -0.0787  0.0977 -0.3816
14489W        W30383  13.279   3.912   0.275 -0.0504  0.1131 -0.2556
14490W        W30384  17.326   8.072  14.965 -0.2408 -0.1892  0.2331
14491W        W30385   1.040   9.215   4.641 -0.3250  0.1124  0.1202
14492W        W30386  12.266   5.020  14.071 -0.0102 -0.3095 -0.0030
14493W        W30387   5.487   6.275  15.463  0.0846  0.0550 -0.1663
14494W        W30388   6.034   2.014  12.163 -0.2966 -0.0875  0.0894
14495W        W30389   4.750   8.557   0.289  0.1823  0.2377 -0.0512
14496W        W30390  10.432  11.106   4.176 -0.0560  0.0274  0.1965
14497W        W30391   0.995   2.817   0.030 -0.2063  0.2554 -0.1098
14498W        W30392   3.177   5.382   1.001 -0.2223 -0.2101  0.1577
14499W        W30393   7.732  10.053  11.423 -0.2252 -0.0500 -0.1948
14500W        W30394  13.275   1.020  13.447 -0.0913  0.1323 -0.1908
14501W        W30395  14.816  14.369   3.102  0.3036 -0.0037 -0.3719
14502W        W30396   8.472   3.344   1.014 -0.0405  0.1883  0.1601
14503W        W30397   8.457   0.095  11.830  0.0629 -0.2432 -0.0729
14504W        W30398   8.739   5.329   6.404  0.2969  0.1184 -0.1345
14505W        W30399  14.090  17.304  14.171  0.0663 -0.0068  0.1621
14506W        W30400  14.707  14.780   5.512 -0.0579 -0.1274 -0.2031
14507W        W30401   9.930  10.091  12.592  0.0281 -0.1511 -0.3644
14508W        W30402  15.804  17.328   3.060  0.5194 -0.0433 -0.0830
14509W        W30403   6.309   3.497  13.562  0.3270 -0.1976  0.0893
14510W        W30404   2.089   6.576   1.184 -0.1546 -0.3300  0.0537
14511W        W30405   7.857   8.957  15.829  0.1034 -0.0832 -0.2642
14512W        W30406   1.910   2.227  16.090  0.1527  0.0205  0.0025
14513W        W30407  13.155   5.150   4.827 -0.5105  0.3053 -0.1386
14514W        W30408   8.771  10.415   0.088  0.0755 -0.2460 -0.0225
14515W        W30409   8.325  13.186   3.379 -0.0802  0.0848  0.3623
14516W        W30410  13.398  13.373   0.670 -0.2332  0.0243 -0.1949
14517W        W30411   0.396  15.275  16.458 -0.1618  0.0773  0.0435
14518W        W30412  15.938  11.798  13.537 -0.2636  0.0594 -0.3148
14519W        W30413   5.639  16.605  12.772  0.0381  0.1414 -0.0342
14520W        W30414  13.242  16.362   2.021  0.0515  0.3793 -0.0380
14521W        W30415   2.471  12.834   1.431  0.0774  0.1514 -0.4404
14522W        W30416   4.139  11.901   5.631 -0.0775 -0.1500  0.0994
14523W        W30417   6.194   4.060   4.440  0.3790 -0.0883 -0.1199
14524W        W30418  17.610  16.387  11.952  0.0211  0.0999  0.0682
14525W        W30419  12.162   1.933   5.487 -0.0880  0.0144  0.2294
14526W        W30420   0.917  11.694   3.443 -0.0060  0.3129 -0.1802
14527W        W30421   5.122   5.161   3.163 -0.1244  0.0989  0.1093
14528W        W30422   7.593   2.944  12.753 -0.1919 -0.1517  0.0510
14529W        W30423   9.412   4.459  11.976 -0.0550  0.0536  0.0041
14530W        W30424   7.847   6.505  15.896 -0.1071 -0.1680  0.0133
14531W        W30425  14.421   9.987  16.290 -0.2478  0.0728 -0.0400
14532W        W30426  15.712   4.700   1.720 -0.2319 -0.3746  0.2999
14533W        W30427  18.139  11.068  16.254 -0.3045  0.1249  0.1766
14534W        W30428  17.120   9.714   3.315 -0.2430  0.3124  0.3924
14535W        W30429  15.600  12.862   1.617 -0.0665  0.0753  0.0686
14536W        W30430  16.163  13.514   1.283  0.1522  0.1448 -0.0255
14537W        W30431   2.640  17.696   2.598  0.0506  0.3267 -0.0969
14538W        W30432  17.256   5.220  15.402 -0.3855  0.2925  0.1655
14539W        W30433   8.604  16.398   4.180  0.1978  0.0094 -0.1347
14540W        W30434  11.052  11.352  10.314 -0.0440 -0.1887 -0.1191
14541W        W30435   4.322  11.994  12.380  0.0585 -0.0074 -0.0048
14542W        W30436   8.713  10.676   4.589  0.1242 -0.2466 -0.1316
14543W        W30437   1.043   2.840  14.107 -0.1600  0.2687  0.1985
14544W        W30438   7.193   2.407  13.389 -0.2945 -0.0982  0.0312
14545W        W30439   5.972  13.568  11.697  0.0452 -0.0556 -0.1546
14546W        W30440   7.860   2.158   5.473 -0.2642 -0.0222 -0.4296
14547W        W30441   7.090  13.756   4.455 -0.0714 -0.1685  0.1931
14548W        W30442   0.025  10.934  13.431  0.1608  0.0015  0.2231
14549W        W30443   4.210  14.798   2.234  0.2004 -0.1386  0.0735
14550W        W30444   8.487   2.650  15.362  0.0092 -0.2146  0.2233
14551W        W30445   5.514   6.075   2.727  0.2127  0.0337 -0.6931
14552W        W30446  14.090  12.595  15.533 -0.3742  0.0658 -0.1439
14553W        W30447  14.598   2.182  14.901 -0.2976  0.0972 -0.1932
14554W        W30448   5.331   1.632  15.316  0.1357  0.0114  0.0499
14555W        W30449   1.162   4.856   0.488  0.0040 -0.0308  0.1776
14556W        W30450   2.400   9.864   3.710 -0.0112  0.1511 -0.2395
14557W        W30451  13.626   9.751   5.477 -0.1948 -0.0381  0.2886
14558W        W30452   3.501   0.790   1.763  0.0758  0.0547  0.1712
14559W        W30453   9.635  16.358  12.799 -0.0363 -0.2435 -0.3577
14560W        W30454  11.673   8.152   1.631  0.2057 -0.3549 -0.2574
14561W        W30455  15.214  14.277  13.973  0.1278  0.2506  0.1207
14562W        W30456   6.992   4.046   3.512 -0.1526  0.0463  0.1987
14563W        W30457   4.369   5.971   0.828 -0.0880 -0.1068 -0.1048
14564W        W30458   3.876   4.099   5.128 -0.2942  0.1634 -0.1247
14565W        W30459  17.314  17.700  11.662  0.0802  0.0971 -0.3682
14566W        W30460  17.303   1.387  15.505 -0.0005  0.0372 -0.2217
14567W        W30461  16.827   5.529   4.712  0.2472 -0.0675  0.1916
14568W        W30462  13.287  15.172   4.642  0.0321 -0.1046  0.1489
14569W        W30463   6.803  15.533  14.006  0.2609  0.0414  0.1007
14570W        W30464  12.224   4.626  14.568  0.0242  0.0550 -0.2748
14571W        W30465  10.357   2.940  11.203 -0.0015 -0.1083 -0.0535
14572W        W30466   3.904  13.243  13.994  0.1689 -0.0970 -0.2316
14573W        W30467   2.359   6.819  13.559  0.1983 -0.1399  0.1433
14574W        W30468   1.861   3.039   2.442  0.2625 -0.2250  0.4240
14575W        W30469   8.809   4.371   2.965 -0.0577 -0.1618  0.2136
14576W        W30470  17.073  14.047   4.995 -0.0730 -0.1592 -0.2958
14577W        W30471  17.122   6.937   6.184 -0.4064  0.0365 -0.0344
14578W        W30472   6.347   6.784  13.112 -0.1892  0.4504 -0.1806
14579W        W30473   5.536   5.043  11.299 -0.1862  0.0566 -0.0058
14580W        W30474   3.214   0.222  14.234 -0.1442 -0.0540 -0.5127
14581W        W30475   0.452  10.844  15.548  0.1819  0.1135 -0.3226
14582W        W30476  15.344   6.835   3.635  0.0418  0.1604  0.1177
14583W        W30477   7.366  17.724   4.946 -0.0367  0.0342  0.2535
14584W        W30478  11.868   1.943   1.559 -0.2072 -0.1145 -0.1979
14585W        W30479  12.505  12.566   3.026 -0.0103 -0.2392 -0.1351
14586W        W30480   5.765  16.149  11.452  0.0153 -0.0955 -0.0988
14587W        W30481  17.571   5.824   0.658 -0.2873  0.3767 -0.2090
14588W        W30482   0.057  15.026   0.513  0.0687 -0.2182  0.3054
14589W        W30483  12.521  14.009  13.563  0.4084  0.0086  0.1771
14590W        W30484  12.047  11.638  15.776  0.0059 -0.0154 -0.2872
14591W        W30485  11.297   0.760  12.636 -0.1744  0.0431 -0.2973
14592W        W30486  17.491   0.181  13.251 -0.3011  0.0623  0.0131
14593W        W30487  11.403   7.800  15.003  0.0015 -0.2018  0.4662
14594W        W30488  15.188  11.378   3.227  0.0583  0.0670  0.1233
14595W        W30489   6.417   3.629   4.086  0.2694 -0.1374  0.0048
14596W        W30490  12.459   2.540   4.889  0.1476 -0.2344 -0.2267
14597W        W30491  11.268   5.829   5.852  0.0777  0.4152  0.1107
14598W        W30492   2.973   7.036   1.062  0.0694  0.2812  0.0499
14599W        W30493  15.606  16.137   1.933  0.2170 -0.1154 -0.1061
14600W        W30494  11.949  15.902   0.081 -0.2164 -0.3635  0.0974
14601W        W30495   1.650   0.443   3.749 -0.0168 -0.1635 -0.3007
14602W        W30496   6.358   4.441  14.628  0.1894 -0.0211 -0.1211
14603W        W30497   2.463   3.718   2.636 -0.1753 -0.0518  0.0373
14604W        W30498   5.673  11.766  12.067  0.1402 -0.1181  0.2302
14605W        W30499  14.219   7.417  11.229  0.2463  0.2104 -0.2112
14606W        W30500  10.068  13.383   4.070 -0.0363 -0.0101 -0.0999
14607W        W30501   9.734   1.069  14.358  0.2936  0.1573  0.1993
14608W        W30502   0.452  10.525   4.714  0.0962 -0.4920 -0.3118
14609W        W30503   2.447   5.806  12.459  0.1538 -0.1365 -0.2382
14610W        W30504   1.887   0.872   3.684  0.0807 -0.2817  0.1422
14611W        W30505  12.032   7.950   0.807  0.0954  0.0172 -0.3387
14612W        W30506  10.138  17.111  15.554 -0.0233  0.0158  0.0927
14613W        W30507  16.968   4.701  12.417  0.1866  0.0001 -0.4248
14614W        W30508  14.674   7.956   0.792  0.0867  0.3211 -0.1720
14615W        W30509   5.579   2.002   5.400 -0.0974  0.0585 -0.2651
14616W        W30510   0.067   9.549   5.582  0.1347  0.2473 -0.1884
14617W        W30511   2.641   8.319   1.508  0.2343 -0.2016  0.0200
14618W        W30512  11.932   0.124  13.226 -0.1828  0.0454  0.2905
14619W        W30513   1.950  15.954  12.653  0.1251 -0.0379 -0.1070
14620W        W30514  13.322   4.149   0.754  0.2176  0.1599  0.1197
14621W        W30515  15.149   6.386  15.154 -0.1044  0.1274 -0.1550
14622W        W30516   7.232  18.106  16.152  0.0395  0.0272  0.1059
14623W        W30517   3.572   8.902  13.564 -0.2124  0.1120  0.1275
14624W        W30518   4.261  11.066  12.204  0.0979  0.3187  0.0449
14625W        W30519   7.110   9.836  14.064 -0.0048 -0.4009  0.2225
14626W        W30520   7.723   3.764   1.519  0.1530 -0.3541  0.3553
14627W        W30521   7.093   3.906  11.390  0.1873 -0.0251 -0.2204
14628W        W30522  15.845  11.680   5.161 -0.1543 -0.0667 -0.1245
14629W        W30523  16.220   1.389   2.428 -0.3251  0.3253 -0.1316
14630W        W30524  11.224  13.558  14.284  0.3357 -0.1110  0.0120
14631W        W30525   9.721   6.887   4.338  0.1040  0.0837 -0.0431
14632W        W30526  17.053   1.148  13.287 -0.2253 -0.0685  0.0136
14633W        W30527   6.293   1.115  12.589  0.0323 -0.1306 -0.0210
14634W        W30528   4.923  17.382   3.737 -0.0835  0.0941  0.2114
14635W        W30529  13.404   9.055  11.010 -0.3057  0.0100 -0.2528
14636W        W30530   2.717  17.897  14.403 -0.0204  0.0115 -0.1823
14637W        W30531   9.157   5.977  11.620 -0.0401  0.2202 -0.2508
14638W        W30532  12.023   8.807   5.041 -0.2217 -0.1832  0.4470
14639W        W30533   3.737   7.716  14.310  0.0019  0.1468  0.4161
14640W        W30534   8.926   5.185   2.674  0.1213  0.2220 -0.2684
14641W        W30535  14.593   4.658   3.269  0.0114 -0.1041 -0.1138
14642W        W30536  10.581   1.346  15.113  0.0608  0.5124  0.1921
14643W        W30537   5.177   0.704   0.602  0.0948  0.3225  0.0120
14644W        W30538  14.603  10.233  15.852  0.1418  0.4240 -0.1739
14645W        W30539  16.993  16.186   0.274  0.6804  0.1103 -0.1161
14646W        W30540  11.361   4.850   2.360 -0.2157  0.0285  0.3105
14647W        W30541   2.743   3.166   0.971 -0.0166  0.1365 -0.1003
14648W        W30542   2.512   8.903   5.664 -0.0040  0.0352  0.0592
14649W        W30543   6.813  16.175   2.708  0.1639 -0.2915  0.0345
14650W        W30544   5.500   4.491  11.106  0.1286  0.0746 -0.4590
14651W        W30545  11.747  10.851  12.489 -0.1959  0.1913  0.0219
14652W        W30546  11.628  12.664   2.110 -0.0620 -0.0470 -0.1317
14653W        W30547   3.358  10.480   2.320  0.0680  0.1846  0.0126
14654W        W30548   0.166   6.557   1.126 -0.0932  0.0725 -0.3351
14655W        W30549   4.613  11.902  14.294  0.4369 -0.1536 -0.0582
14656W        W30550   6.500  15.998   6.145 -0.0045  0.0608  0.0565
14657W        W30551   7.822  16.896   0.733 -0.2266 -0.2671  0.0668
14658W        W30552   2.599   8.985   2.641  0.3578  0.2457  0.0142
14659W        W30553  15.115  12.259  13.062  0.2538 -0.0895  0.0554
14660W        W30554   5.022  11.349   3.922  0.3390 -0.1297  0.0411
14661W        W30555  14.591   7.641  11.532  0.2418  0.1433 -0.1378
14662W        W30556  15.411   9.032  12.386  0.2148 -0.0116  0.0357
14663W        W30557   7.470  16.564   0.744 -0.4674  0.0692  0.0622
14664W        W30558   8.812  18.211   2.133  0.1824  0.0695 -0.0348
14665W        W30559   7.327   8.317   2.828 -0.0420  0.2752 -0.1054
14666W        W30560  11.792  14.847   0.966 -0.1323  0.4435 -0.3759
14667W        W30561   9.163   1.390  13.186 -0.1719  0.0675 -0.1712
14668W        W30562   7.548   9.840  15.721 -0.1316 -0.0043 -0.0084
14669W        W30563  13.614  10.820  14.945 -0.3132  0.0042  0.1210
14670W        W30564   7.846  17.715   1.288  0.0335  0.0961  0.0562
14671W        W30565  11.374  14.328   5.281  0.1145 -0.1194  0.0812
14672W        W30566   6.952   4.878   2.096 -0.5485 -0.0276  0.1319
14673W        W30567   5.884   9.237  15.714  0.1713 -0.2998 -0.2472
14674W        W30568   8.026   9.071   1.183 -0.0066 -0.1721  0.0146
14675W        W30569  16.929   9.669   5.502  0.0190 -0.3390  0.1848
14676W        W30570  10.786   1.410  14.168  0.3285  0.0135 -0.1265
14677W        W30571   4.312  15.994   4.433 -0.1680  0.1217  0.2239
14678W        W30572   1.677  12.624   1.152 -0.1630 -0.1100  0.2600
14679W        W30573   4.602   0.333   2.755 -0.1333 -0.2699 -0.0912
14680W        W30574  17.817   5.387  13.369  0.2571  0.3917  0.0203
14681W        W30575   4.967  18.191  15.964 -0.0813  0.0873  0.0639
14682W        W30576   3.886  17.865  11.174 -0.1089  0.4360 -0.1115
14683W        W30577   3.702   1.667  11.916 -0.0403  0.0559  0.2806
14684W        W30578   2.442  16.230   0.790 -0.2435 -0.0520  0.1344
14685W        W30579  11.711   9.437  14.197  0.1923 -0.0356 -0.1241
14686W        W30580   7.918   6.098  15.524  0.0809  0.1595  0.0676
14687W        W30581   5.231   0.039   5.520 -0.0339  0.4006 -0.2648
14688W        W30582   7.712  16.287   4.534  0.1575  0.2832  0.0205
14689W        W30583  16.098   2.340  14.392  0.1845 -0.1816 -0.2318
14690W        W30584  14.801   9.707  13.372 -0.2491 -0.2161 -0.0736
14691W        W30585  11.044  16.041   3.700 -0.2040 -0.3373  0.0478
14692W        W30586   3.760   2.987   1.373  0.1425 -0.2757 -0.3972
14693W        W30587   1.080  12.772   0.326  0.0159 -0.2665 -0.0728
14694W        W30588   6.831  14.661   1.839  0.1976 -0.0233 -0.2223
14695W        W30589   4.012   1.586  15.210 -0.0779 -0.0410 -0.0858
14696W        W30590   2.942  12.599   0.829 -0.1831  0.0300 -0.1326
14697W        W30591  13.780   2.815  13.867 -0.1126  0.2865  0.2619
14698W        W30592  10.421   2.207   0.885  0.1920 -0.1713  0.1419
14699W        W30593   5.178  10.528   4.067  0.1299 -0.4038  0.2544
14700W        W30594   5.339  16.255  12.578  0.0900  0.1857 -0.0913
14701W        W30595  16.990   2.315   1.761  0.2627  0.2313  0.1889
14702W        W30596   1.799   7.904   5.562  0.0600  0.0496 -0.2858
14703W        W30597  14.296  11.513   3.482  0.1678  0.1034  0.0158
14704W        W30598   3.807  10.680  12.796  0.0162 -0.1373 -0.0603
14705W        W30599   2.715  12.322   1.216  0.0100 -0.0351  0.1625
14706W        W30600  10.397  12.731  11.926  0.1752  0.3972  0.4906
14707W        W30601  18.188   8.145  12.584  0.0005 -0.0401  0.1606
14708W        W30602  16.323   5.268  13.930 -0.2870 -0.2087  0.0149
14709W        W30603   8.354   1.022   1.317 -0.2494 -0.3852  0.1202
14710W        W30604  13.589   0.392   4.652 -0.0284  0.0683  0.1814
14711W        W30605  14.807   3.461   3.098 -0.1924 -0.0747  0.0276
14712W        W30606  13.935  10.253   4.194  0.1350 -0.2787 -0.2298
14713W        W30607  11.768   9.499   5.696 -0.2304  0.1777 -0.0977
14714W        W30608  18.230  16.312  15.768  0.1277  0.0155  0.2613
14715W        W30609  17.767   4.772  13.645  0.1060  0.1583 -0.1857
14716W        W30610   0.201  14.416   5.850  0.0557 -0.0257 -0.0927
14717W        W30611   1.978   7.154   5.842  0.2310 -0.0305  0.1397
14718W        W30612  15.291   3.670   3.219  0.2793  0.0323 -0.2059
14719W        W30613  10.555  11.140   0.334 -0.0266 -0.1638 -0.1139
14720W        W30614   8.637   8.259   1.394 -0.1347 -0.0705 -0.1568
14721W        W30615  10.924  12.360   1.644 -0.1840  0.2025  0.1423
14722W        W30616  10.372  11.177   5.561  0.0310  0.0113 -0.1167
14723W        W30617   1.848  14.514  11.004  0.0649 -0.2915 -0.2470
14724W        W30618  15.389   9.528   3.773 -0.0715  0.2792 -0.0224
14725W        W30619   2.899   7.727   4.745 -0.0361 -0.0718 -0.1372
14726W        W30620   5.304  14.232  14.952 -0.2333 -0.2430  0.1058
14727W        W30621   8.625  12.312   4.909  0.2101 -0.3316 -0.2134
14728W        W30622   2.234  13.982   5.670  0.0056  0.1018 -0.0846
14729W        W30623   0.610   8.064  11.808  0.3280 -0.1535 -0.1932
14730W        W30624   6.157   8.444  15.200  0.1972 -0.2451 -0.0134
14731W        W30625   0.766   8.573   5.224 -0.0266 -0.2850 -0.1943
14732W        W30626  10.107   0.787   5.142 -0.1374 -0.0830 -0.1794
14733W        W30627  13.035   1.948  12.491  0.2170  0.1027 -0.0772
14734W        W30628   0.343  15.741   3.876  0.0953  0.2387  0.2214
14735W        W30629  17.492  12.211  15.364  0.2484  0.0976  0.1234
14736W        W30630   6.134   9.699  12.921  0.2796  0.1634  0.0250
14737W        W30631   8.517   8.015   1.936  0.2077 -0.3077  0.1851
14738W        W30632   0.141  13.736  14.722  0.0181 -0.0286  0.0502
14739W        W30633   4.370  15.138   0.949 -0.1029  0.0891  0.0305
14740W        W30634   9.288  10.286  14.853 -0.0101 -0.0384 -0.3313
14741W        W30635  16.606   4.300   0.691 -0.1928  0.0487 -0.0634
14742W        W30636  12.022  10.464  16.180 -0.2102 -0.1549  0.0738
14743W        W30637   9.405   7.174   9.752 -0.0543 -0.0241  0.1002
14744W        W30638   1.490   9.980   0.924 -0.0068 -0.0058  0.2260
14745W        W30639  13.757  17.237   6.284 -0.0897  0.2658  0.0839
14746W        W30640   2.864  15.626  15.293  0.3514  0.2587 -0.2563
14747W        W30641  10.020   1.531  15.792  0.2505  0.0766  0.2866
14748W        W30642  10.357  10.707  11.855 -0.0608  0.4485 -0.0147
14749W        W30643   4.157   7.914   4.000  0.1037 -0.1283  0.1766
14750W        W30644  12.084  13.922   3.938  0.1765 -0.1279 -0.1828
14751W        W30645  17.956   2.941   1.679  0.0742  0.0843 -0.2704
14752W        W30646  14.451   7.502   0.438  0.0397  0.1795  0.0555
14753W        W30647  17.850  17.634   0.858  0.0359  0.0793 -0.1841
14754W        W30648  12.293   8.210  14.736 -0.1676  0.1796  0.0244
14755W        W30649  12.627  12.658   1.898 -0.2216 -0.1761 -0.1793
14756W        W30650   4.954   2.386  13.854 -0.1003 -0.2521 -0.0120
14757W        W30651  11.705  14.836   5.277 -0.0997 -0.4863 -0.3565
14758W        W30652   4.775   7.624  13.319  0.0506 -0.1307 -0.1666
14759W        W30653  16.712  16.358   1.089 -0.0577 -0.2260  0.0428
14760W        W30654   2.285   4.310  16.346  0.0638  0.0492 -0.0110
14761W        W30655   2.312  15.069  13.555 -0.0255 -0.3017 -0.0558
14762W        W30656  15.600  14.624   4.909 -0.0053  0.0487  0.1395
14763W        W30657   4.046   8.701  13.489 -0.1867 -0.0329  0.0784
14764W        W30658   9.877   8.095   5.178  0.0229 -0.0708 -0.0879
14765W        W30659  11.987  11.748  12.668 -0.2591 -0.1810  0.0185
14766W        W30660  17.279  18.177   1.969 -0.0412 -0.0262 -0.2218
14767W        W30661   9.722   3.438  11.081 -0.0430 -0.1111  0.1819
14768W        W30662  15.177   8.090   4.656  0.5074  0.0947  0.2359
14769W        W30663   9.814   2.012  13.853  0.2309  0.1129  0.0603
14770W        W30664   2.253  12.813  15.972  0.0774 -0.1420  0.2546
14771W        W30665   9.402   9.870   3.350  0.2161  0.1395  0.2067
14772W        W30666   5.839  10.222  14.144 -0.1214  0.0926  0.3213
14773W        W30667  17.970   9.406   1.083  0.1254 -0.1619  0.1012
14774W        W30668   4.870  10.436  11.458 -0.2517  0.1136 -0.0501
14775W        W30669  13.097  17.283  13.856 -0.0831  0.0515 -0.0362
14776W        W30670   1.972  14.135   1.406  0.2112  0.1630 -0.1822
14777W        W30671   1.594   8.384   3.630  0.1179 -0.1110  0.0159
14778W        W30672  11.147   5.962  11.041 -0.0672 -0.1667  0.1561
14779W        W30673   2.710  11.467   4.568  0.1159  0.0815  0.0327
14780W        W30674   4.533  17.834   5.062 -0.3373 -0.3030 -0.2257
14781W        W30675   9.869  10.460  13.510  0.1015 -0.3825 -0.1963
14782W        W30676   6.721  10.816  15.767 -0.3471 -0.1537 -0.1697
14783W        W30677   0.009   1.291   5.972 -0.0151  0.3236  0.3670
14784W        W30678  17.248   4.056  15.232  0.2757 -0.0956  0.0181
14785W        W30679   2.572   0.317   4.627  0.2164  0.3658 -0.0153
14786W        W30680   8.904   3.936   2.734  0.1389  0.3051 -0.2698
14787W        W30681  17.418  18.098   0.987 -0.1865 -0.1829  0.3195
14788W        W30682   8.453  10.558  15.939 -0.4306  0.1304  0.2851
14789W        W30683   4.885  11.684   0.316  0.0614 -0.2079  0.0277
14790W        W30684   9.042   7.928  14.271  0.0657 -0.2238 -0.0236
14791W        W30685   4.510  13.219   3.850  0.0689  0.0995  0.0577
14792W        W30686  11.510   2.640   5.187 -0.0352 -0.1766  0.1183
14793W        W30687   3.304  16.973  14.869 -0.2156  0.5737  0.0757
14794W        W30688   8.282  14.268  12.966  0.1418 -0.0445  0.2192
14795W        W30689   2.941   7.900  12.095 -0.0208  0.0962  0.2039
14796W        W30690  11.387  12.519   4.600  0.1051 -0.0468  0.3405
14797W        W30691  15.921   4.355  13.553  0.0657  0.1098  0.2868
14798W        W30692   4.212   7.720  13.555 -0.0841  0.0885 -0.0350
14799W        W30693   1.785  10.577  15.905  0.1642  0.4362  0.0619
14800W        W30694  12.943   4.826   3.496  0.1277  0.0604  0.0748
14801W        W30695  15.880   9.316  14.677 -0.0581  0.1663 -0.1240
14802W        W30696   0.772  10.819   2.741  0.1409 -0.2090 -0.0645
14803W        W30697  11.025   4.341  12.640  0.1759  0.2623 -0.0075
14804W        W30698   4.774   0.465   4.936  0.0471  0.2687  0.1865
14805W        W30699  10.027  15.837   2.467 -0.0729  0.4656  0.0960
14806W        W30700   3.071  15.416   3.971 -0.0240 -0.0650  0.0076
14807W        W30701   0.149  17.945  11.638  0.3372  0.1132  0.0454
14808W        W30702   7.170  16.269   3.351 -0.4286 -0.2070  0.0699
14809W        W30703   4.083  10.962   2.104  0.0822 -0.1251  0.1416
14810W        W30704   3.317   9.653   0.449 -0.2853  0.1979 -0.0424
14811W        W30705  13.039  15.635   4.547 -0.1913 -0.0966 -0.1263
14812W        W30706   3.072  11.650   0.665  0.2221  0.0900  0.1540
14813W        W30707   0.407  11.205  14.354 -0.0635 -0.3722 -0.1632
14814W        W30708   9.351   5.077   0.133  0.0080  0.1248  0.1727
14815W        W30709   0.249  11.787   0.312 -0.1930  0.2383  0.3981
14816W        W30710  11.059  13.368  13.792  0.1939 -0.1273  0.0249
14817W        W30711   4.328   0.524   4.626  0.4164  0.0077  0.2231
14818W        W30712  10.239   7.058  12.192 -0.2282 -0.1591  0.0135
14819W        W30713  15.926  11.477  13.894  0.0597  0.0439 -0.2901
14820W        W30714   6.302   0.144  15.864  0.1544  0.2332 -0.0032
14821W        W30715   4.148  11.038  14.041  0.1154 -0.1193  0.0890
14822W        W30716   1.490  14.148  15.356 -0.0142 -0.1688  0.3365
14823W        W30717  14.403   8.272  16.202 -0.1534 -0.2780 -0.1570
14824W        W30718   5.292  13.828  13.765 -0.1493 -0.1044 -0.1530
14825W        W30719  13.782   9.146  15.726 -0.2565  0.0061 -0.2666
14826W        W30720   2.872  14.237  15.171 -0.1129 -0.0495  0.0591
14827W        W30721   0.976  16.568  11.591  0.0969  0.0921  0.1959
14828W        W30722  14.518  10.328   2.188  0.0889 -0.2194 -0.0383
14829W        W30723  13.013  16.299  14.066  0.2091  0.3064  0.1200
14830W        W30724   1.043   4.785   2.360  0.1978 -0.0194 -0.0974
14831W        W30725  17.422   5.348   1.107 -0.0204 -0.2289  0.2479
14832W        W30726  11.123   7.653  11.868  0.2603 -0.0693  0.2961
14833W        W30727   1.298   1.228  11.185 -0.1981 -0.1030 -0.3420
14834W        W30728  18.065   8.807   3.111 -0.0918  0.1810  0.0719
14835W        W30729   7.212  10.562  12.448 -0.3340 -0.0527  0.1609
14836W        W30730  11.384   8.173   0.617 -0.0490 -0.0984 -0.0922
14837W        W30731   2.040  10.217   5.352  0.2217  0.0137 -0.1672
14838W        W30732   8.247  12.580   0.450  0.0502 -0.0890 -0.2202
14839W        W30733  16.856   4.153   2.385  0.1782  0.3262 -0.0456
14840W        W30734   8.610  17.321   0.258  0.4019  0.1058 -0.3000
14841W        W30735   3.226   2.711   2.460  0.1369 -0.2150 -0.0723
14842W        W30736  10.192   7.400  11.065  0.0197 -0.0918 -0.0659
14843W        W30737   8.537   6.848   2.640  0.0256 -0.1912 -0.1290
14844W        W30738   5.789  15.519  14.080  0.2360  0.2430  0.3100
14845W        W30739   5.720  10.874   2.478  0.1094 -0.0933  0.0214
14846W        W30740  16.002  11.923   1.749  0.1043 -0.1423 -0.2730
14847W        W30741  10.437  14.832   2.708  0.3774  0.0354 -0.0080
14848W        W30742   6.521   5.378   3.473 -0.2625  0.1116 -0.2024
14849W        W30743   9.934  17.587  15.632  0.2920 -0.1110  0.1836
14850W        W30744  17.858  12.843   4.751 -0.0550 -0.0280  0.0595
14851W        W30745   1.558  13.849   4.302  0.2109  0.2103  0.0509
14852W        W30746  16.869   5.309   6.049 -0.0260  0.0342  0.2660
14853W        W30747  14.581   1.289   2.818  0.0803 -0.2684 -0.0614
14854W        W30748  15.465  11.661   2.493 -0.2836  0.0045  0.0122
14855W        W30749  11.927   2.347  15.028  0.2433 -0.2954 -0.3110
14856W        W30750  18.218   0.250   4.652  0.1010  0.1855  0.3149
14857W        W30751   0.723   0.565  11.930 -0.1456  0.2658  0.2070
14858W        W30752   1.635  14.787   0.677 -0.0103 -0.3643  0.1111
14859W        W30753  17.850   8.201  12.123  0.1809  0.1537 -0.1060
14860W        W30754   4.966   1.104  15.103  0.0556  0.5530  0.0200
14861W        W30755   0.824   0.431   4.917 -0.0593  0.1024  0.2024
14862W        W30756   4.844  15.360  14.840 -0.0840 -0.0782  0.2837
14863W        W30757  11.112   5.461  16.137 -0.1786  0.0413 -0.1499
14864W        W30758   7.961   1.967   3.897 -0.2859 -0.4001  0.0094
14865W        W30759  15.911  14.898   0.643 -0.1814  0.1756 -0.3656
14866W        W30760  13.719  13.449   5.441 -0.2171  0.0035  0.1657
14867W        W30761  14.804  15.229  13.616 -0.0729 -0.2530 -0.0454
14868W        W30762   3.943   9.728   2.950 -0.1652 -0.0370  0.2906
14869W        W30763   8.775   8.469  16.214 -0.0023 -0.1623  0.0476
14870W        W30764   9.030  16.635   3.229 -0.3744  0.1287 -0.1202
14871W        W30765  15.524   8.786  10.764 -0.4726  0.1938  0.2722
14872W        W30766  17.302   3.159  14.479  0.5024 -0.1736 -0.3450
14873W        W30767  16.426   9.935   1.274 -0.1164 -0.0485 -0.0455
14874W        W30768   6.342   2.979  11.889  0.0064 -0.1427 -0.0610
14875W        W30769  14.843   9.787  11.941  0.1087 -0.0002 -0.3699
14876W        W30770   0.738  11.870  13.028 -0.1249 -0.0294 -0.1865
14877W        W30771   6.514   1.494   1.778  0.1396  0.0425 -0.4242
14878W        W30772   3.466   9.260   6.288  0.1174 -0.3846 -0.3333
14879W        W30773  14.307  13.582   0.095 -0.1848 -0.2394  0.0436
14880W        W30774   4.777  12.324   4.243  0.0572  0.0101  0.0847
14881W        W30775  13.934   6.959   1.092 -0.1353 -0.0535  0.1821
14882W        W30776   0.138  11.578   1.967  0.0987  0.1338  0.2614
14883W        W30777   1.897   9.576  12.327  0.1873  0.3751  0.1366
14884W        W30778  16.969  16.873   2.495 -0.3700 -0.3324 -0.1742
14885W        W30779  11.943  17.181   3.200  0.2794  0.2013 -0.0995
14886W        W30780   2.240   0.151   1.046 -0.2423  0.1035 -0.1252
14887W        W30781   3.083   6.194   0.063  0.2171  0.0956 -0.0202
14888W        W30782  15.065  11.765  12.475 -0.0326  0.0346  0.0750
14889W        W30783  15.879  17.099   4.912 -0.1196  0.1929 -0.2414
14890W        W30784  11.774   2.850  13.115 -0.0325  0.0819  0.2421
14891W        W30785   8.925   8.182  11.878 -0.1594 -0.2016 -0.1638
14892W        W30786   6.219  10.000  13.914  0.0247  0.0936 -0.2726
14893W        W30787   3.480  15.618  15.146  0.0016 -0.2866  0.2878
14894W        W30788   6.031  13.761  12.632  0.4535  0.1559 -0.1509
14895W        W30789  14.887   9.061   0.019 -0.1570 -0.1225 -0.0439
14896W        W30790  13.580  15.955   0.961  0.2892  0.1901 -0.0372
14897W        W30791   4.125  14.073   4.331  0.1538  0.0367  0.3314
14898W        W30792   3.223   1.464   1.299 -0.4421 -0.0238 -0.1190
14899W        W30793   5.608  14.556  10.953  0.2016  0.1087 -0.0981
14900W        W30794   6.625  17.565  12.924  0.0534 -0.0384 -0.0286
14901W        W30795   1.293  17.858  16.289 -0.4747 -0.1014  0.2111
14902W        W30796  10.141  11.814  14.707 -0.1665  0.3233 -0.0029
14903W        W30797  12.362   0.812  15.486  0.2244 -0.0455  0.0776
14904W        W30798   8.242   3.059  11.352 -0.1134 -0.0159 -0.2107
14905W        W30799  12.711  13.499  12.769 -0.0649 -0.3274  0.1034
14906W        W30800  14.351  18.119  15.690 -0.4613 -0.1737  0.0422
14907W        W30801   7.717  14.012   0.070  0.0851 -0.1171 -0.3222
14908W        W30802   9.040   8.093   3.843  0.0005  0.0301  0.0132
14909W        W30803  12.204   8.848   4.063  0.0485  0.3227  0.3630
14910W        W30804   8.487   9.377  11.580  0.1343 -0.0356  0.1562
14911W        W30805   8.318  14.278  13.948  0.0126 -0.3025  0.1478
14912W        W30806   1.843   5.569  14.886  0.1161  0.0484 -0.2028
14913W        W30807   9.273  11.985  15.382 -0.1108 -0.2348  0.0291
14914W        W30808   2.083   8.244   3.789  0.1289 -0.0755  0.0302
14915W        W30809  10.024   6.518  11.609 -0.0045  0.2767  0.1374
14916W        W30810   0.838   3.133   2.654 -0.2923  0.0658 -0.2897
14917W        W30811   4.489  10.454  11.020  0.1737 -0.2493  0.3405
14918W        W30812  12.605  14.133   2.234 -0.2183  0.1043  0.0833
14919W        W30813  16.141   6.701  15.670 -0.1370 -0.1906  0.0794
14920W        W30814  14.024  13.333  14.549  0.3883  0.2687  0.1922
14921W        W30815  16.984  10.039   5.903  0.4251  0.0461 -0.2006
14922W        W30816   8.473  11.064   3.826 -0.0868  0.1540  0.0435
14923W        W30817  16.316   9.504   2.828 -0.0177  0.1595 -0.1562
14924W        W30818  14.446  13.509  13.522 -0.1822  0.1416  0.0729
14925W        W30819   9.122   8.523  15.291  0.2699 -0.1140 -0.0035
14926W        W30820   3.459   5.486  16.135  0.0062  0.1572  0.0756
14927W        W30821   6.607   9.035   5.154  0.0945 -0.1144  0.3683
14928W        W30822  12.949  18.016   4.478 -0.1157  0.0464  0.0059
14929W        W30823  10.324  17.145   4.862  0.1975 -0.1801 -0.3484
14930W        W30824   7.394   3.812   4.179  0.1172 -0.1043 -0.0836
14931W        W30825  12.882   6.580   5.973 -0.0627  0.0193 -0.4552
14932W        W30826  15.285  14.732  13.194 -0.0673 -0.2821  0.1331
14933W        W30827   8.439   9.790   4.423 -0.2560 -0.0006  0.0474
14934W        W30828  12.957  14.501   0.893  0.2981  0.0255  0.0824
14935W        W30829  15.782   2.195  13.981 -0.2348 -0.0898 -0.2079
14936W        W30830  16.334   4.906   4.431  0.0396 -0.2549 -0.1805
14937W        W30831  13.135   4.500  14.558  0.1582 -0.0025  0.2586
14938W        W30832   7.960   9.553  11.534  0.1431  0.2725 -0.1329
14939W        W30833   5.580  16.725   1.421  0.0313  0.2285  0.1488
14940W        W30834   3.209   6.077  14.553 -0.2355 -0.2845 -0.2354
14941W        W30835  16.500  13.395  13.205  0.2704 -0.2154  0.2577
14942W        W30836  17.117  17.018   0.714  0.0907 -0.1142 -0.1027
14943W        W30837  18.002   3.225  11.760  0.0266  0.0423  0.0954
14944W        W30838   6.135   0.822   1.480  0.3558 -0.0493  0.0623
14945W        W30839   6.409  13.167   4.161 -0.0513 -0.0035  0.2111
14946W        W30840  15.897   5.951  14.536  0.0761 -0.1261 -0.1979
14947W        W30841  15.839  12.488  14.870 -0.0124  0.0021 -0.1187
14948W        W30842  11.350  16.875  15.138  0.3591  0.1165 -0.0730
14949W        W30843  17.691  11.153  12.916 -0.3492 -0.0468  0.0263
14950W        W30844  16.470  14.639  13.388  0.4454 -0.3767 -0.0815
14951W        W30845  12.528   2.289  13.379  0.1363 -0.1990 -0.0575
14952W        W30846   4.128   8.127   0.781 -0.2523  0.1274 -0.2805
14953W        W30847  11.772  14.702  11.929  0.2826 -0.0281  0.1855
14954W        W30848  17.327   0.653  13.296  0.2187  0.0361 -0.2088
14955W        W30849   7.523   1.309  16.331 -0.4301  0.0148  0.1486
14956W        W30850  13.786   2.851  10.155  0.2188 -0.0802  0.2512
14957W        W30851  13.433   1.212  15.550 -0.0932  0.1086 -0.0589
14958W        W30852   6.785   0.725  15.092  0.0155  0.3306  0.0677
14959W        W30853   5.811   5.931  11.428  0.1632  0.0676 -0.0721
14960W        W30854  11.235   6.889  16.125  0.2667 -0.1364  0.0954
14961W        W30855   0.766   6.089  14.932 -0.0134  0.0731 -0.2094
14962W        W30856   0.833  16.919  14.869  0.2805 -0.2183 -0.0256
14963W        W30857  17.241  13.704   0.692  0.0393  0.2260 -0.0664
14964W        W30858   0.651  13.862  15.626 -0.0816  0.2092 -0.0670
14965W        W30859  15.384   1.004  14.225 -0.2331 -0.2798 -0.1863
14966W        W30860  12.175  17.437   5.518 -0.2253 -0.1533 -0.2246
14967W        W30861   4.569   8.367  14.267  0.1229 -0.1422  0.0754
14968W        W30862   9.389   1.709  13.627  0.0377 -0.0530 -0.2789
14969W        W30863  17.754  16.126   4.272  0.0003 -0.0328  0.3737
14970W        W30864  11.124   0.143   0.238 -0.3293 -0.0263  0.1317
14971W        W30865  17.010   5.955  14.941  0.0170  0.1488  0.1774
14972W        W30866  17.392   1.576  11.928  0.2062  0.0591  0.4494
14973W        W30867   8.125   4.936   2.738  0.1520  0.0395 -0.2969
14974W        W30868  13.466   4.837  14.315 -0.1208  0.0623  0.1160
14975W        W30869  13.885   4.066  10.431  0.1568  0.1582 -0.1917
14976W        W30870   6.201  13.229   6.134 -0.0828  0.0286  0.0618
14977W        W30871   5.588  16.948  13.823 -0.1884 -0.3077  0.2960
14978W        W30872  16.492   0.370   2.207  0.3596 -0.1384 -0.1276
14979W        W30873  10.420  10.572   5.011  0.0001  0.0439 -0.3579
14980W        W30874   8.755  13.052  12.727 -0.0261  0.1626 -0.1420
14981W        W30875   6.382   0.175  12.016  0.0058 -0.1650 -0.1349
14982W        W30876  13.218   5.763  14.492  0.0608  0.1887 -0.0367
14983W        W30877   7.186   7.846   0.843 -0.0071 -0.1081 -0.1341
14984W        W30878   1.809   3.169  14.960  0.0334  0.2417 -0.1955
14985W        W30879   9.754   0.850  16.278 -0.0884 -0.0127  0.2753
14986W        W30880  11.952  11.774  10.355  0.0208  0.0398  0.1006
14987W        W30881   7.053   7.521  13.373 -0.0621 -0.1102  0.0328
14988W        W30882   0.960  14.210   1.159 -0.1336 -0.1245  0.4280
14989W        W30883  16.592   4.358   1.648 -0.1261  0.1493 -0.1434
14990W        W30884   4.442   5.577   2.033 -0.1372 -0.2079 -0.3269
14991W        W30885  14.333  14.281   0.381  0.2136 -0.0318  0.3123
14992W        W30886   5.983  15.216   0.167 -0.4402 -0.1898 -0.0663
14993W        W30887   1.936  12.228  13.477 -0.3385  0.0537 -0.4370
14994W        W30888  11.366  11.697  11.965  0.1024  0.2158  0.2663
14995W        W30889   6.218   0.141   1.745  0.0839 -0.0370 -0.1331
14996W        W30890  13.864   3.379   3.689  0.0255 -0.1054 -0.0101
14997W        W30891  13.603   2.196   6.105 -0.2022 -0.0787 -0.0670
14998W        W30892  17.922  17.144  11.598 -0.1380 -0.0047  0.0245
14999W        W30893   8.418   7.717   1.563  0.0956 -0.2455  0.0901
15000W        W30894  10.676   3.757  16.260  0.1794  0.0590 -0.4986
15001W        W30895  11.905  15.347   0.738 -0.1913  0.1056  0.1260
15002W        W30896   2.485  13.287  13.907  0.0919  0.1522 -0.0207
15003W        W30897   0.827  14.855  15.632 -0.2829  0.0457  0.0219
15004W        W30898  14.258   8.539   3.204 -0.2557 -0.0386 -0.1318
15005W        W30899   0.153   5.926   1.049  0.1264  0.1938 -0.0650
15006W        W30900   4.038   4.359  11.199 -0.4274 -0.5093 -0.0765
15007W        W30901   7.405  16.540  11.628  0.0744 -0.2930  0.0091
15008W        W30902  13.000   8.648  15.581  0.1797  0.0464  0.0548
15009W        W30903   1.179  15.095   2.547 -0.0251  0.0146 -0.2025
15010W        W30904   9.370   0.570  11.467  0.1886 -0.0170  0.5308
15011W        W30905  15.396   7.027  16.170 -0.1324  0.4782 -0.1746
15012W        W30906  10.558   9.889  13.972 -0.1639 -0.2883  0.3243
15013W        W30907  14.990  12.732  13.913 -0.1773 -0.1031 -0.2200
15014W        W30908  10.468   8.468   1.454 -0.3520  0.1803 -0.1317
15015W        W30909  13.657   2.813   3.144 -0.0294 -0.0812  0.0338
15016W        W30910   1.648   8.853   2.477  0.1077 -0.0524 -0.5797
15017W        W30911   3.686  13.892   1.709 -0.1927 -0.0832 -0.0252
15018W        W30912  12.354   0.704  14.841  0.2146  0.0906 -0.2310
15019W        W30913  15.522  17.992   2.386 -0.0298 -0.0933 -0.2566
15020W        W30914   6.000   7.962  16.245  0.3079 -0.2369 -0.0378
15021W        W30915   4.485   4.170  15.523 -0.0243  0.2402  0.3768
15022W        W30916   5.339   2.235   4.445  0.2731  0.0375 -0.0144
15023W        W30917   9.196  11.539  12.694  0.1130 -0.1668  0.1457
15024W        W30918  17.197  16.465   3.533  0.4108  0.1855  0.3233
15025W        W30919  15.740   6.531  12.646  0.1350  0.1112  0.0235
15026W        W30920  11.148   2.615   1.248 -0.1082 -0.3717  0.1138
15027W        W30921  10.762   7.711   4.978  0.1256  0.0654 -0.1153
15028W        W30922   3.585  17.055  11.809 -0.1348  0.1447  0.3714
15029W        W30923   5.949  15.945  13.709 -0.3259  0.0196  0.1658
15030W        W30924   1.827   2.728  14.156  0.3814  0.4296  0.0627
15031W        W30925  12.592  14.601  14.600 -0.0781  0.1605 -0.0507
15032W        W30926   5.798   1.788  13.998 -0.3671 -0.0460 -0.0388
15033W        W30927  17.295  12.945  14.836 -0.2522 -0.0050  0.0406
15034W        W30928   2.865   7.960   2.202  0.0576  0.0095  0.2390
15035W        W30929   8.978   4.895   1.506  0.0327 -0.2217  0.0711
15036W        W30930   0.238  17.182   5.485 -0.2938 -0.1124 -0.0147
15037W        W30931  17.965   7.242   5.098  0.0926 -0.0423 -0.1820
15038W        W30932   1.309   8.557   5.335  0.1805  0.1565  0.2387
15039W        W30933  15.079   6.619   4.526 -0.0224 -0.2142  0.0015
15040W        W30934  11.203   2.925  13.304 -0.1929  0.0568  0.0001
15041W        W30935   7.414   3.991   2.017  0.2960  0.2124 -0.2978
15042W        W30936  12.974  14.102  11.385  0.2408 -0.0784  0.2228
15043W        W30937  15.294   0.613   5.716  0.0569  0.0958 -0.0717
15044W        W30938  12.688   6.671   1.619 -0.2813  0.0413 -0.3104
15045W        W30939   6.911   2.745  10.073  0.2523 -0.1069 -0.0952
15046W        W30940  12.605  14.285   5.465  0.0837 -0.3379  0.1302
15047W        W30941   9.292   4.894   3.860  0.0601 -0.2533 -0.0090
15048W        W30942  17.598   9.368   1.395 -0.2308  0.2144 -0.1493
15049W        W30943   5.583   8.956   3.731  0.0550  0.1347  0.2588
15050W        W30944   9.046   7.150  13.240 -0.3198 -0.0453  0.2077
15051W        W30945   0.153   6.275   2.002  0.0302  0.2792 -0.1498
15052W        W30946   2.606  18.095   0.025 -0.0828  0.0665  0.1710
15053W        W30947  12.515  14.133  12.197 -0.0100 -0.0015 -0.0368
15054W        W30948   1.771  12.134   3.138 -0.1101  0.1343  0.1174
15055W        W30949  10.067   5.832   0.638 -0.1568  0.0670 -0.0051
15056W        W30950   1.965   7.519  13.030 -0.1074 -0.3451 -0.1261
15057W        W30951   7.815  12.451   3.148 -0.0411  0.0308  0.0930
15058W        W30952   8.925  11.362   1.106  0.2657 -0.0833 -0.0112
15059W        W30953  12.390   5.154   1.428 -0.1268  0.0133  0.3732
15060W        W30954   0.777   3.270  14.152 -0.1936  0.0053 -0.2398
15061W        W30955  13.982  15.171  15.212 -0.0987 -0.0530 -0.0938
15062W        W30956   7.260   1.184   3.720  0.0722  0.0561  0.2287
15063W        W30957  17.306  17.079  14.244 -0.2551  0.1620 -0.0281
15064W        W30958  14.520  14.658   0.730  0.3364  0.0154 -0.0555
15065W        W30959   4.027   1.547   2.953 -0.1805 -0.0398 -0.1941
15066W        W30960   1.876  15.222  13.350  0.0755 -0.2364 -0.1097
15067W        W30961  15.819  15.531   2.767 -0.0323  0.0006 -0.2128
15068W        W30962   0.061  14.661  14.836 -0.0156  0.4686  0.1798
15069W        W30963  15.826   2.223   2.737  0.6519 -0.4135 -0.0197
15070W        W30964   2.685  16.633   5.376  0.1656  0.0903  0.1861
15071W        W30965  16.573   8.118  10.792 -0.0910  0.1005  0.1084
15072W        W30966  12.137   5.241  16.290  0.0516 -0.2284 -0.1846
15073W        W30967   3.954  11.635   1.313  0.2287  0.1177  0.3852
15074W        W30968  12.321  10.595   4.521  0.0053 -0.1253  0.3905
15075W        W30969   3.754  10.222  12.251 -0.4011  0.1127  0.2612
15076W        W30970  16.573  14.245   3.287  0.1548  0.1243  0.0937
15077W        W30971   5.021   4.095   1.415 -0.2943 -0.2016  0.2542
15078W        W30972   4.352  10.033   2.899 -0.1684 -0.0332 -0.1605
15079W        W30973   2.227  12.825   4.940 -0.0729  0.0872  0.1158
15080W        W30974  16.279   6.413   0.176 -0.1723 -0.0964  0.3411
15081W        W30975   5.201  13.684   2.094 -0.0140  0.0521  0.0160
15082W        W30976   3.346  17.059  13.637  0.1469  0.2066 -0.0620
15083W        W30977   5.880   5.619  13.892  0.0163  0.0468  0.3160
15084W        W30978   0.949   7.131   1.316 -0.2654  0.1320  0.2770
15085W        W30979  11.115   5.701   4.345  0.2586 -0.0045 -0.0072
15086W        W30980   7.801   1.208  15.349 -0.0876 -0.0988  0.2693
15087W        W30981  16.268   2.388  12.145  0.0031  0.0929  0.0526
15088W        W30982   9.471  17.431   4.640  0.0324 -0.4760 -0.1255
15089W        W30983  16.832   5.225   1.114  0.0063  0.3914 -0.1200
15090W        W30984   5.246  16.399   4.222  0.1736 -0.3505 -0.4609
15091W        W30985  16.610  13.952  12.779 -0.0599  0.2736  0.0981
15092W        W30986  17.697   7.982   1.768  0.0987 -0.3046  0.2087
15093W        W30987   7.073  14.523   1.358  0.2428  0.0092  0.3124
15094W        W30988  10.942  17.780  12.835 -0.1550 -0.1132 -0.0735
15095W        W30989   8.942   4.768   4.622  0.1772 -0.0670  0.1859
15096W        W30990   2.080   8.348   4.897  0.0910 -0.3953  0.0490
15097W        W30991  14.821   1.538  10.894 -0.2762 -0.1056  0.1143
15098W        W30992   9.825  12.167  11.822 -0.1385 -0.1408 -0.0699
15099W        W30993   4.266   3.428   3.737 -0.1781  0.1682  0.1216
15100W        W30994  15.390   0.155   5.420 -0.2480  0.1302 -0.0170
15101W        W30995   8.436  16.495  14.049  0.4139  0.1697 -0.0860
15102W        W30996  17.130  12.880   3.209 -0.2156 -0.2209  0.1714
15103W        W30997   8.058   2.203  14.297 -0.2262  0.1102  0.2343
15104W        W30998  12.275  14.945   1.041  0.1165 -0.1089 -0.1625
15105W        W30999  10.901  17.517  14.496 -0.0071  0.1414 -0.0412
15106W        W31000  16.436   6.251  14.341  0.0210  0.0011 -0.2168
15107W        W31001   6.011   7.725   0.521 -0.0490  0.0371 -0.0393
15108W        W31002   4.391   2.876  12.794 -0.1212 -0.2613  0.2610
15109W        W31003   4.302   3.439  11.486  0.0015  0.3539  0.0491
15110W        W31004   4.437   9.398   0.376 -0.2846  0.0433  0.0984
15111W        W31005  14.865  14.988   3.808  0.3519  0.1836 -0.0252
15112W        W31006   5.064  17.945   2.113 -0.0410 -0.2297 -0.1376
15113W        W31007   2.911   3.608  14.408  0.3594 -0.0296 -0.0289
15114W        W31008  17.076  14.371   5.385  0.1860  0.0807  0.0670
15115W        W31009   9.806   7.854   1.849  0.2207 -0.2934 -0.1805
15116W        W31010  11.014  15.190   3.918 -0.1629 -0.1081 -0.0487
15117W        W31011  10.370  11.419  13.999 -0.0254  0.0399  0.0234
15118W        W31012   7.356   7.784   1.577 -0.0728 -0.0677 -0.0172
15119W        W31013  12.602  10.234   1.574  0.1416 -0.2284 -0.1157
15120W        W31014  16.637   4.853   0.330  0.1749 -0.0976 -0.1547
15121W        W31015  10.455  14.590  14.164 -0.1175 -0.0887  0.1802
15122W        W31016  13.817  16.679   3.880  0.0002  0.0161 -0.0867
15123W        W31017   8.408   1.768  14.946 -0.2306  0.4693 -0.4412
15124W        W31018   3.394  17.429  13.177 -0.4731  0.1231 -0.1486
15125W        W31019   9.464  15.047   3.139  0.0250  0.2059  0.1483
15126W        W31020   7.528   0.684   0.708 -0.2769 -0.1361  0.1578
15127W        W31021   9.988  16.311  12.362  0.1034  0.0714 -0.2595
15128W        W31022   2.831  14.210   0.631 -0.4439 -0.0579  0.0994
15129W        W31023  11.294  15.492   0.736  0.2229  0.2597 -0.1782
15130W        W31024   5.423   2.666   0.323  0.0494  0.3053 -0.2308
15131W        W31025   0.050  16.218   3.112 -0.3253  0.0003  0.0553
15132W        W31026   8.122   1.355  15.000 -0.2601 -0.1211  0.0930
15133W        W31027   0.127   6.626   4.684 -0.1214 -0.0304  0.1624
15134W        W31028  11.774   5.259   4.492  0.1660  0.4172  0.1847
15135W        W31029  16.450  12.902  15.995 -0.0790  0.2340 -0.2022
15136W        W31030  17.779  12.889  11.435  0.2029 -0.1053  0.0929
15137W        W31031  16.820   6.798  11.200  0.1154  0.3511  0.3642
15138W        W31032   1.631   4.516   3.550  0.1060 -0.1185 -0.1082
15139W        W31033  10.168  12.210  14.443  0.1862  0.5402  0.2310
15140W        W31034  14.225   4.248   0.017  0.0849  0.2132  0.0641
15141W        W31035   0.632   7.725  15.236 -0.0215  0.3748 -0.1210
15142W        W31036   9.214  11.526  15.609  0.3058 -0.1364  0.1948
15143W        W31037   2.322  18.042   2.351 -0.0679 -0.0958 -0.0003
15144W        W31038  11.685  16.230   5.064 -0.2847 -0.3668 -0.0654
15145W        W31039  10.353  10.441  11.373  0.4068 -0.2552  0.0756
15146W        W31040  10.492   7.718  10.779 -0.0048 -0.0750 -0.2035
15147W        W31041  11.191   0.207   4.851 -0.1134  0.0335  0.0872
15148W        W31042  12.303  15.259   3.817 -0.1257 -0.3869  0.0737
15149W        W31043  16.617   7.905   2.500  0.0947  0.1274  0.3190
15150W        W31044   1.277   0.721   3.931 -0.0840  0.2124  0.1635
15151W        W31045  14.570   1.818   0.049 -0.2552  0.0843  0.0543
15152W        W31046   2.492  13.280   3.869  0.5024  0.1661 -0.0805
15153W        W31047   5.010  16.306   2.937 -0.0494 -0.3842  0.1023
15154W        W31048   2.895  14.172   1.220  0.1088 -0.0576 -0.2992
15155W        W31049  16.857   8.502  12.450 -0.3312  0.0395  0.1443
15156W        W31050  17.671   1.543  12.417 -0.0285  0.0391 -0.2383
15157W        W31051  15.200   9.451  13.349  0.0255 -0.1175  0.2909
15158W        W31052   7.358  14.241  14.237 -0.3814  0.3449  0.0611
15159W        W31053   6.807  10.344   3.106 -0.1921  0.1648 -0.1733
15160W        W31054   7.107  15.026  12.561  0.0272 -0.0392 -0.0208
15161W        W31055   1.535   2.663   3.852  0.0116  0.0932  0.2115
15162W        W31056   4.890   2.944   2.124 -0.1110 -0.0442 -0.0237
15163W        W31057  16.754  13.503   2.710  0.0377  0.0757 -0.4179
15164W        W31058   2.230  16.400   1.903 -0.1072 -0.0271  0.1394
15165W        W31059  10.446  14.169   4.117  0.1819 -0.1438  0.3394
15166W        W31060  11.528   1.084   4.136 -0.1061 -0.1827 -0.1773
15167W        W31061   4.319   6.434  15.753  0.0418  0.0240  0.1467
15168W        W31062   1.406   0.859  16.129 -0.0701 -0.2974  0.0334
15169W        W31063  15.581  15.942   2.494 -0.1569 -0.0329  0.1285
15170W        W31064   6.624  13.142  16.250  0.0440 -0.2782 -0.1416
15171W        W31065   5.234   5.848   0.372 -0.1109  0.1244  0.0188
15172W        W31066   4.321  10.010  10.905  0.1509 -0.4576 -0.0615
15173W        W31067   8.925   2.322   3.852  0.1089 -0.2408  0.2819
15174W        W31068   5.017   5.990   2.469  0.1398 -0.3928 -0.1851
15175W        W31069  12.458   1.723   0.597  0.2449 -0.0377  0.0432
15176W        W31070   2.180   4.879  11.486  0.1123 -0.2065  0.0157
15177W        W31071   1.823   3.065  13.765 -0.2723 -0.0522 -0.1365
15178W        W31072  10.355  16.331   2.462 -0.0203  0.4120 -0.1631
15179W        W31073   2.254  11.792  12.714  0.1697 -0.2553 -0.3674
15180W        W31074  12.061   9.362  14.969  0.0967  0.1302  0.0240
15181W        W31075   8.394  14.510   0.976 -0.0373  0.0195  0.2338
15182W        W31076   4.775   8.459  15.406  0.0920 -0.0650 -0.0867
15183W        W31077   9.024  10.883   1.942 -0.5514 -0.0017 -0.2799
15184W        W31078  10.170   4.778   2.879 -0.0567  0.3013  0.0370
15185W        W31079   5.434   1.910   2.922 -0.0485 -0.0559 -0.2784
15186W        W31080   7.781   0.260  15.419 -0.2454  0.2514  0.2450
15187W        W31081  11.816   2.326  15.516 -0.0871 -0.0279 -0.0005
15188W        W31082   9.129   2.118  15.901  0.0138  0.0005  0.2843
15189W        W31083  13.427   2.408  13.963  0.2333 -0.2661  0.0641
15190W        W31084   7.474  17.649  16.035 -0.1199  0.0338  0.3062
15191W        W31085  16.351   8.909   2.352 -0.0503  0.1356 -0.1916
15192W        W31086   7.990   5.241   5.369  0.0887  0.2278 -0.2473
15193W        W31087  14.044   9.392  16.049  0.1697 -0.0894 -0.0587
15194W        W31088  17.989   9.672   0.633 -0.0843 -0.2721  0.1208
15195W        W31089   6.904  11.590   1.718  0.2382  0.0975 -0.3701
15196W        W31090  14.613  13.911   3.353  0.2885 -0.1271  0.1323
15197W        W31091   8.674   4.526  11.185  0.1500  0.0423  0.2632
15198W        W31092  18.238  13.290  13.553 -0.1897  0.0946  0.1597
15199W        W31093   3.178  13.585  12.376 -0.4377 -0.1840  0.1473
15200W        W31094   6.046   5.851   0.972 -0.2249 -0.0927  0.3519
15201W        W31095  13.887  17.796  11.495 -0.3274  0.0416 -0.1636
15202W        W31096  15.517  17.092  16.327 -0.2134  0.0146 -0.3138
15203W        W31097  17.356   7.698  15.311 -0.3819  0.0330 -0.0326
15204W        W31098   5.724   9.839   5.123  0.0473 -0.0592 -0.0691
15205W        W31099   8.259   4.927  16.136  0.0023  0.0067  0.1056
15206W        W31100  16.779   2.417  12.124  0.0932 -0.1846 -0.1509
15207W        W31101   7.957   7.445   1.548 -0.0628 -0.1322  0.0239
15208W        W31102  13.924  15.545   3.157 -0.1625 -0.1296 -0.0115
15209W        W31103  11.661  14.402  15.226 -0.2661 -0.1155 -0.3417
15210W        W31104  17.580  10.316   2.372  0.1072 -0.3913 -0.0722
15211W        W31105   8.348  13.557  15.254  0.3258 -0.2537 -0.2214
15212W        W31106  11.447   4.522  15.071 -0.1842  0.0708 -0.0543
15213W        W31107  12.318  16.385  16.339 -0.0612 -0.0378 -0.0211
15214W        W31108   5.155   3.358  15.437 -0.0037 -0.2412 -0.0176
15215W        W31109   6.403  14.377  11.173  0.1052 -0.1089 -0.0978
15216W        W31110   6.060  10.878  12.252  0.0876  0.0478  0.0785
15217W        W31111   7.774   9.477  12.104 -0.1745 -0.1420  0.1373
15218W        W31112   0.772   5.631   0.256 -0.3408 -0.0031 -0.1013
15219W        W31113   4.053   8.657  12.108 -0.0095 -0.2719 -0.2247
15220W        W31114  14.030  16.930   2.411 -0.1693 -0.0347 -0.0158
15221W        W31115   9.935  17.545   1.626  0.1220 -0.0709  0.0337
15222W        W31116   7.673  11.935   1.773  0.0467  0.0896  0.1842
15223W        W31117   9.391  18.031  16.250  0.1426 -0.1146  0.2759
15224W        W31118   6.822   9.487   0.939  0.0273 -0.2913 -0.0334
15225W        W31119   8.572   9.177   3.643 -0.0951  0.2113 -0.1598
15226W        W31120   6.687   6.809   3.104  0.2683  0.2455 -0.1447
15227W        W31121   8.485  16.097   3.795 -0.2435  0.0353 -0.1637
15228W        W31122   7.515   3.873  11.117 -0.1686  0.1090  0.0328
15229W        W31123  15.200   4.893   1.892 -0.0321 -0.1688  0.1199
15230W        W31124  12.041  17.721  15.955  0.0036  0.1318  0.0691
15231W        W31125  12.303   8.943  14.723 -0.1347 -0.2775 -0.2895
15232W        W31126  16.855  11.179   0.602  0.0143  0.0796  0.2490
15233W        W31127  11.397  13.337   0.239  0.0549  0.2837  0.5900
15234W        W31128   1.329  17.033   4.006  0.0006  0.1172  0.0032
15235W        W31129  16.107   5.067   1.646 -0.1137  0.0378 -0.1391
15236W        W31130  15.455   5.631  12.324 -0.4033  0.1497  0.2327
15237W        W31131   9.653   7.450  13.984 -0.6016 -0.1877  0.1019
15238W        W31132   9.083   7.315   4.390  0.1239  0.2134 -0.0239
15239W        W31133  12.809   1.444  11.722 -0.1410  0.1285  0.1500
15240W        W31134   4.673  17.429  12.283  0.0240 -0.2579 -0.3216
15241W        W31135   6.441   1.188   4.668 -0.4261 -0.2523  0.2862
15242W        W31136   1.797  10.569   2.501 -0.0768 -0.0554  0.1475
15243W        W31137   4.886   5.823  12.274  0.2808  0.1772 -0.0430
15244W        W31138   5.136   7.032  13.784 -0.3172 -0.0354  0.0401
15245W        W31139  10.776   7.848  14.403  0.0429 -0.1643  0.2283
15246W        W31140   6.411   0.699   3.740  0.4454 -0.0507 -0.1910
15247W        W31141   7.750  16.657  13.354  0.4124 -0.1274  0.1248
15248W        W31142   8.886  17.185   1.408 -0.1918  0.2335  0.1122
15249W        W31143  15.649  11.303  15.927  0.1761 -0.1149  0.4602
15250W        W31144   4.321  15.341  14.061 -0.1256 -0.0532 -0.2521
15251W        W31145  18.231  17.349  12.417  0.0128  0.2136  0.5093
15252W        W31146   6.249   2.605   5.334  0.0688 -0.1898 -0.0359
15253W        W31147   3.002   4.955   2.859  0.3215 -0.0142 -0.0068
15254W        W31148  16.732   3.726  11.819  0.0069  0.1942  0.0401
15255W        W31149  17.418   5.669  12.180  0.0045 -0.1346  0.2262
15256W        W31150  14.110  14.825   0.406 -0.2219 -0.2738  0.0294
15257W        W31151  14.144  14.027   4.272  0.2674  0.0711 -0.1535
15258W        W31152   7.477  13.861   0.511  0.0111  0.0808  0.0151
15259W        W31153  13.922   2.916   0.751 -0.0819 -0.1346  0.1135
15260W        W31154   8.768   1.214   2.025  0.0334 -0.0758  0.0543
15261W        W31155  10.511   4.964  15.700 -0.1943  0.0501 -0.1700
15262W        W31156  13.595   8.740  11.356 -0.1638  0.0881  0.1274
15263W        W31157  14.282   8.307  15.636  0.1867  0.3451 -0.3795
15264W        W31158   9.652   1.229   4.040 -0.0908 -0.4087 -0.2014
15265W        W31159   7.414  12.538  12.321 -0.1323  0.0570  0.1270
15266W        W31160   2.781   9.727  11.649  0.3403 -0.0584  0.2293
15267W        W31161   1.943   4.509  15.459  0.2447  0.3900 -0.0220
15268W        W31162  13.912  11.180  12.668  0.0872  0.1060 -0.2975
15269W        W31163  13.298  13.748   3.280 -0.1332 -0.3121 -0.1371
15270W        W31164   3.232   7.547   1.233  0.1603  0.1378  0.0667
15271W        W31165   0.446   9.768   1.696  0.2023 -0.0613  0.0163
15272W        W31166  14.348   5.956  12.038 -0.0119 -0.0324 -0.1682
15273W        W31167   3.157   3.559   0.750  0.1189  0.3066  0.1757
15274W        W31168   8.345   9.598   3.591  0.2869  0.4092 -0.1869
15275W        W31169  17.988   3.879  13.382  0.1072  0.0098 -0.3527
15276W        W31170   9.206   6.526  12.463  0.0124 -0.1019  0.1202
15277W        W31171  12.633  17.726   4.759 -0.0786 -0.2070  0.1493
15278W        W31172   3.583   7.550   4.245  0.1564  0.0409 -0.0231
15279W        W31173  14.869   0.453   5.536 -0.3336  0.1515  0.6540
15280W        W31174   0.577   5.594   2.176  0.0788  0.0040 -0.1320
15281W        W31175  16.461  11.087  14.351  0.0550  0.1794 -0.5602
15282W        W31176   8.307  16.503   2.829  0.1822  0.4582  0.0721
15283W        W31177   7.995   7.019  14.190 -0.0032  0.1321  0.2660
15284W        W31178   7.878  17.636  13.377 -0.2201 -0.1556  0.0887
15285W        W31179   4.431   2.621  11.765 -0.0145 -0.0963  0.3709
15286W        W31180  11.161   5.973   4.990 -0.0381  0.0074  0.3280
15287W        W31181  12.261  14.942   5.537 -0.2452 -0.1778  0.4042
15288W        W31182  16.111   8.507  15.608 -0.3966  0.1904 -0.2396
15289W        W31183   4.541   9.781  10.396  0.0269 -0.1988 -0.0390
15290W        W31184  14.749   3.938  13.978  0.0150 -0.0737  0.1456
15291W        W31185  17.598  18.205   3.276  0.0042  0.2415 -0.0997
15292W        W31186   5.246  16.451  13.736 -0.0039 -0.0193 -0.2437
15293W        W31187   1.894  14.587   2.135  0.1998 -0.2324  0.2715
15294W        W31188  11.211   6.389  13.673 -0.2268 -0.0883  0.0873
15295W        W31189  10.187   4.300  16.092  0.1451 -0.0262  0.0053
15296W        W31190  18.102   4.807   5.279 -0.2272 -0.0008  0.0160
15297W        W31191   4.460   0.601   1.860  0.1460 -0.0122 -0.0768
15298W        W31192   1.119  11.866   3.067  0.0683 -0.0059 -0.2268
15299W        W31193  11.047  11.301   2.830  0.0100  0.1611  0.1906
15300W        W31194   1.707   7.619  15.271 -0.1103  0.1686 -0.4922
15301W        W31195   8.465  17.672   0.570  0.1489  0.1276 -0.2118
15302W        W31196   3.970  16.023  16.433  0.0618 -0.2630 -0.0638
15303W        W31197   4.712   3.704  13.323 -0.0147 -0.2866 -0.1117
15304W        W31198  13.447  13.143  11.384 -0.2872  0.1402 -0.0717
15305W        W31199   5.501  10.662  12.489  0.0266 -0.0181  0.2704
15306W        W31200   4.803  11.859   4.006  0.1705  0.0501  0.0924
15307W        W31201   1.823   8.845  13.801  0.0009  0.2033  0.1643
15308W        W31202   1.665  17.922  12.705  0.0823  0.0292 -0.1402
15309W        W31203   7.691   1.127   4.531 -0.2247 -0.1146  0.3471
15310W        W31204   8.566   4.004   0.646  0.1610 -0.2790 -0.1914
15311W        W31205  11.574  16.875  13.382  0.0693  0.1007 -0.1270
15312W        W31206   1.668   7.066  14.374  0.1407 -0.2213 -0.2643
15313W        W31207   7.683   8.366  13.529  0.0255  0.0028 -0.0553
15314W        W31208  10.946  12.749   5.436  0.0618 -0.0165 -0.0189
15315W        W31209   1.045   3.019   3.203 -0.0620  0.0035 -0.1922
15316W        W31210   9.593  15.204   2.690  0.1839 -0.0094  0.2576
15317W        W31211   5.096  17.261  11.966 -0.0484  0.0005 -0.0416
15318W        W31212  14.557   7.464  14.510  0.3078  0.3829  0.1931
15319W        W31213  13.973   2.859   4.966 -0.0585 -0.0495 -0.0642
15320W        W31214  16.079   0.565   1.815  0.1266  0.0231 -0.0446
15321W        W31215  16.641  12.417  15.812  0.1969  0.1225 -0.3295
15322W        W31216   7.771  14.384  15.543  0.2847  0.1869 -0.3842
15323W        W31217  15.635  13.881   5.937 -0.1948  0.1958 -0.2056
15324W        W31218  16.613   6.089  11.754 -0.0369 -0.2974 -0.0485
15325W        W31219  12.329   0.676   2.873  0.1505  0.1885  0.0315
15326W        W31220   9.495   9.052   1.015  0.3301  0.0445  0.0300
15327W        W31221  16.872  13.126  14.950 -0.2017 -0.1994 -0.0194
15328W        W31222   7.960  17.326  12.820  0.0621  0.2071  0.0045
15329W        W31223   8.636   6.331  11.469 -0.0592  0.1903  0.1012
15330W        W31224   0.124   4.166  15.173 -0.0699  0.0480  0.0177
15331W        W31225  15.095  17.461  12.689  0.2267 -0.0374 -0.4359
15332W        W31226   4.292  10.852  16.328 -0.2246  0.1673  0.0152
15333W        W31227   7.224  18.174   5.230 -0.1744 -0.2178 -0.0748
15334W        W31228   3.896   3.270  16.100  0.0696 -0.2491  0.0525
15335W        W31229   7.836  17.759  13.824  0.1446 -0.1357 -0.0297
15336W        W31230   3.648  10.594   3.027 -0.2893  0.1617 -0.2370
15337W        W31231  14.088  17.071  12.174  0.3922  0.0885  0.1227
15338W        W31232  15.333   5.440  12.955  0.4765  0.0871 -0.2922
15339W        W31233   9.491  15.606   1.239  0.1750  0.2016  0.0846
15340W        W31234  10.079  12.776   0.151  0.1182 -0.1246 -0.1661
15341W        W31235  12.242   7.196  12.175  0.0440 -0.1482  0.1804
15342W        W31236  12.157   3.034   3.043  0.2673 -0.2030 -0.0503
15343W        W31237   6.507   9.923   1.557 -0.0576 -0.1920  0.2065
15344W        W31238   9.673  12.301   4.881 -0.0071 -0.1939  0.0592
15345W        W31239  13.822  15.971  11.308 -0.0775 -0.1266  0.0864
15346W        W31240  10.067  15.719   5.974  0.0450  0.0554 -0.0627
15347W        W31241   8.874   0.031  13.333  0.0095 -0.0716  0.4158
15348W        W31242  16.191  15.833  15.636  0.1839 -0.0965  0.1050
15349W        W31243  15.913  12.203   5.868  0.2691 -0.0961  0.0973
15350W        W31244  17.283  14.178  11.744 -0.1843 -0.0157 -0.2278
15351W        W31245   7.211   9.492  15.877  0.0812 -0.0661 -0.0751
15352W        W31246   0.927  12.362  13.089 -0.0114 -0.1266 -0.2671
15353W        W31247  12.688   0.951  13.094 -0.2472  0.0411 -0.1372
15354W        W31248  17.477   9.217  15.079 -0.1852 -0.0582 -0.4338
15355W        W31249   3.812  15.716   1.778  0.3968 -0.2160 -0.2126
15356W        W31250   0.128  13.451   5.721  0.2042  0.0427  0.0743
15357W        W31251   4.993   7.178  13.304 -0.1690  0.2138  0.0988
15358W        W31252  16.333   2.660  15.175 -0.1788 -0.0377  0.1651
15359W        W31253  15.285   7.403  12.809  0.1755  0.2571 -0.1529
15360W        W31254  16.693  13.502  13.778 -0.0983  0.3356 -0.2236
15361W        W31255  16.669   7.827  12.794 -0.0931  0.2356 -0.1342
15362W        W31256   7.148  11.107   3.932 -0.4546 -0.3382  0.1730
15363W        W31257  15.117   8.819   2.816  0.3356  0.0018 -0.1065
15364W        W31258  11.347  13.278  14.768 -0.1820  0.1786  0.1439
15365W        W31259   2.118  13.265  14.997 -0.2302  0.0977  0.2125
15366W        W31260   2.658   9.158   0.857  0.0837  0.3199  0.0860
15367W        W31261   0.626  14.740  11.917 -0.2130 -0.2309  0.1531
15368W        W31262   3.737   3.031  13.435  0.0766  0.0541  0.0241
15369W        W31263   5.662  16.662  15.159  0.1124  0.1025  0.2111
15370W        W31264   9.828  15.449  13.822 -0.0481 -0.2292 -0.1083
15371W        W31265   9.944   6.590  10.898  0.2932 -0.0409  0.3092
15372W        W31266  11.718   6.365  13.734 -0.0862  0.3455  0.3055
15373W        W31267  13.535  13.246   2.649  0.1191  0.1817  0.3446
15374W        W31268   5.756   1.683   1.611  0.1599 -0.1708 -0.2723
15375W        W31269   2.637   2.507  12.975 -0.2342  0.2039 -0.4553
15376W        W31270   0.029  15.947   1.896 -0.3004 -0.0395 -0.1852
15377W        W31271  10.448  17.923  13.063 -0.0927  0.0790  0.0448
15378W        W31272   5.472  17.563   2.445  0.3633 -0.0171 -0.0206
15379W        W31273   5.105   4.107  11.207  0.2173  0.0065  0.1183
15380W        W31274   9.882  14.277   4.460  0.1612  0.0490  0.1479
15381W        W31275   9.731  16.580   3.713 -0.2869 -0.0117  0.1416
15382W        W31276   7.473   1.462  15.708 -0.3065 -0.2180 -0.3628
15383W        W31277   5.623  15.086   0.515 -0.1258  0.3283 -0.1646
15384W        W31278   6.339  15.848  12.612  0.1054  0.2557 -0.0789
15385W        W31279  15.986   2.173   0.634  0.2917 -0.1967  0.0770
15386W        W31280   0.372  16.361   0.067  0.1860  0.2135 -0.1813
15387W        W31281   1.984  10.121  11.676  0.0666 -0.1089 -0.0986
15388W        W31282  12.962   6.327  12.270 -0.0985  0.0612  0.0643
15389W        W31283  17.622   4.926   2.151 -0.1136  0.2523  0.2230
15390W        W31284  15.306   9.962   2.879  0.0538 -0.0157  0.0162
15391W        W31285   7.280   9.190   2.954  0.0156 -0.1087 -0.2522
15392W        W31286  16.706   2.115   2.229  0.4995  0.3489 -0.0179
15393W        W31287   7.749  10.615  13.698 -0.4561 -0.1979 -0.1048
15394W        W31288  15.247   6.944  14.459 -0.2048 -0.1698  0.2180
15395W        W31289  12.666  16.195   1.265 -0.1902  0.1550  0.1656
15396W        W31290  13.084   1.230  15.938 -0.0135 -0.0069  0.3841
15397W        W31291  12.784  10.825  15.212  0.1370 -0.2839  0.0409
15398W        W31292  16.923  13.536   3.764  0.0828 -0.3003 -0.1454
15399W        W31293  17.702   9.744  14.508 -0.0390  0.2355 -0.3031
15400W        W31294  15.358   0.571  14.486 -0.0655 -0.1179 -0.1744
15401W        W31295   6.798  12.281  15.085 -0.0197  0.0189 -0.0434
15402W        W31296  12.615   0.875  12.016 -0.0608  0.1148  0.3161
15403W        W31297  13.478  14.229   0.078 -0.3476  0.3973  0.0652
15404W        W31298  11.103   0.678   1.761 -0.2514 -0.1446  0.0963
15405W        W31299  13.173  12.319  12.674  0.1847  0.1076 -0.0355
15406W        W31300  16.262   0.781  11.655  0.0510  0.4656 -0.0486
15407W        W31301  16.667  10.667   0.696  0.3551  0.1881 -0.1205
15408W        W31302   6.962   6.979   5.213  0.2903 -0.0678  0.1075
15409W        W31303  11.529   2.285   3.175 -0.1254  0.2341 -0.0216
15410W        W31304  12.602  17.189   1.432 -0.0940 -0.2020  0.0314
15411W        W31305  13.665   7.352   2.169  0.3474 -0.3099 -0.1150
15412W        W31306  14.637   1.867  13.436  0.1258 -0.0687 -0.0062
15413W        W31307   5.763   1.041   1.181 -0.3917 -0.1914  0.2578
15414W        W31308  16.703   2.191  13.699 -0.0846  0.2181 -0.0176
15415W        W31309  11.611  11.869  15.916 -0.2067  0.2494  0.2247
15416W        W31310   7.224   7.061  10.954  0.0404 -0.1855 -0.3293
15417W        W31311  11.826   7.798   2.527  0.1953  0.2870  0.0044
15418W        W31312   6.238   1.120   0.959 -0.0159  0.0771 -0.1317
15419W        W31313   5.710   2.398  16.354  0.0671 -0.2228  0.1525
15420W        W31314   4.810   6.445   5.022 -0.0107 -0.1520  0.1487
15421W        W31315   5.346   5.538  15.995  0.1788  0.1319  0.1338
15422W        W31316   3.392   0.106   2.332  0.1261  0.0462  0.0098
15423W        W31317   4.485  15.977   2.992 -0.3025  0.2334 -0.0610
15424W        W31318  18.219   0.700   0.331 -0.1377  0.0646 -0.2033
15425W        W31319   7.311   8.621  16.130  0.2514  0.4270  0.0828
15426W        W31320   2.597  14.991  15.975 -0.0631  0.0883  0.0306
15427W        W31321  10.965  15.526  15.372 -0.0616  0.2686  0.0033
15428W        W31322   4.809   7.592   3.557  0.0774  0.1814  0.0938
15429W        W31323  13.046   5.430  13.861  0.0481  0.2776 -0.0785
15430W        W31324   8.774  14.431   1.367  0.1057 -0.1269  0.3335
15431W        W31325   6.396   8.096   3.137 -0.0072 -0.0506 -0.1376
15432W        W31326   8.948  16.862  15.285 -0.0504  0.1811 -0.1432
15433W        W31327  17.769   7.365   3.823  0.2310 -0.4297  0.0240
15434W        W31328  13.621  15.993   4.604  0.0669 -0.0053 -0.1211
15435W        W31329   8.097  10.849  14.530  0.0301 -0.0677  0.2653
15436W        W31330   4.370  16.571  11.102  0.1755 -0.0541 -0.0324
15437W        W31331   9.368  17.820   0.773  0.3654 -0.1653 -0.2174
15438W        W31332   1.344   5.218  14.811  0.1213 -0.0551  0.2571
15439W        W31333   8.941   0.517   0.482  0.0274 -0.1920 -0.1759
15440W        W31334  18.062   1.441   6.618 -0.3320  0.3558 -0.0733
15441W        W31335  13.687  13.924  12.419 -0.1987 -0.0763  0.1000
15442W        W31336  10.809   9.535  11.349 -0.4040 -0.2306 -0.1898
15443W        W31337   4.124   1.263  12.732  0.4404 -0.0023 -0.2782
15444W        W31338   0.141  18.025  10.351  0.0868  0.4727 -0.1470
15445W        W31339   0.782  12.447  11.840  0.0574 -0.1924 -0.0452
15446W        W31340  18.105  14.324   4.342  0.1715 -0.3424  0.0232
15447W        W31341  15.883   7.710  13.367 -0.2441  0.0325  0.2511
15448W        W31342   9.137   1.618   5.369 -0.1157 -0.0261  0.0088
15449W        W31343   4.897   0.413   5.439  0.1119  0.1822  0.3825
15450W        W31344   4.579   7.027  15.874 -0.3942 -0.0019 -0.0303
15451W        W31345  15.194   1.295   2.475  0.1177  0.0844  0.1515
15452W        W31346  14.940  14.350   4.720 -0.2924 -0.0928 -0.0382
15453W        W31347   9.989  10.259   1.933  0.0954  0.0072 -0.0915
15454W        W31348  11.352  15.466   6.121  0.0613  0.1860  0.0659
15455W        W31349   7.765  10.206   2.221  0.0212 -0.2981  0.2646
15456W        W31350  15.041   6.817   0.118 -0.2287 -0.2080 -0.0167
15457W        W31351   1.100   4.610   1.903  0.1305 -0.1784  0.3877
15458W        W31352  18.023  15.586   1.572 -0.0545  0.2655 -0.0774
15459W        W31353  10.817   6.582  11.909  0.0819 -0.0894 -0.0638
15460W        W31354  16.449  16.636   4.423  0.1552 -0.1644 -0.0429
15461W        W31355   2.924  14.194   3.955  0.0956 -0.1708 -0.1770
15462W        W31356   7.400   5.086  16.200 -0.1075 -0.0934  0.0952
15463W        W31357  17.607   8.144  14.431  0.0676  0.0731 -0.2323
15464W        W31358   5.716  13.102   2.732  0.1646 -0.1198 -0.3407
15465W        W31359   3.397   6.119   2.849  0.1983 -0.2662 -0.1047
15466W        W31360  13.686  10.948  14.480 -0.0721 -0.2911  0.0670
15467W        W31361  13.838  11.780   1.757  0.3891  0.0802 -0.0638
15468W        W31362   8.461   0.554   0.812 -0.0783  0.3273 -0.2743
15469W        W31363   5.855  16.597   0.264 -0.0352 -0.0622 -0.0058
15470W        W31364  16.623   6.537   0.516 -0.0446 -0.0058 -0.1303
15471W        W31365   8.959   3.193   1.090 -0.0788  0.0135 -0.3189
15472W        W31366   1.160   5.849  13.591 -0.0802  0.2781  0.0242
15473W        W31367   8.546   2.783   2.908 -0.1293 -0.2421  0.1943
15474W        W31368  16.728   3.347   5.610 -0.1755  0.2089  0.0132
15475W        W31369  11.500   0.301   4.383  0.2055  0.3138 -0.2371
15476W        W31370  14.457   0.931   4.694  0.2959  0.1607 -0.3848
15477W        W31371  12.625  16.013  15.035 -0.1980  0.5361  0.1717
15478W        W31372  11.765   0.754  11.734 -0.0104  0.2311  0.1473
15479W        W31373   8.693   7.132  10.722 -0.0139 -0.0068 -0.2047
15480W        W31374  15.768  15.436  13.361 -0.0814  0.2340  0.0522
15481W        W31375   3.098  11.170  15.817  0.0664  0.1497 -0.1271
15482W        W31376  15.234  17.287   3.603  0.1362  0.0562 -0.1893
15483W        W31377  15.567   0.737  15.052 -0.1579  0.1030 -0.0527
15484W        W31378   3.102   8.653   0.267 -0.0209  0.1218 -0.4991
15485W        W31379  11.185  13.233  15.255  0.0881  0.1820 -0.0178
15486W        W31380   0.641   4.944  14.265  0.1560 -0.3024  0.3882
15487W        W31381  11.640   5.773   2.224 -0.0188  0.2664  0.2992
15488W        W31382   3.383  15.957  12.701  0.1444  0.0043  0.2741
15489W        W31383  10.800   4.499   1.249 -0.0997 -0.0351  0.0912
15490W        W31384   3.514  10.143   3.578  0.1681  0.0255 -0.1265
15491W        W31385   3.711   9.929   0.234 -0.1417  0.0418  0.1521
15492W        W31386  10.063  10.832   1.760  0.0241  0.1336  0.1899
15493W        W31387  16.032  15.218  13.881  0.2573  0.1945  0.0176
15494W        W31388   1.289   3.253  11.977 -0.0927  0.1318  0.1155
15495W        W31389  11.678   3.061   2.547  0.1865  0.1019 -0.1535
15496W        W31390   9.393   5.465  12.797 -0.0494  0.0228  0.3043
15497W        W31391   8.553   3.689  14.129 -0.2583 -0.1325 -0.0310
15498W        W31392   2.731  14.485  16.044  0.0811 -0.2961 -0.5249
15499W        W31393  14.954   0.476  12.961  0.1577 -0.1953 -0.3503
15500W        W31394  12.198  16.455  14.577 -0.0720  0.1390  0.1717
15501W        W31395   4.617   1.264   1.361  0.1975  0.1074  0.0165
15502W        W31396  17.742  12.104   4.529  0.0735  0.1209  0.0716
15503W        W31397   2.602  16.249  15.849 -0.1830  0.0821  0.0306
15504W        W31398   4.923   2.006   4.753 -0.0639 -0.1496 -0.0273
15505W        W31399   1.302  13.732  11.628 -0.1223 -0.1498  0.0655
15506W        W31400   8.060   7.234  13.241 -0.1296  0.0103 -0.0416
15507W        W31401   6.680   0.545   4.937  0.1811  0.2094  0.1312
15508W        W31402  14.611  17.368   1.463  0.0737 -0.1434  0.2847
15509W        W31403  11.101   4.632  16.317 -0.2295 -0.2436  0.0559
15510W        W31404   9.549  18.099  12.055 -0.4010  0.2936  0.0692
15511W        W31405   1.355   8.905  11.722  0.0891 -0.1160 -0.0654
15512W        W31406   7.261   8.812   0.567  0.0999  0.3497 -0.1617
15513W        W31407   5.894   4.123   5.304 -0.0279  0.1753 -0.3092
15514W        W31408   1.748   9.763  14.927  0.0281  0.0573 -0.1371
15515W        W31409  17.048  11.189   0.143  0.0076  0.0137  0.0425
15516W        W31410  18.115  12.732  15.079 -0.1104 -0.0119 -0.0397
15517W        W31411  14.919   9.815   5.851  0.2544 -0.0535  0.1517
15518W        W31412   6.545  13.991  15.008  0.1087 -0.0319  0.0148
15519W        W31413   8.407   9.706  14.808 -0.0416  0.1142 -0.1143
15520W        W31414  14.819   2.898   4.735  0.2710 -0.0063  0.1232
15521W        W31415  10.487  14.058  14.098  0.1857 -0.1770 -0.1970
15522W        W31416  17.713   4.350  14.080 -0.2820  0.3057  0.1368
15523W        W31417  14.527   8.371   4.671  0.0228  0.1723 -0.3421
15524W        W31418  14.205  16.310  12.449 -0.0046  0.0556 -0.1224
15525W        W31419   0.022   6.257  13.615 -0.0098 -0.0621 -0.0140
15526W        W31420  16.375   9.134   6.086 -0.2403  0.3087 -0.0032
15527W        W31421   8.225   0.224   0.319 -0.0929  0.0076  0.1732
15528W        W31422  16.902  17.889   1.717 -0.0380  0.2156  0.0298
15529W        W31423  15.328  10.648   1.795  0.1047 -0.0585  0.0776
15530W        W31424   8.318   4.413  12.780 -0.0627  0.0705  0.0115
15531W        W31425   3.511  12.501   0.918 -0.0557 -0.0649 -0.2846
15532W        W31426   9.036   2.728   1.419 -0.1449 -0.0308 -0.2046
15533W        W31427   8.113   0.250   3.718  0.2447  0.0152  0.2717
15534W        W31428   9.775   5.507  15.974  0.2572  0.3314 -0.3897
15535W        W31429  15.168  13.506  15.440  0.1115 -0.0968 -0.1239
15536W        W31430   8.243   8.611   0.695 -0.2608 -0.1815  0.1355
15537W        W31431   2.773   9.159  12.655  0.1092  0.0175  0.3974
15538W        W31432   4.788  15.066   5.637  0.0776  0.0238 -0.2885
15539W        W31433   0.190  17.884  15.754  0.1125  0.0873 -0.0532
15540W        W31434   1.232  11.098   5.747 -0.2017  0.0611  0.3408
15541W        W31435  13.657   9.650   0.909 -0.0360 -0.0017 -0.3056
15542W        W31436   0.445   3.433  15.555  0.0689 -0.1971 -0.2571
15543W        W31437   9.398  17.392   2.745  0.0557 -0.2724 -0.1631
15544W        W31438  15.855  11.086   6.106 -0.3418  0.0719  0.2779
15545W        W31439   5.586  15.136  12.187  0.2256  0.1834 -0.0584
15546W        W31440   8.231   4.392  12.164  0.1723 -0.4341  0.1449
15547W        W31441  10.508  16.149   2.945  0.1312  0.1325 -0.2734
15548W        W31442  15.177  17.392   0.646 -0.1766 -0.0759 -0.1996
15549W        W31443  13.015  12.151   3.888 -0.2376  0.0992 -0.0419
15550W        W31444  11.171  13.538  16.202 -0.1750 -0.0151 -0.2422
15551W        W31445  12.309  17.457  13.697 -0.2106  0.2225 -0.1253
15552W        W31446  10.598  12.385  14.740  0.1337  0.0284 -0.0170
15553W        W31447   8.356  15.359   2.846  0.0362  0.0941  0.1255
15554W        W31448  17.163   8.400   5.685 -0.0798  0.3243 -0.0735
15555W        W31449   1.892  16.836   4.744 -0.1147  0.0270  0.1345
15556W        W31450   7.413   8.173   4.844  0.0627  0.3797  0.0545
15557W        W31451   1.015  12.012   5.751 -0.0040 -0.4356 -0.1461
15558W        W31452  16.440  11.332  15.404 -0.2368  0.3139 -0.1641
15559W        W31453   5.201   6.498  14.025  0.1135 -0.3106 -0.0846
15560W        W31454   4.151   5.917  12.571 -0.1578 -0.0056  0.0244
15561W        W31455  17.577  16.412  15.107  0.1108  0.0984  0.1147
15562W        W31456  17.758   2.543  16.458  0.1593 -0.1205  0.0578
15563W        W31457   7.860  10.045  15.386  0.1507  0.2406 -0.0070
15564W        W31458  13.593   0.675  13.269  0.0094  0.0705  0.1437
15565W        W31459   4.593  16.544   2.755 -0.3027 -0.0411 -0.1809
15566W        W31460  10.030  12.101  12.777  0.6222  0.2451  0.1652
15567W        W31461  13.090  16.458  14.486 -0.0129 -0.0418  0.1153
15568W        W31462   6.514   2.642  12.719 -0.0565 -0.3084 -0.2024
15569W        W31463  11.872   6.596  13.299 -0.0340 -0.0417 -0.1910
15570W        W31464   3.647   7.244  11.995  0.0761  0.2829 -0.0229
15571W        W31465   4.809  10.592   4.414 -0.2135  0.5038  0.0878
15572W        W31466  16.902   3.675   0.611 -0.2940 -0.1623  0.0518
15573W        W31467   7.266  11.652   0.870 -0.0921  0.1954  0.0125
15574W        W31468   5.586   3.373  11.759 -0.0928  0.3691  0.0983
15575W        W31469  11.450   3.138   3.579  0.2037 -0.1358  0.0016
15576W        W31470  11.733   3.356  11.945  0.0262 -0.1039 -0.0393
15577W        W31471   9.056   0.538  12.031  0.1296  0.1057  0.4707
15578W        W31472   0.745   4.001   1.843 -0.3366 -0.0220  0.1071
15579W        W31473  14.396  11.506   1.246  0.0515  0.0527 -0.0418
15580W        W31474  15.394   7.941  15.432 -0.0588  0.2299 -0.1499
15581W        W31475   6.690  16.501   4.315 -0.1892  0.0776  0.1761
15582W        W31476   2.401   7.292  16.097 -0.1602  0.1351  0.4039
15583W        W31477  15.393  11.868   5.140 -0.1269 -0.2770 -0.2094
15584W        W31478  16.037   3.841  15.511  0.1399  0.2326 -0.0043
15585W        W31479   6.713  13.864   1.963 -0.1712 -0.1611 -0.0002
15586W        W31480  17.727   2.355  12.759 -0.0049 -0.1266 -0.4169
15587W        W31481   8.140  11.951   4.640 -0.0002 -0.0598  0.0102
15588W        W31482  15.385   7.211  15.719 -0.1878  0.0354  0.3718
15589W        W31483  16.178   8.882   3.737 -0.1968  0.0730  0.0673
15590W        W31484  10.043   1.081   2.925  0.0638  0.0872  0.0912
15591W        W31485  12.177   8.483   1.101 -0.2251  0.2243  0.1715
15592W        W31486  10.657  11.518   1.394 -0.1279  0.0860  0.1142
15593W        W31487   7.264   1.076   0.286 -0.2403  0.0711 -0.2077
15594W        W31488  18.049   7.731   0.960  0.2140 -0.1029 -0.1524
15595W        W31489   9.756   2.639   3.395  0.1087  0.2635 -0.2872
15596W        W31490   6.946  14.087   5.634 -0.0282 -0.0960 -0.0646
15597W        W31491  17.454   3.125   3.798 -0.2175 -0.2349  0.0095
15598W        W31492   1.586   6.196  16.193 -0.0593 -0.1220 -0.5038
15599W        W31493   5.579  10.054  14.512 -0.0095 -0.1358 -0.0687
15600W        W31494   0.128   9.336  13.303  0.0895 -0.0428  0.0245
15601W        W31495   1.888  14.034  10.768  0.3800 -0.3757  0.0717
15602W        W31496   0.994  13.991  12.401  0.0748 -0.1422 -0.0605
15603W        W31497   9.966   6.350  16.276  0.0069  0.2700  0.2807
15604W        W31498   9.635  10.982  13.214  0.2165 -0.3165  0.5478
15605W        W31499   3.405   2.477   1.121 -0.2868  0.0982 -0.0123
15606W        W31500  17.437  15.612  14.892 -0.0348 -0.0144 -0.2213
15607W        W31501  13.515  12.930   0.876 -0.0791  0.1448  0.0447
15608W        W31502   7.574   9.108  13.409  0.0665 -0.0327  0.0475
15609W        W31503   5.585  17.883  14.663 -0.0750 -0.0690 -0.0802
15610W        W31504   2.059  11.602   1.583  0.0012 -0.1923 -0.2829
15611W        W31505   3.743   0.555  13.502 -0.2732 -0.1295  0.1576
15612W        W31506   8.354  12.303  15.986  0.3233 -0.3052 -0.3599
15613W        W31507   2.098  11.316  13.691  0.0606  0.2043 -0.2489
15614W        W31508   1.471  13.017   4.541 -0.0639  0.1475 -0.2066
15615W        W31509   4.941  13.467   2.437  0.2904 -0.4956  0.0752
15616W        W31510   9.807   2.285  11.985  0.0715  0.2366 -0.1539
15617W        W31511   0.365   0.682  14.144 -0.2556  0.0300 -0.3801
15618W        W31512  12.228  12.635   2.132 -0.4279  0.0203 -0.2716
15619W        W31513  13.069   7.052  11.729 -0.0570  0.1615  0.1145
15620W        W31514   1.761  16.063  15.299 -0.1780  0.0169  0.0259
15621W        W31515  13.925  12.617   0.028  0.4291  0.1939 -0.2145
15622W        W31516  12.632   6.054   4.714  0.0128 -0.2833 -0.2079
15623W        W31517  11.169  17.430   1.496 -0.1775  0.1508 -0.3193
15624W        W31518   7.416   6.146  14.438  0.1576  0.1142  0.1834
15625W        W31519  11.584   2.719   1.084  0.0341 -0.3028  0.1112
15626W        W31520  13.765  10.461  12.146  0.4429 -0.1814 -0.2532
15627W        W31521   0.843  13.260  13.067  0.1820 -0.0530  0.0593
15628W        W31522   4.512   1.566  12.419 -0.2423 -0.2751  0.1665
15629W        W31523  14.400  15.825   2.871 -0.1241 -0.2240  0.0555
15630W        W31524  13.764   7.619   4.934 -0.2521 -0.0502  0.1125
15631W        W31525   3.049  13.447   1.164  0.2184  0.1647  0.1591
15632W        W31526   6.595   3.818  13.310 -0.1034 -0.1044  0.1610
15633W        W31527   6.653  17.416   1.047  0.0975  0.3179  0.1753
15634W        W31528  10.243   4.126  14.162  0.3479 -0.0722 -0.2892
15635W        W31529   4.109   3.574  12.563 -0.2456 -0.1296  0.0065
15636W        W31530  17.537  16.087   5.901 -0.0234 -0.0479  0.2390
15637W        W31531  12.632  11.027  16.253 -0.0209 -0.0710 -0.0883
15638W        W31532  16.762   5.564  12.394  0.0189 -0.3196 -0.0443
15639W        W31533  16.826   2.538  15.143 -0.1430 -0.0284 -0.1072
15640W        W31534   5.718   6.825  11.636 -0.1235 -0.2877 -0.0232
15641W        W31535   7.124  11.961  14.820 -0.0444 -0.0257 -0.3389
15642W        W31536  16.891   8.823   2.916  0.0321 -0.2542  0.6498
15643W        W31537   5.089   8.209  13.935  0.0980  0.0263 -0.2980
15644W        W31538  11.597   3.396   1.058  0.3179 -0.0850  0.0332
15645W        W31539   2.590  12.041  16.384  0.2052  0.0576  0.2072
15646W        W31540   1.035  12.552   5.598 -0.0083 -0.2793  0.0430
15647W        W31541   2.942   0.374  16.049  0.0629 -0.0941  0.0786
15648W        W31542   5.453  14.766   3.441  0.1844 -0.0418 -0.0872
15649W        W31543  12.841   2.232   3.553 -0.1754 -0.1851 -0.0133
15650W        W31544   4.962  11.113   4.550 -0.0580  0.1918  0.2959
15651W        W31545  16.783   7.599   4.092  0.1141  0.3968 -0.0233
15652W        W31546   4.568   0.777  14.352 -0.1710 -0.2906  0.0508
15653W        W31547   6.548   7.341   1.417  0.4202  0.0923 -0.0940
15654W        W31548  11.081   7.696   3.638 -0.0669  0.0392  0.0276
15655W        W31549   9.120   6.487   0.861 -0.0305  0.0782 -0.1682
15656W        W31550   5.144   4.448  12.549 -0.0544 -0.1364 -0.0898
15657W        W31551   0.652   6.041   4.811  0.0739 -0.0389  0.4373
15658W        W31552  16.524   0.895   3.007  0.2252  0.0524  0.2403
15659W        W31553  14.872   7.068   2.856  0.3215  0.2892 -0.0781
15660W        W31554   7.207   0.506  11.797 -0.0171  0.1595  0.0901
15661W        W31555   4.059   8.472  12.902  0.0774 -0.0767  0.0026
15662W        W31556   8.012   8.944  15.378 -0.0563 -0.0742 -0.0213
15663W        W31557  11.057   2.353  14.193 -0.2218  0.0040  0.0822
15664W        W31558  15.983  17.656  14.005 -0.2172  0.2614 -0.0200
15665W        W31559  17.509   7.040   4.067  0.0909  0.1279 -0.0792
15666W        W31560  13.960  11.810  15.946 -0.0799 -0.3741  0.2815
15667W        W31561  17.350   8.868   5.483 -0.2602 -0.0051  0.1248
15668W        W31562  17.874   3.134  12.861 -0.1987  0.0574 -0.2947
15669W        W31563  17.944   7.790   2.462  0.2529 -0.1467  0.2494
15670W        W31564  13.224   2.596  16.136  0.1614  0.3713  0.1470
15671W        W31565  11.179  13.367   0.720  0.0536 -0.2780  0.1333
15672W        W31566  11.184   9.029   0.285  0.1632  0.0491  0.1180
15673W        W31567   2.819   0.964   4.204 -0.0267 -0.0800 -0.1937
15674W        W31568   8.374   0.361  15.444  0.0130  0.1868 -0.2045
15675W        W31569   4.384   3.367   1.289 -0.2571 -0.3602  0.0663
15676W        W31570   5.683  15.603  13.342 -0.2105  0.1379 -0.0537
15677W        W31571   4.305  12.340  15.143  0.0146  0.0775  0.1635
15678W        W31572   2.371   1.106   2.097  0.0511  0.0470  0.0484
15679W        W31573  16.341   7.539  13.609  0.2179 -0.1542  0.2599
15680W        W31574   0.840  13.824   5.912 -0.0863  0.2735  0.5123
15681W        W31575   8.245  15.820  12.558  0.3160  0.1967 -0.0288
15682W        W31576   6.510  14.321  15.524  0.1065 -0.2249 -0.1053
15683W        W31577  11.078   4.844  14.980 -0.0745  0.0181  0.0747
15684W        W31578   7.857   9.894   5.917 -0.0171 -0.2352  0.2757
15685W        W31579   8.677  17.259   5.222 -0.2506  0.3079 -0.1126
15686W        W31580   8.219   4.194  14.124 -0.0980  0.0558 -0.1128
15687W        W31581  13.685   2.651   3.634  0.2328  0.0885  0.1661
15688W        W31582  13.737  12.259  15.726  0.1007 -0.1835  0.0481
15689W        W31583  11.113  13.009  11.862 -0.3014  0.1119  0.1519
15690W        W31584   3.046  15.586  12.577  0.3949 -0.0002  0.1183
15691W        W31585   6.168   0.588  15.835  0.1209 -0.1028  0.0436
15692W        W31586  17.572   8.018   0.331 -0.2851 -0.2216 -0.2457
15693W        W31587   8.435  11.232   4.265 -0.1313 -0.1654  0.2337
15694W        W31588  16.140  13.823  13.087 -0.1727 -0.3273 -0.2072
15695W        W31589   4.685   2.569  15.476  0.4706  0.0480  0.4721
15696W        W31590  15.443  12.971  14.804 -0.0952  0.1879 -0.0246
15697W        W31591   8.729  17.813   0.189 -0.1884 -0.1099 -0.1394
15698W        W31592   9.234  11.456   4.786 -0.0277  0.1030 -0.1108
15699W        W31593  14.105   2.302   2.163 -0.2882 -0.2103  0.1121
15700W        W31594   0.022  14.850  12.770  0.2801  0.1788  0.1876
15701W        W31595   2.821   6.310   4.739  0.1881 -0.0101 -0.1648
15702W        W31596   1.472  16.912   3.556 -0.0463  0.3323  0.0012
15703W        W31597  11.402   8.247   3.104  0.1157 -0.2338 -0.0625
15704W        W31598   4.441  10.116   6.022  0.1972  0.0982  0.1608
15705W        W31599   9.356  17.653   4.097 -0.1350 -0.2153  0.1933
15706W        W31600  15.807   6.073   1.721  0.3125  0.1773 -0.2198
15707W        W31601   3.891   1.664  12.412 -0.2555  0.1560 -0.2045
15708W        W31602   1.428   9.433  12.525  0.0872 -0.1002 -0.0305
15709W        W31603   4.898   9.541  13.767 -0.2232 -0.1094 -0.0881
15710W        W31604  10.540  13.728  15.103  0.3193  0.1617  0.0104
15711W        W31605  12.154  14.784  13.268 -0.2737  0.1611  0.0614
15712W        W31606  11.897   4.848   3.217 -0.2202  0.0682  0.0915
15713W        W31607  15.662   9.764  14.470  0.3631  0.1504  0.2046
15714W        W31608  12.621   0.277   3.643 -0.0361  0.0591  0.3125
15715W        W31609   0.061   3.181   4.964 -0.4208  0.1678  0.4054
15716W        W31610  14.398   6.854   2.383 -0.0237  0.0836 -0.1694
15717W        W31611   3.625   3.512  12.716 -0.0527  0.1580  0.3176
15718W        W31612   2.740  18.166   2.693 -0.0003  0.0824 -0.0119
15719W        W31613   3.847   6.163   3.069 -0.1108  0.2248  0.0982
15720W        W31614  15.847  15.649   1.572  0.1294 -0.2748  0.1547
15721W        W31615  13.949  16.932   5.390 -0.4131 -0.0743  0.2837
15722W        W31616  16.117  13.655   5.293 -0.0279 -0.0971  0.0354
15723W        W31617   8.382  12.856  13.774  0.0305  0.4056  0.1171
15724W        W31618   7.124   7.923  11.416  0.2421 -0.0969  0.1398
15725W        W31619   8.089   7.179  14.683 -0.0956 -0.1046  0.1302
15726W        W31620   3.903   1.889   3.426 -0.2454  0.1027 -0.3558
15727W        W31621  12.206   2.923   1.942 -0.0340 -0.0981  0.2595
15728W        W31622   7.780   8.127   3.932  0.2200  0.1788 -0.0337
15729W        W31623  17.853   0.981   4.098  0.2271 -0.1985 -0.1468
15730W        W31624  16.363   5.841   3.848 -0.3271  0.1422  0.1817
15731W        W31625  12.191  15.264  12.558 -0.1254 -0.1080  0.2071
15732W        W31626   0.685  11.987   3.909 -0.1272 -0.0043  0.0246
15733W        W31627  14.910  11.990   3.525 -0.2790  0.0026  0.0844
15734W        W31628   0.281  17.358  15.597 -0.0241 -0.1077  0.0062
15735W        W31629   5.534   7.176  16.345 -0.1073 -0.1572 -0.0064
15736W        W31630   7.347   6.232   3.320 -0.0573 -0.0216 -0.2367
15737W        W31631   5.852   5.929   1.418  0.2508  0.0384 -0.1825
15738W        W31632  16.235  12.030   4.666  0.1550  0.2940 -0.0325
15739W        W31633  17.490   7.636  16.462 -0.0089  0.3549  0.1155
15740W        W31634  15.315  15.848   0.687 -0.0779 -0.1907 -0.1452
15741W        W31635  11.184   2.807  11.502 -0.0412 -0.0396 -0.1609
15742W        W31636   9.963  10.427  11.709  0.1184  0.3315 -0.2206
15743W        W31637  18.122  10.715  12.199 -0.0202 -0.2972 -0.0313
15744W        W31638   4.983  12.430   5.894  0.2323  0.0292  0.3620
15745W        W31639   5.487  10.641   5.503  0.2226  0.0392  0.1613
15746W        W31640   6.234   5.455   0.622  0.6341 -0.5036 -0.2275
15747W        W31641   4.507   8.228   5.756  0.0504  0.0464  0.1515
15748W        W31642   9.061   9.744  10.937  0.1552  0.1581  0.0556
15749W        W31643  15.047   7.302  11.509  0.0347 -0.1951  0.2735
15750W        W31644  13.562   8.290  14.434  0.0715 -0.3254  0.3889
15751W        W31645   7.742   4.633  13.459  0.3318  0.0067 -0.1948
15752W        W31646  15.582   6.757   0.698 -0.2312 -0.1907 -0.0547
15753W        W31647   9.859   8.747  13.370  0.1258  0.1647 -0.0979
15754W        W31648  16.675  13.369   5.490 -0.2218  0.1339  0.2937
15755W        W31649  16.091  17.647   4.359  0.2390 -0.0182 -0.0375
15756W        W31650  14.212   2.493  14.080  0.1889  0.2437 -0.1403
15757W        W31651  14.641  17.902   5.268 -0.0548 -0.1755  0.0905
15758W        W31652  10.560  13.185   2.858  0.1947  0.0514  0.1317
15759W        W31653   9.079   3.956   3.833  0.1596  0.0234 -0.3166
15760W        W31654   7.103   0.114  15.693  0.0647 -0.0266  0.0188
15761W        W31655   4.389   9.846  15.463  0.3153  0.0443 -0.0479
15762W        W31656  10.259  14.534   3.156 -0.1338  0.1325  0.1824
15763W        W31657  16.595   7.216  12.709 -0.0419 -0.0235  0.4347
15764W        W31658   1.807   1.791   0.654 -0.0411 -0.1427  0.2538
15765W        W31659  11.259   9.982  14.709  0.1413 -0.2463 -0.3834
15766W        W31660   0.642   2.647   3.276  0.0156  0.0816  0.0245
15767W        W31661   9.943  13.660   5.454  0.1123 -0.1789 -0.0072
15768W        W31662  15.640   4.055   2.395 -0.1525 -0.2033  0.2067
15769W        W31663  12.636  11.719  13.652  0.1119  0.0401 -0.3576
15770W        W31664   0.940   3.112  13.221  0.2829  0.0066 -0.0171
15771W        W31665  14.458  16.362  12.873 -0.4504 -0.1743 -0.1258
15772W        W31666   6.101   2.591   4.817  0.1928 -0.0357  0.1347
15773W        W31667  14.540  17.277  15.560 -0.1691  0.4828 -0.1457
15774W        W31668  14.349  14.406  12.775 -0.0576  0.0527 -0.2169
15775W        W31669   6.030  18.112   2.987 -0.0946  0.1135  0.2052
15776W        W31670   0.230   4.295   4.230  0.2240  0.1114  0.0349
15777W        W31671   4.811   9.394  15.401 -0.1646  0.0691  0.1334
15778W        W31672   7.151   5.714  13.233 -0.0260  0.2395  0.0177
15779W        W31673   1.993   7.302   4.968  0.0697  0.1077  0.0499
15780W        W31674  18.206  15.246  10.853  0.0046  0.0551 -0.1683
15781W        W31675  11.733   9.529  11.152 -0.2785  0.2004  0.1665
15782W        W31676   8.959   9.594  14.018 -0.1679  0.0176 -0.1013
15783W        W31677  17.189  11.988   1.201 -0.0820 -0.4108  0.1431
15784W        W31678  11.003  15.467  13.971 -0.0605 -0.0463 -0.4778
15785W        W31679   0.305  10.051  12.870 -0.0071 -0.0423  0.2821
15786W        W31680   3.421  15.288   2.032  0.0569  0.0495 -0.3233
15787W        W31681   5.456  15.894  13.870  0.1365 -0.2873  0.1732
15788W        W31682  12.753  15.288  15.676 -0.0323  0.0613  0.1215
15789W        W31683   3.732   2.968   5.045 -0.1195  0.1015 -0.2585
15790W        W31684  12.642   6.340  13.682 -0.0449 -0.0497 -0.1250
15791W        W31685   8.830  17.780  11.169 -0.1952 -0.0788 -0.0692
15792W        W31686  11.282   7.270   3.808 -0.0764 -0.1243  0.2660
15793W        W31687  16.154   5.914   4.448 -0.1630 -0.1818  0.3985
15794W        W31688  17.288   7.558   5.166  0.2038  0.4280  0.0364
15795W        W31689   2.843   1.942  12.212 -0.0261  0.0354  0.0574
15796W        W31690   9.351  10.022   2.856 -0.1421 -0.7126 -0.1362
15797W        W31691  10.016   4.340   3.898  0.1520 -0.2094 -0.1164
15798W        W31692  11.888  10.008  15.700 -0.0405 -0.1838 -0.2728
15799W        W31693   6.973   9.380   4.327  0.0100 -0.2611  0.2068
15800W        W31694  12.869   4.941  12.370 -0.4712 -0.1824 -0.0401
15801W        W31695   8.988   1.432   4.456 -0.2741 -0.1709  0.0114
15802W        W31696  10.798   9.578  12.263  0.0368  0.0269 -0.2704
15803W        W31697  17.574  11.895  11.953 -0.2014 -0.0253 -0.1689
15804W        W31698   0.410   9.858  16.081  0.0793  0.1457  0.0197
15805W        W31699  10.482  10.015   3.952  0.0854 -0.2264  0.0103
15806W        W31700   0.831   5.150   0.774  0.1720 -0.2425 -0.1420
15807W        W31701   3.590  17.469   2.955  0.1304  0.1064 -0.1875
15808W        W31702   6.834   8.003   3.699  0.2152 -0.0791  0.1655
15809W        W31703  12.466   0.464  11.643  0.2115  0.4127  0.2435
15810W        W31704  14.484   0.464   2.574 -0.0133  0.1380  0.3227
15811W        W31705   3.651  13.551   1.255 -0.3296 -0.1609 -0.0651
15812W        W31706  17.275  13.948  15.071 -0.1495  0.0696 -0.0592
15813W        W31707   8.809   6.000  13.188  0.1910 -0.0610  0.2831
15814W        W31708   3.734   6.460  12.690 -0.1810 -0.5256 -0.1264
15815W        W31709   5.733   1.868   0.665  0.1379  0.1307 -0.1608
15816W        W31710   8.183   9.836  13.725 -0.1113 -0.1531  0.1528
15817W        W31711  16.835   7.292  10.903 -0.3068 -0.2473  0.1070
15818W        W31712   2.299  10.559   6.246 -0.2033 -0.3599 -0.3950
15819W        W31713  14.913  10.100  16.293 -0.2733 -0.3404  0.0422
15820W        W31714   9.283  12.335  11.645 -0.0614  0.0503 -0.1582
15821W        W31715  11.970  14.062  14.019  0.0247 -0.1622 -0.0004
15822W        W31716   1.821  10.740  14.566 -0.3620 -0.1530 -0.0687
15823W        W31717   1.589  17.452  12.959  0.4072  0.3608  0.1266
15824W        W31718  13.188  12.168   5.407 -0.1798  0.1521 -0.0157
15825W        W31719  11.331  11.238  14.558 -0.1763  0.2480  0.0585
15826W        W31720  14.167  14.975  16.217 -0.0158  0.0288  0.1023
15827W        W31721   6.650   4.578   2.989  0.0786 -0.0020 -0.1034
15828W        W31722   4.627  15.499  11.584  0.0369 -0.3661  0.0799
15829W        W31723   8.668   2.584   3.428  0.1393  0.1153  0.1371
15830W        W31724   7.334  11.597  11.602  0.3243  0.2331  0.1969
15831W        W31725   2.824   0.810  15.918  0.0045 -0.0435 -0.0758
15832W        W31726   6.660  15.517  13.497 -0.0765 -0.0593 -0.1476
15833W        W31727  17.533  13.747   5.097 -0.3108  0.1701 -0.0013
15834W        W31728   5.641   9.053  13.967 -0.0379 -0.2175  0.0077
15835W        W31729  11.627   5.846  11.834  0.2592  0.4373  0.2735
15836W        W31730   8.510   0.696   0.234  0.0400  0.0658 -0.2196
15837W        W31731  13.247   1.194   5.105 -0.0777 -0.1889  0.2975
15838W        W31732   5.533  11.434   4.082  0.0203  0.1321  0.0973
15839W        W31733  14.022   6.479   0.117 -0.1319  0.3313 -0.0570
15840W        W31734   8.742  14.472   4.626 -0.1514  0.2674 -0.1854
15841W        W31735   1.710  12.737  14.205  0.3940  0.2685  0.2199
15842W        W31736   7.192  13.633   1.778  0.0784  0.0133  0.1845
15843W        W31737   0.997   2.675  10.525 -0.2091 -0.1264 -0.3479
15844W        W31738  12.326   4.349   3.936  0.0387  0.0141 -0.1218
15845W        W31739  18.074   0.093   0.227 -0.2974  0.2883  0.1561
15846W        W31740   2.607  14.901  13.932  0.1375 -0.2803  0.0540
15847W        W31741  13.038   2.042   2.050  0.1878  0.0171 -0.1510
15848W        W31742   3.652  12.794  15.673 -0.0375  0.1437 -0.1081
15849W        W31743   4.243  16.041   5.054  0.5228  0.1651  0.4439
15850W        W31744   1.948   1.486   1.036  0.1859  0.1372  0.0512
15851W        W31745  17.373  15.137   4.211 -0.1939 -0.0391  0.1804
15852W        W31746   5.738   5.971  13.485 -0.1786 -0.0774  0.1742
15853W        W31747   6.199   4.484  15.905 -0.1365 -0.1956  0.6166
15854W        W31748  14.712   1.110   4.241  0.1816 -0.0670 -0.2403
15855W        W31749   2.729  10.719  16.211 -0.0475  0.1677  0.2496
15856W        W31750  14.321  12.777  16.274  0.1271  0.2604 -0.3956
15857W        W31751   4.869   2.234  15.950  0.0472 -0.0245  0.0092
15858W        W31752   2.803   7.313  15.869 -0.2089  0.3040 -0.1617
15859W        W31753   8.597  10.362   2.943  0.1909  0.4207 -0.1785
15860W        W31754   5.555  12.168  11.670  0.0709  0.0484 -0.1436
15861W        W31755   2.443   5.456   1.063  0.1193  0.0867  0.1098
15862W        W31756  10.313  16.673  12.108 -0.2253  0.0749  0.2458
15863W        W31757   1.023   5.785   5.115  0.0790 -0.1098  0.0447
15864W        W31758  15.524   5.441   4.312 -0.2001  0.1264  0.0179
15865W        W31759   7.921   9.584   4.912 -0.3386  0.1703 -0.0642
15866W        W31760  17.701  17.992  13.492 -0.0389 -0.1963 -0.3581
15867W        W31761   3.251   7.613   0.204 -0.0785 -0.1198 -0.3428
15868W        W31762  10.174  11.485   3.349  0.0004  0.3204 -0.0380
15869W        W31763  17.857   9.133  13.187  0.2564 -0.1263 -0.1305
15870W        W31764   1.412   6.799   0.923 -0.1787 -0.1307  0.0675
15871W        W31765  15.923  17.625  15.454  0.1330  0.0248 -0.3315
15872W        W31766   8.235   2.863   3.609 -0.2190 -0.0973  0.0581
15873W        W31767   6.444  16.878  16.056  0.4720  0.0884  0.0832
15874W        W31768   5.215  12.634  12.945  0.1607  0.1653  0.4047
15875W        W31769  11.509  11.217  15.118 -0.5862 -0.1063 -0.1058
15876W        W31770  17.004  10.172  11.849 -0.0744 -0.2799  0.1620
15877W        W31771  14.010   3.134   3.303 -0.2654  0.1804  0.3482
15878W        W31772   6.560   0.621   1.211 -0.1678 -0.0285  0.1549
15879W        W31773  13.513  10.863  12.055  0.2817 -0.1069 -0.0625
15880W        W31774   6.920   5.509   0.910  0.0966 -0.0467  0.0400
15881W        W31775  13.396   8.206   5.454 -0.0404 -0.1629  0.1436
15882W        W31776   0.244   1.826   0.180 -0.1116 -0.0142 -0.3208
15883W        W31777   6.861   7.643  14.002  0.1433  0.2252 -0.3468
15884W        W31778   3.198  10.034  14.493  0.3017 -0.1485  0.2203
15885W        W31779   5.749  16.295   3.981  0.3879  0.1926  0.0160
15886W        W31780   9.879   2.457  15.767  0.0647  0.1582 -0.1531
15887W        W31781   6.463  14.516  10.630 -0.0198 -0.0718  0.0520
15888W        W31782  16.114  10.450  13.085  0.2073  0.0412 -0.2124
15889W        W31783   7.391  16.062   1.939  0.0633  0.2692  0.0361
15890W        W31784   0.831   3.359  15.188  0.0936  0.0832  0.2120
15891W        W31785  12.228  13.821   1.793 -0.2157 -0.1625  0.0112
15892W        W31786   7.674  10.663  12.155  0.0282 -0.1053  0.1375
15893W        W31787  18.116   1.932   3.174  0.0975 -0.1208 -0.0992
15894W        W31788   8.920   9.505   4.015 -0.5696 -0.0250 -0.0942
15895W        W31789   8.389   6.583  11.870 -0.0423 -0.2020  0.0299
15896W        W31790   7.388   5.181   0.594  0.0733 -0.1551 -0.2106
15897W        W31791  16.587   6.744  13.715 -0.0411  0.1001 -0.0405
15898W        W31792  11.385  15.464  11.688 -0.0441  0.1535  0.1840
15899W        W31793   6.023   9.958  10.824  0.1271 -0.1500 -0.0480
15900W        W31794  13.758   8.670  16.195 -0.0098 -0.0599 -0.1228
15901W        W31795   0.461   0.858  10.978 -0.0713 -0.1044  0.0591
15902W        W31796  13.644   4.523   4.498 -0.1573  0.0585  0.0164
15903W        W31797  12.892  10.909   2.781 -0.2312 -0.1692  0.0199
15904W        W31798   8.754   3.626   4.076  0.1160  0.1207  0.1521
15905W        W31799   2.938   6.902   5.461 -0.2053 -0.0503  0.0922
15906W        W31800   6.413  14.270   6.142  0.0000 -0.1237 -0.0510
15907W        W31801  17.261   4.941  12.736  0.0236  0.1468 -0.1512
15908W        W31802  16.629   3.439   0.194 -0.3436 -0.0910 -0.0662
15909W        W31803   0.690  17.151   1.911 -0.0956 -0.2966 -0.1103
15910W        W31804  17.890  15.627  13.044  0.1993 -0.0463  0.1889
15911W        W31805   4.241   6.530  14.015  0.0168 -0.0800 -0.2210
15912W        W31806   5.765  17.340   4.651 -0.1133 -0.0092 -0.0863
15913W        W31807   8.013  15.357   2.034  0.1439 -0.0235 -0.0460
15914W        W31808  15.239   3.883   2.205 -0.0144 -0.1631 -0.0507
15915W        W31809   9.816   3.556   3.712  0.2617 -0.1287  0.3727
15916W        W31810   9.969  15.222   4.240  0.1477 -0.2507  0.0403
15917W        W31811   6.194  11.788  12.315  0.1037 -0.1845 -0.1417
15918W        W31812   8.663  13.173   4.667 -0.2242 -0.1316 -0.0603
15919W        W31813   8.088  16.996   3.333 -0.1130 -0.4524  0.3568
15920W        W31814   0.260  18.027   5.253 -0.0515 -0.0324 -0.0934
15921W        W31815   6.374  13.734  14.102 -0.1290  0.0969  0.1075
15922W        W31816   9.302   0.027   5.196 -0.0276 -0.0555  0.0753
15923W        W31817   9.652   6.137   0.308  0.1944 -0.1831  0.2397
15924W        W31818   9.141   9.057   3.112  0.1650 -0.0168 -0.0642
15925W        W31819   4.838  17.291   2.111  0.1196  0.2442 -0.2207
15926W        W31820   4.339   4.208   4.830 -0.1366 -0.0601 -0.0245
15927W        W31821   5.076  15.042   3.542 -0.0742  0.1048 -0.0972
15928W        W31822   3.354   9.476   1.263 -0.4115  0.1430 -0.0836
15929W        W31823  10.214  15.244   5.059  0.1597 -0.0624 -0.3307
15930W        W31824  14.682  13.084   1.618 -0.1458 -0.0018  0.2033
15931W        W31825  13.424   9.591   4.926  0.0998  0.0322  0.0142
15932W        W31826  15.850   9.400   3.091 -0.1086  0.0990  0.0302
15933W        W31827   2.996  12.033  15.990 -0.2238 -0.0115  0.1397
15934W        W31828  11.990  10.924   1.362 -0.2264  0.1412 -0.0215
15935W        W31829  13.067  13.325  12.469 -0.1438 -0.1086  0.0357
15936W        W31830  12.966  14.896  12.589 -0.0314 -0.0006  0.0614
15937W        W31831   9.419   6.154  13.905 -0.0617  0.0825 -0.2413
15938W        W31832  11.921  11.991  14.750  0.0733 -0.0038  0.2555
15939W        W31833   9.254  17.397   3.708  0.2569 -0.0395  0.1440
15940W        W31834  13.864   1.037  12.153  0.0795 -0.3584  0.0770
15941W        W31835   0.856   5.680  15.401 -0.0107 -0.1617  0.0908
15942W        W31836  17.136   5.844   4.489  0.1202  0.0748 -0.2235
15943W        W31837  12.256  15.931   4.150  0.1189 -0.1117 -0.0091
15944W        W31838  10.467  13.519  13.828 -0.2374  0.1223 -0.1850
15945W        W31839   3.405   5.262  11.460  0.0974 -0.0725  0.2565
15946W        W31840   0.013  14.217  14.533 -0.3960  0.1205 -0.4749
15947W        W31841   2.259   6.665  12.042  0.3476 -0.1045  0.0280
15948W        W31842   8.353  16.162   2.245  0.2169 -0.1019  0.1995
15949W        W31843  12.808  15.491   1.005 -0.2299  0.2107 -0.1912
15950W        W31844   5.049  14.619  11.429  0.2877  0.2548 -0.0495
15951W        W31845   7.363  10.633   0.572  0.1746 -0.1499 -0.0520
15952W        W31846   1.088  11.868   0.760 -0.1096 -0.0966  0.2224
15953W        W31847   2.597  12.356  13.566  0.0243 -0.2172 -0.1794
15954W        W31848  17.245  10.213  14.935 -0.0750 -0.4426 -0.1114
15955W        W31849   1.773  16.437  14.430 -0.0745 -0.0792 -0.0675
15956W        W31850  17.679   9.046   5.942 -0.0825  0.0112  0.3000
15957W        W31851  17.817  17.637  11.814 -0.0465 -0.1501  0.2302
15958W        W31852   2.633   6.520  15.943 -0.2324 -0.0760  0.0544
15959W        W31853  15.640  17.591   4.670  0.0941 -0.2524 -0.1004
15960W        W31854  17.506   3.852   0.548  0.0744 -0.0897 -0.0018
15961W        W31855  10.869  14.673  11.951 -0.0042  0.1050 -0.2980
15962W        W31856  12.496  15.567   3.194  0.0272 -0.0066  0.2079
15963W        W31857   4.018  11.566   0.230 -0.1973  0.0747 -0.3452
15964W        W31858   9.458   5.138  13.791 -0.0970 -0.1407  0.0189
15965W        W31859   6.929   1.567   3.518  0.1160 -0.2529  0.1192
15966W        W31860  18.203   3.425  14.487 -0.1637 -0.0849 -0.2747
15967W        W31861   1.207  12.069  12.749  0.1716 -0.0892 -0.0950
15968W        W31862   7.654  16.788  12.526 -0.1101 -0.0338  0.2236
15969W        W31863   7.236   6.058   2.320 -0.1995  0.4417 -0.1228
15970W        W31864  12.867  15.828   1.877 -0.4325 -0.1289  0.2444
15971W        W31865   1.878  13.998   4.763 -0.2113  0.1744  0.1048
15972W        W31866   3.359  18.097  12.410 -0.1436 -0.1346  0.0063
15973W        W31867   6.959   2.659   4.230  0.0888 -0.4317 -0.0354
15974W        W31868  18.020   4.294   5.168 -0.0714  0.2030 -0.0306
15975W        W31869  12.319   1.982  12.139 -0.1061  0.2510  0.1046
15976W        W31870   5.819  15.329  15.442  0.0780  0.2567  0.2034
15977W        W31871  10.133   1.749  16.276 -0.1470  0.0325 -0.1462
15978W        W31872   5.984   4.612  15.408 -0.0381 -0.0338 -0.0436
15979W        W31873  13.356   5.396   4.338 -0.4421 -0.1274 -0.1195
15980W        W31874   9.256  11.116   0.216  0.0273 -0.2994 -0.1054
15981W        W31875   6.650  13.808   0.924  0.0369 -0.1113 -0.1027
15982W        W31876   2.353  12.883  14.267  0.1475  0.2347  0.1386
15983W        W31877   6.687  11.993   2.552  0.0076 -0.1690 -0.2000
15984W        W31878   9.936   8.195  14.295  0.1322  0.1175  0.2453
15985W        W31879  11.692   5.123  13.185 -0.1636 -0.0368  0.1750
15986W        W31880   1.918   0.048  13.186 -0.1073  0.3909 -0.0030
15987W        W31881  11.675  17.398  11.704 -0.1507 -0.1304 -0.1196
15988W        W31882  15.700  12.094  13.932 -0.1925  0.2357  0.0759
15989W        W31883  12.645   1.808   5.347 -0.0743  0.3158 -0.3264
15990W        W31884  12.848  13.597   3.619  0.0825 -0.0120  0.1306
15991W        W31885   6.016   7.052  11.322 -0.1073  0.2005  0.0042
15992W        W31886   1.777  10.818   2.055  0.1910 -0.2421  0.1882
15993W        W31887   5.520   1.052  12.257 -0.0490  0.1308  0.0972
15994W        W31888  14.251  17.243  16.151 -0.0182 -0.2619  0.1586
15995W        W31889  17.388  18.017   4.281 -0.1095  0.1144  0.0358
15996W        W31890  11.158   3.839   0.568 -0.1259  0.4045  0.0701
15997W        W31891   3.141   1.920   4.793 -0.0335 -0.2383 -0.3296
15998W        W31892  17.353  12.751  14.336  0.0294  0.0999  0.0956
15999W        W31893   4.624  14.077  16.277  0.1447 -0.1230 -0.1221
16000W        W31894  11.675  16.554   3.808 -0.1012  0.0492  0.2394
16001W        W31895  13.231  10.185  12.023  0.0311 -0.0982  0.0306
16002W        W31896   4.947   2.652  11.566 -0.1892  0.0150  0.0561
16003W        W31897   5.164  17.754   0.340 -0.3289  0.1549 -0.0314
16004W        W31898   1.811   4.285   3.130 -0.1743 -0.1190 -0.1764
16005W        W31899   7.407   3.860   3.122 -0.1846 -0.1093 -0.3518
16006W        W31900  11.764  17.986  11.949 -0.0024  0.2630  0.0435
16007W        W31901  12.112  15.014  12.143  0.1660  0.0496 -0.1739
16008W        W31902  13.989  11.784  13.080  0.1362  0.1515 -0.1424
16009W        W31903   0.952  14.458  14.229 -0.0026  0.1031 -0.0958
16010W        W31904  12.254  11.780   5.269 -0.3494  0.1041 -0.1178
16011W        W31905   2.043  10.770  15.075  0.0912  0.1254  0.1043
16012W        W31906   1.164   0.696   5.185  0.1543  0.1790  0.1192
16013W        W31907   0.006  14.780   5.558 -0.4098 -0.0963  0.1177
16014W        W31908   1.820  11.945  15.474 -0.3053 -0.0318  0.1297
16015W        W31909   8.354  13.051   1.916  0.2789  0.1112  0.1381
16016W        W31910  10.965   3.465   1.471 -0.0047  0.0727 -0.3260
16017W        W31911   3.987   9.491  14.574  0.2336  0.1340 -0.2977
16018W        W31912  17.858   8.698   5.583  0.0780 -0.1631 -0.0812
16019W        W31913   7.492   1.357   1.875  0.1385 -0.1106  0.3592
16020W        W31914  17.738   7.359   4.463 -0.0981  0.2365  0.0243
16021W        W31915   9.720  13.051   3.209 -0.2559  0.1855  0.0116
16022W        W31916  15.021   5.787   4.159  0.0955 -0.1118  0.3274
16023W        W31917   6.050   2.665   3.765  0.1901  0.1431  0.3151
16024W        W31918  12.472  15.785  11.978  0.2077 -0.1628 -0.0662
16025W        W31919   2.008   7.814   1.655  0.2163 -0.2400 -0.0851
16026W        W31920   2.328   2.305  13.410  0.0179  0.0287 -0.1261
16027W        W31921   9.986   7.616  10.583  0.0292 -0.4389 -0.0139
16028W        W31922   2.139   5.318  14.017  0.0306  0.3243  0.1759
16029W        W31923   3.257   2.961  15.968  0.3815 -0.2869  0.2253
16030W        W31924   8.989   3.076   2.562 -0.0725 -0.3171 -0.0696
16031W        W31925   4.013   6.866   2.396  0.1110 -0.2156 -0.0786
16032W        W31926  17.302  11.392   1.393  0.3053  0.0764  0.0621
16033W        W31927  12.007   1.375  12.704  0.3442 -0.0062  0.2199
16034W        W31928  12.913  10.671   5.092  0.3440  0.1513 -0.3702
16035W        W31929  15.225   0.753  13.805 -0.2985 -0.1417  0.1320
16036W        W31930   5.525   5.143   4.903  0.4359  0.2786 -0.3931
16037W        W31931   0.547  10.155   2.047  0.0966 -0.0637  0.2144
16038W        W31932   6.564   2.047  14.801 -0.5505  0.0765 -0.1608
16039W        W31933  12.449   6.420  13.181  0.0081 -0.2752 -0.2011
16040W        W31934  17.082   1.147  11.880 -0.1152 -0.1826  0.1031
16041W        W31935   8.430  12.930  14.319  0.2638 -0.0810 -0.3930
16042W        W31936   1.589   0.374   2.533 -0.1842  0.1967  0.0301
16043W        W31937  11.934  10.460  14.298 -0.0874  0.1815  0.1712
16044W        W31938  10.295   4.005  14.693  0.3647 -0.0211  0.1757
16045W        W31939  18.181  15.709   2.891 -0.1794  0.0518 -0.1292
16046W        W31940   6.618  11.024   4.037 -0.1837 -0.2146 -0.3326
16047W        W31941  16.966  11.743   1.635  0.3995  0.0814  0.2723
16048W        W31942  14.544   5.941   5.048 -0.1805  0.0797 -0.0720
16049W        W31943  14.737   3.478  12.441  0.5038 -0.0025  0.3427
16050W        W31944   8.009   6.586   1.714 -0.2257 -0.2826  0.4631
16051W        W31945   9.859  12.093  15.976 -0.0499 -0.1292 -0.1903
16052W        W31946   5.956  16.997  11.994 -0.0822  0.1838 -0.3722
16053W        W31947  11.000  13.170  13.252 -0.0212 -0.0528 -0.3177
16054W        W31948  16.783   2.739   4.252 -0.0666 -0.0678  0.0669
16055W        W31949  15.397  17.937  14.949 -0.2889 -0.0087 -0.0385
16056W        W31950   5.838  14.656   0.921 -0.1536 -0.2524 -0.1397
16057W        W31951  16.600  17.030  15.025 -0.0879 -0.3879 -0.0493
16058W        W31952  11.104   3.142   3.202 -0.0053 -0.0330 -0.0251
16059W        W31953  12.561   2.791  12.576 -0.1041 -0.1862 -0.2631
16060W        W31954   5.252  12.904  16.002  0.0037 -0.0803 -0.2096
16061W        W31955  14.599   1.694  12.819 -0.3835  0.1090  0.1959
16062W        W31956   7.657  15.670  14.250  0.1766  0.3464  0.1721
16063W        W31957  11.426  17.467  15.962  0.2077 -0.1098  0.2121
16064W        W31958   3.040   9.104  13.620  0.4230 -0.0773  0.0337
16065W        W31959   2.985   4.376  13.127 -0.2846 -0.1447  0.2008
16066W        W31960  11.542  16.301  13.725  0.1390  0.1141  0.0735
16067W        W31961   3.529   6.181   3.473  0.4145 -0.1164  0.3687
16068W        W31962   9.378   6.721   3.985  0.2123  0.1303  0.1471
16069W        W31963   3.367   1.810   0.499  0.1999  0.2642  0.1450
16070W        W31964  13.143   0.637  14.690  0.1656 -0.0315 -0.0100
16071W        W31965   6.651  11.589  13.241 -0.1505 -0.1107 -0.5104
16072W        W31966  13.607  11.487   2.805 -0.1320 -0.2800 -0.0449
16073W        W31967   4.450  13.992   0.295 -0.1013  0.2253 -0.2533
16074W        W31968   8.923  16.364  13.899 -0.0529  0.1190 -0.1592
16075W        W31969  18.037  13.797  14.368  0.2171 -0.0981  0.1968
16076W        W31970  14.616  17.232   5.953  0.3158 -0.0468 -0.2156
16077W        W31971   9.600   0.296  10.086 -0.2032 -0.0378 -0.2358
16078W        W31972   1.852  17.141   2.589  0.2602 -0.0854  0.3923
16079W        W31973   5.254  10.440  14.516  0.1632 -0.0093  0.1290
16080W        W31974  18.068   1.564  16.006  0.1188 -0.0378 -0.0057
16081W        W31975   8.281   4.325   3.684  0.2306  0.0304 -0.0553
16082W        W31976  15.567   3.724  14.294  0.0516 -0.1640  0.1280
16083W        W31977  11.965   2.134   3.072  0.0391  0.1160 -0.2678
16084W        W31978  12.978  13.023  15.243 -0.2369 -0.1692  0.3711
16085W        W31979   5.903  16.541   5.051 -0.1352 -0.2406  0.2056
16086W        W31980   4.470   4.317   4.387  0.2601 -0.4730 -0.3791
16087W        W31981   4.778   7.822  12.214  0.0463  0.0493  0.2883
16088W        W31982   0.442  13.099  12.759 -0.0960 -0.1641 -0.0250
16089W        W31983   7.947  17.245  11.553  0.3334 -0.0314  0.0501
16090W        W31984  12.416  14.912  12.872 -0.2405 -0.2160 -0.4524
16091W        W31985   4.806  10.067  15.973 -0.0106 -0.2014 -0.2775
16092W        W31986  12.066   6.031   1.813  0.0954 -0.0661 -0.2508
16093W        W31987   1.456   9.930  12.499 -0.1107 -0.1105 -0.0488
16094W        W31988  12.438   2.837   0.842 -0.4400 -0.3150  0.0966
16095W        W31989   5.827  12.433   0.403 -0.3204  0.3413 -0.1174
16096W        W31990   4.133   1.131  15.028  0.1335 -0.0191  0.0942
16097W        W31991   0.389   1.042   3.409 -0.0365  0.0514 -0.0448
16098W        W31992   8.630   9.531  13.601  0.1619 -0.3901 -0.2503
16099W        W31993   4.040  14.908   4.030  0.0552 -0.0938 -0.0981
16100W        W31994   2.504   7.657  12.385 -0.2465 -0.0548  0.1184
16101W        W31995   5.510   2.693  15.970  0.1600  0.1804  0.0912
16102W        W31996  13.249   2.404   4.176 -0.0969  0.0936  0.1442
16103W        W31997   6.551   7.704   0.238  0.1437 -0.0782 -0.0193
16104W        W31998  17.703   6.564   4.083  0.1381 -0.0228 -0.0788
16105W        W31999  10.588  12.257   2.039  0.0088 -0.2270 -0.0838
16106W        W32000  15.496   2.728   1.396 -0.3380 -0.0199 -0.0444
16107W        W32001   8.974   5.778   9.978  0.1789 -0.0980 -0.0040
16108W        W32002  14.169  15.695   3.858  0.3215 -0.0368 -0.1117
16109W        W32003  17.634   8.859  14.631  0.2726  0.0600 -0.0138
16110W        W32004   2.851   4.786  12.811  0.1031 -0.1825  0.1096
16111W        W32005  17.117  16.411  15.443  0.0242 -0.0575  0.1465
16112W        W32006  17.323  14.636   3.024 -0.2337 -0.3376 -0.1888
16113W        W32007  13.849   1.733   4.757 -0.0456 -0.1801  0.2624
16114W        W32008   9.710   6.272  15.231  0.0878  0.0842  0.0455
16115W        W32009   3.364  13.600   0.313 -0.2875  0.0487  0.1505
16116W        W32010  16.784   4.958   4.852  0.3126  0.3003 -0.1739
16117W        W32011  13.571   6.998   5.482 -0.0155  0.1917 -0.3382
16118W        W32012   9.509  11.813   2.765 -0.0165  0.1532 -0.1994
16119W        W32013   3.978   8.218   1.288  0.0140 -0.2335 -0.0868
16120W        W32014  16.931  13.409   0.267 -0.2614  0.0378  0.0489
16121W        W32015   6.297  14.380   0.802 -0.1387 -0.1602 -0.0062
16122W        W32016  11.581  15.633   1.703 -0.0504  0.2418 -0.0453
16123W        W32017   4.409   0.523   3.212 -0.2582 -0.3563 -0.1095
16124W        W32018   8.618   1.537   5.546  0.0674 -0.0980  0.1274
16125W        W32019   5.006  11.460   5.441 -0.0298  0.0922  0.1238
16126W        W32020   6.415   0.207   0.804 -0.0335 -0.1629  0.2195
16127W        W32021   7.067   4.192   0.787  0.0094  0.3660  0.1140
16128W        W32022  11.167  17.320   0.885  0.1806 -0.1691 -0.0427
16129W        W32023   9.125   9.183  15.411  0.0132  0.0475  0.2888
16130W        W32024  12.626   9.348   1.022 -0.1401 -0.3476 -0.1086
16131W        W32025  14.673  11.384   3.087 -0.2754 -0.3009 -0.2664
16132W        W32026   2.658   1.680   5.920  0.0230 -0.0172 -0.1622
16133W        W32027   6.009   9.874  15.857 -0.3255 -0.0115 -0.3193
16134W        W32028  16.450  14.749   0.763  0.0461  0.1622 -0.2457
16135W        W32029  17.391   9.741   1.668  0.5253  0.2548 -0.1239
16136W        W32030   9.753  17.317  14.625  0.0690  0.1614 -0.3167
16137W        W32031  12.023   0.572  12.196 -0.1188  0.4438  0.0964
16138W        W32032   0.841   9.733  11.733 -0.0239  0.6529  0.0085
16139W        W32033  13.293   3.113   0.152  0.1516  0.2154 -0.1373
16140W        W32034  11.681  12.492  16.160 -0.0053 -0.0608  0.0628
16141W        W32035   7.862  17.761  11.472  0.0491  0.0441 -0.0368
16142W        W32036  15.489   5.807  11.451 -0.1908  0.0145 -0.1550
16143W        W32037  15.967  17.100  16.174 -0.1419 -0.3031 -0.0863
16144W        W32038   0.842  12.451  15.425 -0.3437 -0.0836  0.0509
16145W        W32039  12.981   4.116  15.775 -0.0868 -0.0908 -0.1244
16146W        W32040   1.789   2.225  14.162 -0.2452 -0.0125  0.4986
16147W        W32041  14.448  15.413  14.916 -0.2144 -0.0474  0.2018
16148W        W32042   0.036  12.111   2.077 -0.0809  0.3941  0.0769
16149W        W32043  12.981  13.813  13.641 -0.2156 -0.0923  0.0980
16150W        W32044   6.158   8.573  11.260  0.1073  0.0774  0.2656
16151W        W32045  11.512   8.075   3.774  0.1404  0.2899  0.0260
16152W        W32046   4.049  17.312   3.062  0.1253  0.1163  0.0546
16153W        W32047   6.794   3.090  12.704 -0.2467 -0.1861 -0.0390
16154W        W32048  10.796   4.180   1.692  0.1027 -0.0793  0.2714
16155W        W32049  14.963  10.336   2.992  0.3411 -0.0829 -0.1603
16156W        W32050  17.016  10.953   3.654 -0.1465 -0.2204  0.0096
16157W        W32051   0.061   6.906  12.882  0.0808  0.2825  0.0448
16158W        W32052   8.706   0.103   0.203  0.2936  0.1584  0.2480
16159W        W32053   2.983  12.967   6.047  0.1104 -0.3271 -0.0237
16160W        W32054  16.667  11.180   3.909  0.0435  0.5161 -0.0100
16161W        W32055  18.117  15.816   0.932  0.3308  0.0456  0.2535
16162W        W32056  10.919   8.942  16.313 -0.3006  0.0426  0.0260
16163W        W32057   7.057   1.541   1.081 -0.2617  0.0419 -0.0484
16164W        W32058  17.571   1.791  15.365  0.3723  0.0976 -0.0232
16165W        W32059   8.532   6.130   1.479  0.0606 -0.3310 -0.1909
16166W        W32060  14.832  13.482   4.222  0.0719 -0.3216  0.1315
16167W        W32061  10.603  11.620   1.938  0.0450 -0.1585  0.1733
16168W        W32062  18.007  13.153   3.944 -0.0149 -0.0210  0.0847
16169W        W32063   2.550  10.738  14.770 -0.1040 -0.2372 -0.3048
16170W        W32064  10.526   1.754  14.452 -0.3707 -0.2498 -0.3259
16171W        W32065  13.865  16.006  12.112  0.1093 -0.0176  0.0811
16172W        W32066   4.913   2.117  16.438  0.2021  0.0471 -0.0989
16173W        W32067   8.487   9.230  12.872 -0.2554 -0.0938 -0.0785
16174W        W32068   0.825   0.088   0.602  0.0052  0.3189  0.1636
16175W        W32069  14.046   2.682   1.211  0.0300 -0.1858  0.0499
16176W        W32070   6.966   2.248   1.830  0.0751  0.0933 -0.0876
16177W        W32071  13.403  11.236  14.180  0.1110 -0.0251  0.1429
16178W        W32072   2.027   4.821   2.189  0.1181 -0.0066  0.1759
16179W        W32073   0.268  14.367  11.688 -0.0541  0.2074 -0.2769
16180W        W32074  15.801   4.176   1.161 -0.1750 -0.0105  0.2726
16181W        W32075   7.274  13.903   2.338  0.0906 -0.0022  0.0522
16182W        W32076   5.447  17.975  13.841  0.1454  0.0657  0.0094
16183W        W32077  13.400   2.031  13.394 -0.3319  0.1826  0.1827
16184W        W32078  12.456   1.662  15.204 -0.3248 -0.2827 -0.2060
16185W        W32079   4.675   8.916   3.669  0.0972 -0.4031  0.1466
16186W        W32080  14.308   7.055  14.343  0.0583 -0.1474 -0.0079
16187W        W32081   3.891  13.489   5.018  0.1872 -0.2342 -0.0284
16188W        W32082  14.350   6.683   1.134  0.0680  0.0695  0.1116
16189W        W32083  12.790   2.561   4.528  0.3197  0.3227  0.0921
16190W        W32084  16.139  14.582   3.635  0.1008  0.1783 -0.1828
16191W        W32085   7.975   0.075   2.709  0.0663 -0.3616 -0.3633
16192W        W32086   2.061   8.634  12.570 -0.0676 -0.1444 -0.1736
16193W        W32087   2.560  15.710   3.563 -0.0266  0.1957  0.0581
16194W        W32088   3.739   7.840   3.816 -0.5261  0.2381 -0.0825
16195W        W32089   3.903  16.900   3.311  0.0821  0.3989 -0.1073
16196W        W32090   9.411  14.848   2.228 -0.0782  0.0459  0.2061
16197W        W32091  11.167  17.944   1.310  0.0400  0.3548  0.1011
16198W        W32092   3.094  16.270  16.171 -0.2619  0.0614 -0.0462
16199W        W32093   6.902  11.353   1.130  0.2737  0.0579  0.1855
16200W        W32094   1.891   6.603  12.827 -0.2470 -0.0347 -0.2788
16201W        W32095  12.423   8.476  11.580 -0.1486  0.1491  0.1898
16202W        W32096  13.661   5.808  14.715 -0.0155  0.0893  0.0684
16203W        W32097   9.655  17.444  14.062  0.0877  0.0608 -0.0322
16204W        W32098   4.407  16.143   5.750 -0.4595 -0.0064  0.0685
16205W        W32099   0.816   8.901   0.205 -0.2151  0.0247 -0.0979
16206W        W32100  11.214   2.133  13.792  0.2818  0.1958  0.0524
16207W        W32101   8.267  18.191   4.196  0.1127  0.2099 -0.0211
16208W        W32102  16.579  10.247   5.710  0.1292 -0.1186 -0.2781
16209W        W32103  15.530  10.180   5.961 -0.1038  0.0893 -0.1575
16210W        W32104  17.600   4.887   0.321 -0.0140  0.0420  0.1249
16211W        W32105  15.703   1.558   0.427  0.2934  0.0008  0.0801
16212W        W32106  10.270   3.424  11.351 -0.0614  0.1033  0.1759
16213W        W32107   0.426  15.887   0.942 -0.5389 -0.1977 -0.1671
16214W        W32108   8.425  14.113  10.307 -0.1556 -0.3349 -0.1892
16215W        W32109   8.339  14.242   3.199 -0.1076  0.3667  0.1726
16216W        W32110  15.831  16.591  12.965  0.3644 -0.0006  0.0331
16217W        W32111  17.548  12.684  15.148 -0.1159 -0.1230  0.3355
16218W        W32112   2.225  11.644  16.313 -0.1317  0.0967  0.0193
16219W        W32113  11.747  10.160   4.034 -0.0802 -0.2049  0.0475
16220W        W32114   3.395  10.288   5.383 -0.2875 -0.2573 -0.0808
16221W        W32115   8.347   4.363   3.176 -0.2362  0.3045  0.2175
16222W        W32116  14.908  15.220  16.100 -0.0346 -0.3090  0.2180
16223W        W32117  12.388   6.545   4.765 -0.4553 -0.2086  0.1278
16224W        W32118  11.594   4.859  16.457  0.0358 -0.1089  0.0330
16225W        W32119  18.026  12.753  13.573 -0.1251 -0.1163 -0.0971
16226W        W32120   1.732   8.231  16.203 -0.0133 -0.0160  0.1472
16227W        W32121  11.078  16.238   3.196  0.1452 -0.2404 -0.3243
16228W        W32122  11.966   4.528   5.509  0.0388 -0.3519 -0.0110
16229W        W32123   9.254   0.919  12.407 -0.1071  0.1348  0.3145
16230W        W32124   4.847  14.644   3.773 -0.1482 -0.0912  0.0024
16231W        W32125  17.797  13.271  11.769 -0.1670 -0.1418  0.0145
16232W        W32126   3.711  11.574  11.469  0.0399  0.0649  0.1602
16233W        W32127  13.457   7.669  13.476 -0.0670 -0.2306 -0.1369
16234W        W32128   1.195   1.125  13.006  0.0809 -0.0397  0.2389
16235W        W32129  14.901  14.181   3.629  0.0042  0.0749 -0.3261
16236W        W32130  11.472   6.505   2.088  0.0766 -0.0483 -0.2516
16237W        W32131  15.393  17.851  12.917  0.0333  0.1235  0.0796
16238W        W32132  14.367   7.313  12.958  0.2358 -0.1744 -0.5278
16239W        W32133  10.635  11.015   5.158 -0.0351  0.3055  0.1993
16240W        W32134   8.071   2.613  13.329  0.0717  0.4756  0.1341
16241W        W32135  17.275   4.348   0.981  0.1365 -0.0314  0.2241
16242W        W32136  17.521  15.405   0.210  0.0761 -0.2294  0.1129
16243W        W32137  16.914   6.857  16.120 -0.3075 -0.0251  0.2032
16244W        W32138   3.280  13.486  15.707  0.0616 -0.2926 -0.1344
16245W        W32139   4.237   2.640   2.931  0.0047 -0.1576  0.2419
16246W        W32140   9.492  13.882   1.332  0.1582  0.1500  0.3165
16247W        W32141   8.149  16.624  13.113 -0.3172 -0.1059 -0.2383
16248W        W32142   1.439  16.434  15.181 -0.0292  0.1854  0.0158
16249W        W32143   0.167  10.016   5.482  0.4348 -0.2264 -0.2794
16250W        W32144   0.276  10.108   1.300 -0.2883  0.0519  0.0556
16251W        W32145   4.667   3.357  11.077  0.0745 -0.0699 -0.1114
16252W        W32146   0.429   5.530   1.259  0.2146  0.1433 -0.0641
16253W        W32147  14.490   4.328   0.589 -0.1095 -0.0742  0.5088
16254W        W32148  12.952  11.373  14.456 -0.0117 -0.0638 -0.0069
16255W        W32149   2.367  18.127  13.277 -0.4504  0.0721 -0.3006
16256W        W32150  16.988   3.399  12.107 -0.0208 -0.0769  0.2516
16257W        W32151   8.611  11.037  11.345  0.1352 -0.1446 -0.2720
16258W        W32152   2.396  16.479  12.437  0.0133  0.2110 -0.1405
16259W        W32153   0.664  10.374   3.223 -0.0996  0.2016 -0.2621
16260W        W32154   2.152   1.254   1.446  0.1688  0.0636  0.1213
16261W        W32155  12.404   3.251   0.232  0.1651 -0.1099  0.0191
16262W        W32156  13.451   2.828  11.401 -0.0051  0.1911  0.0462
16263W        W32157  13.829   9.480   3.612  0.5245 -0.3377 -0.0709
16264W        W32158  14.568   4.579  14.580  0.0358 -0.1028  0.3062
16265W        W32159   5.705   5.596   2.732 -0.1113  0.4856  0.2581
16266W        W32160   2.925   2.675  13.909 -0.2759  0.0237 -0.0869
16267W        W32161  10.830   9.021  15.495  0.2644 -0.0763  0.0528
16268W        W32162  16.173  11.671  12.063 -0.1851  0.0763  0.0741
16269W        W32163  14.041  17.942   2.432  0.2273 -0.0110  0.0946
16270W        W32164  15.351  13.655   1.436 -0.1888  0.2162  0.2728
16271W        W32165  16.359   1.470   1.874  0.2645 -0.0865 -0.1862
16272W        W32166   4.612   9.599  15.950 -0.4680  0.1377  0.3514
16273W        W32167   6.563  10.498   0.175 -0.2279  0.2165  0.0423
16274W        W32168  13.435   6.202  12.257 -0.3552 -0.0104  0.0856
16275W        W32169   3.655   8.042   6.065  0.0690  0.1633  0.1566
16276W        W32170  10.854   9.539  13.186  0.1117 -0.3337 -0.0528
16277W        W32171   2.068  10.253   2.229  0.0112 -0.0256 -0.2858
16278W        W32172   6.817   6.942  13.134 -0.1718 -0.3368 -0.1473
16279W        W32173  12.888  17.594   4.209  0.3263 -0.2414  0.0541
16280W        W32174   6.834  11.477  13.736 -0.0410  0.3616 -0.1730
16281W        W32175   8.658   9.494  10.670 -0.1130  0.4521  0.4510
16282W        W32176  13.408  14.675  15.017  0.4385  0.1684  0.0720
16283W        W32177   4.523  11.365  11.172  0.2534  0.2263  0.3398
16284W        W32178   8.451  11.054  14.243  0.1063  0.1223  0.1206
16285W        W32179  17.748   1.729   5.373  0.0981 -0.0671 -0.0373
16286W        W32180   7.275  15.356  12.885  0.4166 -0.0979 -0.2948
16287W        W32181  10.998  11.021   3.541 -0.2235  0.0906 -0.1375
16288W        W32182  11.262   1.481  11.606 -0.1823  0.1349 -0.0800
16289W        W32183  11.777   4.930   3.697  0.1265  0.0047  0.3474
16290W        W32184  11.348  16.379  14.961 -0.1404 -0.4092  0.1107
16291W        W32185   5.691   1.523   1.135 -0.2356  0.0437  0.0135
16292W        W32186   6.002  17.840  10.706 -0.1191 -0.0308  0.0735
16293W        W32187   8.792  17.102   1.931 -0.3785 -0.0316 -0.2529
16294W        W32188   5.604  13.587  12.387 -0.1842  0.0307 -0.4330
16295W        W32189  12.590  14.167   0.984  0.3906 -0.2249  0.1453
16296W        W32190  12.129   4.628  13.074  0.1748  0.1949  0.0294
16297W        W32191   2.927  15.533   6.077 -0.0463 -0.0901 -0.0468
16298W        W32192   0.323   5.094   0.972  0.0389 -0.1992  0.0790
16299W        W32193   3.617   0.645   1.245  0.3229  0.0245  0.0591
16300W        W32194  10.760  12.731  12.312  0.1182  0.0476  0.0384
16301W        W32195   7.540  14.690  12.552  0.1511  0.1806 -0.1701
16302W        W32196  16.004   2.052   4.872 -0.0179  0.0823  0.6267
16303W        W32197  12.149   9.038   1.333 -0.0137 -0.0299  0.1727
16304W        W32198  10.172  10.788   4.504  0.1785 -0.2581 -0.0333
16305W        W32199  15.688   4.760   2.649 -0.3188  0.0035 -0.3265
16306W        W32200   2.423  14.698  16.394  0.0230  0.0109  0.0575
16307W        W32201  17.927  16.064   2.264 -0.1108  0.0047  0.2221
16308W        W32202   8.146   1.647   4.289  0.4717  0.1875  0.2530
16309W        W32203   4.340   7.463  13.996 -0.0363 -0.2208 -0.2267
16310W        W32204  15.434   3.292  16.003 -0.1343  0.1499 -0.1945
16311W        W32205   0.151  15.303  15.587  0.4496 -0.2269  0.1447
16312W        W32206  15.459   3.291   5.408  0.2329 -0.2040 -0.1042
16313W        W32207   9.109   8.433  10.212 -0.1922  0.2721  0.0891
16314W        W32208  14.794   1.519   0.411  0.0972  0.2906 -0.1701
16315W        W32209  14.010  10.932  12.259  0.0284 -0.0460  0.2452
16316W        W32210   3.197   5.188  14.360 -0.2266  0.2092 -0.1291
16317W        W32211   9.071   0.433   5.387 -0.1899  0.2002 -0.0583
16318W        W32212  14.007   5.509  15.450  0.0535  0.2518 -0.0350
16319W        W32213  15.364  15.383  15.389 -0.0255  0.1043 -0.0841
16320W        W32214  11.363   7.066  14.957 -0.0254  0.0184 -0.0686
16321W        W32215  17.174  15.746   1.709  0.0061  0.0073 -0.0538
16322W        W32216  13.158  16.947   4.846 -0.0117 -0.0972 -0.2068
16323W        W32217   2.386   0.403   5.996  0.1562 -0.0156  0.3201
16324W        W32218   9.218   0.827  13.925  0.1517 -0.0080  0.0689
16325W        W32219  17.579   7.441   0.464  0.2616 -0.0173  0.1966
16326W        W32220   7.092   3.433   3.224 -0.1286 -0.1596 -0.1145
16327W        W32221  17.310  13.053   0.058 -0.3504 -0.1409 -0.0982
16328W        W32222  14.594  14.557   3.497 -0.0643 -0.0910  0.1768
16329W        W32223  12.473   5.390  15.326 -0.1693  0.2948  0.1033
16330W        W32224   7.615  17.809   0.843 -0.4112  0.0673  0.2041
16331W        W32225  14.966   7.738  15.170 -0.1008  0.0136 -0.0489
16332W        W32226  15.425  16.463  11.862  0.1714  0.1127 -0.0740
16333W        W32227  11.030   0.419  13.385 -0.3280 -0.1463 -0.1293
16334W        W32228   6.712  11.004   2.436 -0.0622  0.1055 -0.2165
16335W        W32229   3.525  10.928   2.091 -0.2210  0.2442 -0.0688
16336W        W32230   7.186   5.357   1.824 -0.0670 -0.0830 -0.1118
16337W        W32231   5.874  13.873  13.922 -0.4663  0.5161 -0.0085
16338W        W32232  15.024  15.818   4.252  0.1414  0.1207 -0.2365
16339W        W32233   4.991  13.738  14.261  0.0240 -0.1050 -0.2949
16340W        W32234  12.371   0.096   1.987  0.2084  0.2764  0.0379
16341W        W32235   8.037  16.836   1.746 -0.3298 -0.2959  0.2794
16342W        W32236  16.892   7.229   4.902 -0.2194 -0.0992 -0.1920
16343W        W32237  13.830  14.452   4.418 -0.0452 -0.0732 -0.1474
16344W        W32238   2.833   4.397  13.863 -0.2729  0.1298 -0.2223
16345W        W32239   8.544   4.633  14.501 -0.0387 -0.0459 -0.0563
16346W        W32240  11.100   7.898  12.792  0.2825  0.3360  0.0573
16347W        W32241   7.812  15.186  11.601  0.2055  0.0538 -0.1385
16348W        W32242   8.111  11.390  14.476  0.1686 -0.1648  0.2082
16349W        W32243  14.012  10.592  14.573  0.0817  0.2994  0.2802
16350W        W32244  10.950  15.658   0.075 -0.0454 -0.3812 -0.0105
16351W        W32245   7.954   5.259   3.092  0.0736  0.0438 -0.1441
16352W        W32246   1.760   7.509  12.005  0.0656  0.2891 -0.0716
16353W        W32247   6.364  15.720  13.857 -0.0744 -0.2194  0.2152
16354W        W32248   0.735   2.246  15.030 -0.2534 -0.0020 -0.0405
16355W        W32249   1.557  15.368   5.839  0.1142  0.0436 -0.2290
16356W        W32250   9.531   3.544  14.488 -0.0484  0.1293  0.0518
16357W        W32251  11.033  14.193   3.346 -0.0917 -0.1866 -0.2455
16358W        W32252  17.612  13.137  15.368 -0.0310 -0.2332 -0.1571
16359W        W32253  12.892  15.850  12.240  0.1389 -0.0509 -0.1678
16360W        W32254  10.514  15.965  14.753 -0.0617 -0.0173 -0.0060
16361W        W32255  14.181  14.404   5.306  0.0157  0.0771  0.3151
16362W        W32256   5.800  10.418   5.152  0.0044 -0.2514  0.2810
16363W        W32257   1.835   3.149   3.073 -0.1117  0.2355 -0.1346
16364W        W32258   3.212  13.070   5.597  0.3258 -0.1048 -0.0153
16365W        W32259  14.198   1.858   1.000  0.3115  0.1696  0.1802
16366W        W32260   2.209   1.666   5.673  0.2450  0.0833 -0.1206
16367W        W32261  10.854  17.134   4.504 -0.0507  0.1632 -0.0631
16368W        W32262   3.978  16.191  14.714  0.0465 -0.1056  0.1833
16369W        W32263   5.862   8.911  15.111  0.1772 -0.2450  0.3544
16370W        W32264  12.165   6.788  12.381  0.1462  0.1881 -0.2033
16371W        W32265  17.870  11.099  13.942 -0.3918 -0.2848  0.4057
16372W        W32266  13.289   1.889   3.266 -0.2751  0.2031  0.0973
16373W        W32267   7.856  11.192  16.347 -0.1696 -0.0301  0.2585
16374W        W32268  11.601  13.008  13.574 -0.4663 -0.0129 -0.0522
16375W        W32269   2.535   5.296  12.758 -0.0170 -0.1320  0.0860
16376W        W32270  17.455   6.188   0.985 -0.1839  0.1428  0.4670
16377W        W32271   8.265   6.825   0.684 -0.0595  0.0038  0.2876
16378W        W32272  14.316   9.726  15.819 -0.5582 -0.0967  0.0647
16379W        W32273   1.425  14.817   3.703 -0.1762  0.0295  0.1101
16380W        W32274  12.377  16.052  15.880 -0.4700 -0.0056 -0.1690
16381W        W32275   6.262   8.487   3.384 -0.0622  0.0357 -0.2785
16382W        W32276   9.671  12.497   1.486  0.0089 -0.0076  0.3299
16383W        W32277  16.745   1.718   5.319 -0.0746  0.2820 -0.1856
16384W        W32278  16.303  16.599  14.604  0.0566  0.2009  0.2638
16385W        W32279   6.686   2.860   2.498 -0.2636  0.3185  0.0831
16386W        W32280   9.167  16.893  15.759 -0.3869 -0.3596 -0.1604
16387W        W32281  14.344  14.898   3.778 -0.1557  0.0036  0.1680
16388W        W32282   1.369   7.176  15.250 -0.3601  0.1370 -0.1293
16389W        W32283  10.090  10.535   0.651 -0.0417 -0.2500  0.2762
16390W        W32284  13.182  16.446   5.076 -0.0413 -0.0147 -0.2312
16391W        W32285  14.473   2.354  13.644  0.0042 -0.0654 -0.1542
16392W        W32286  15.248  11.665   3.784 -0.0149 -0.2713  0.2478
16393W        W32287  15.636  13.123  12.104  0.1199  0.2013  0.3233
16394W        W32288  11.354  12.658   0.034 -0.0791 -0.1077  0.3269
16395W        W32289   8.494  12.680  15.732  0.0112  0.2269 -0.0474
16396W        W32290   7.068  14.579  13.761  0.2785 -0.3524  0.1856
16397W        W32291  10.844  17.573   2.687  0.1120 -0.0227 -0.1727
16398W        W32292  15.123   7.741  12.352  0.0226 -0.1883  0.0722
16399W        W32293  13.525   3.646  14.358 -0.2041  0.0537 -0.0720
16400W        W32294  15.222  15.542   3.898  0.1379 -0.0110 -0.6484
16401W        W32295   4.327   7.304   2.649 -0.2044 -0.1535 -0.0146
16402W        W32296   6.533   8.301  14.732 -0.2058  0.1627  0.1033
16403W        W32297  14.878   2.092  16.139  0.0537  0.0301 -0.1850
16404W        W32298   6.490  12.019  15.344 -0.2209  0.1757 -0.2307
16405W        W32299  18.190   1.441   4.573 -0.0437  0.0410  0.0338
16406W        W32300   3.025  17.123   1.137 -0.1610  0.0471 -0.2576
16407W        W32301   4.303   9.487  12.761 -0.3341  0.1618  0.3307
16408W        W32302  10.349   2.646  13.671  0.0108 -0.3029  0.1512
16409W        W32303   4.336   6.667   1.896  0.1528 -0.2586 -0.0514
16410W        W32304   2.989   5.939   1.749 -0.0660  0.1681  0.0774
16411W        W32305   8.522   8.677   0.197 -0.1323  0.1642  0.1844
16412W        W32306   3.717  17.543   0.244 -0.0954  0.2837  0.0171
16413W        W32307  13.013   7.584   2.312  0.0882 -0.0044 -0.0593
16414W        W32308  14.644  17.697   3.019  0.0914  0.1478 -0.2829
16415W        W32309   5.175  14.819  13.390  0.3993  0.2227  0.2703
16416W        W32310  15.032   5.110   0.797 -0.0835  0.3750  0.0321
16417W        W32311   0.251  14.764   0.936  0.1490  0.1356  0.1650
16418W        W32312  18.094   1.097  15.264  0.0027  0.1970 -0.5879
16419W        W32313   9.642   2.142  10.457 -0.0044  0.3468  0.1426
16420W        W32314  11.183   6.613  12.595  0.1371  0.1571 -0.0075
16421W        W32315   2.518  10.194  11.726 -0.1684  0.1072  0.4298
16422W        W32316   4.983  13.324   3.677  0.0543 -0.1050  0.2251
16423W        W32317   4.963   3.946  14.702 -0.0365  0.0919  0.3031
16424W        W32318   1.607  10.666  11.494 -0.2387 -0.1915  0.0246
16425W        W32319   1.671  16.375   4.726  0.0759 -0.1752 -0.5036
16426W        W32320   9.404   6.800  12.052  0.0549  0.1739 -0.0375
16427W        W32321  11.363  16.677   4.379 -0.2229  0.1263 -0.0258
16428W        W32322  15.187  10.380  12.807 -0.0752  0.0087  0.1258
16429W        W32323   7.070   0.789   3.466  0.1105 -0.1122 -0.4250
16430W        W32324   5.031  12.338  14.353  0.0492 -0.0761 -0.1255
16431W        W32325   8.287  17.833   2.427  0.3390  0.0058 -0.2225
16432W        W32326   2.444  10.763  14.242  0.1027  0.0191 -0.1171
16433W        W32327  13.289   8.520   4.152 -0.1496 -0.2335  0.0522
16434W        W32328  10.584   3.428  12.490  0.1453  0.0864  0.1324
16435W        W32329  17.573   6.599  11.774  0.0399  0.0081 -0.0812
16436W        W32330   4.468  16.114  16.380 -0.0930  0.2900  0.1426
16437W        W32331   3.911   6.760  14.277 -0.0922 -0.0588  0.0533
16438W        W32332  16.699  14.628  12.970  0.0506  0.0568 -0.1220
16439W        W32333  15.493   0.610   1.478  0.0156 -0.0370 -0.2017
16440W        W32334  17.275  15.140   1.225 -0.0152  0.4937 -0.1011
16441W        W32335  12.937  18.119   1.753 -0.1357 -0.1395 -0.2600
16442W        W32336  16.052  14.626  14.289  0.0879 -0.1454  0.0837
16443W        W32337   5.176  10.713  15.806 -0.1021  0.0647  0.0587
16444W        W32338  10.356  12.511   1.612  0.4459 -0.0804 -0.1366
16445W        W32339   6.357   6.764  14.159  0.2358 -0.0243  0.1185
16446W        W32340   4.409  14.703   1.350 -0.0718 -0.0788 -0.0897
16447W        W32341   3.784   9.934   5.367 -0.2353 -0.0501 -0.3555
16448W        W32342  15.475  10.824   4.642 -0.1228  0.0492  0.1109
16449W        W32343   3.999  14.273  12.666 -0.1103 -0.0611  0.1222
16450W        W32344   5.967   8.439   2.996  0.2316 -0.2468 -0.1261
16451W        W32345   8.154  12.948  12.071 -0.1246 -0.2646 -0.2518
16452W        W32346  14.019  11.896  13.615  0.0143 -0.0835 -0.2404
16453W        W32347  15.614  14.220  15.073 -0.1409 -0.1075 -0.1950
16454W        W32348  13.881   6.308  14.705 -0.1195  0.0091 -0.3688
16455W        W32349  15.732   7.297  13.244 -0.2069  0.0308  0.1840
16456W        W32350  14.384  11.468   0.765  0.2810  0.3099  0.2521
16457W        W32351  11.991   0.717  15.770  0.0374  0.0018 -0.0518
16458W        W32352  15.949  16.826   5.804 -0.2466  0.2392 -0.1024
16459W        W32353  16.363  17.957   1.745 -0.0256  0.1629 -0.0954
16460W        W32354  12.068   2.508  13.380 -0.2267  0.1263  0.0924
16461W        W32355  12.961   8.974  14.587 -0.0471  0.0690 -0.1317
16462W        W32356   2.322   0.846   3.919 -0.3179 -0.2454 -0.3396
16463W        W32357  10.502   4.293  12.935  0.0134 -0.1744 -0.4224
16464W        W32358  11.391   5.707   1.295  0.1647  0.0768 -0.1984
16465W        W32359  15.829   9.560   6.446 -0.3129  0.1163  0.1941
16466W        W32360   7.337  10.862  13.379  0.2060 -0.0274 -0.2368
16467W        W32361   2.895   9.231   5.607  0.0645  0.2565  0.1390
16468W        W32362  16.685  13.858   3.055 -0.0205  0.0748 -0.1504
16469W        W32363   3.271   2.530   3.546 -0.1517  0.1115 -0.1453
16470W        W32364   1.249   9.794  12.965  0.0432 -0.1509 -0.1622
16471W        W32365  13.438   1.081  12.441  0.0568  0.0380 -0.1976
16472W        W32366   4.010   0.587   1.678  0.1956  0.3755 -0.0781
16473W        W32367   1.284  18.160  10.896 -0.1925 -0.1538 -0.1121
16474W        W32368  16.004  16.984  12.468  0.1822 -0.3015 -0.1336
16475W        W32369   3.713   9.818   1.532 -0.1400 -0.2197 -0.0518
16476W        W32370  14.027   4.898   2.036 -0.2484  0.0410 -0.0244
16477W        W32371  11.979  17.542   1.702 -0.2012 -0.1124  0.2203
16478W        W32372  12.174  10.479   1.695 -0.0800  0.1190  0.1267
16479W        W32373  16.490   0.491   0.839 -0.0382  0.0990  0.0119
16480W        W32374  14.431   0.729  12.854  0.0985  0.1464 -0.0210
16481W        W32375  15.387   7.676  13.214 -0.3374 -0.1260 -0.0406
16482W        W32376   1.534  15.230   2.888 -0.1789  0.1028 -0.0986
16483W        W32377  14.898  17.931   0.676 -0.1765  0.3116 -0.0036
16484W        W32378   6.495   9.847   2.189  0.1271  0.0427 -0.1914
16485W        W32379  11.944  15.685  16.052 -0.1872  0.2674 -0.0784
16486W        W32380  16.078   7.942  12.356  0.1025  0.1007  0.0869
16487W        W32381  11.041   3.658  13.928 -0.2434  0.1302 -0.1001
16488W        W32382  12.949   7.936  12.776 -0.0301  0.0551 -0.0668
16489W        W32383   3.890   1.528  15.738  0.0470  0.1535  0.0887
16490W        W32384   7.060   8.671   1.062  0.1830 -0.1084  0.0246
16491W        W32385   4.394   6.110  11.786 -0.0291 -0.4048  0.0862
16492W        W32386  11.425  12.052  15.167  0.0174  0.0787 -0.1860
16493W        W32387   9.412   1.889  14.242 -0.5018  0.1747 -0.2054
16494W        W32388  16.741   8.152  14.433  0.3998  0.0193 -0.1651
16495W        W32389   0.599   2.915   4.179 -0.0509 -0.0961 -0.1575
16496W        W32390   6.683   5.505  13.421  0.0709 -0.0084  0.2803
16497W        W32391   8.900   2.493  11.677 -0.1071  0.0215  0.0534
16498W        W32392  14.421   2.268  16.365  0.0829 -0.2096 -0.1271
16499W        W32393   4.609  17.504  12.739  0.2266 -0.1405  0.0340
16500W        W32394  14.775  13.782   6.257 -0.0414 -0.1520 -0.2610
16501W        W32395   9.938  17.209   0.567 -0.1650 -0.2779  0.2240
16502W        W32396  12.931   7.765  11.057 -0.1887 -0.2365 -0.2964
16503W        W32397   4.798   9.473   0.800 -0.0142  0.2523  0.0391
16504W        W32398   3.373   5.180  12.168 -0.1530  0.0942  0.5969
16505W        W32399  16.512   0.946  16.194  0.1961  0.1953  0.0304
16506W        W32400  15.622  11.630   1.491  0.1417 -0.1801  0.0461
16507W        W32401   3.166  13.858  14.399  0.0084 -0.0150 -0.0494
16508W        W32402   7.085  15.563  15.106 -0.3813 -0.2767 -0.0889
16509W        W32403  17.968   5.394   4.245 -0.1029 -0.1751 -0.3478
16510W        W32404  16.746  15.170   2.379 -0.1315  0.1240 -0.1387
16511W        W32405  12.247  17.239  12.235  0.1820 -0.1866 -0.1171
16512W        W32406  10.972  10.537   3.526  0.1073  0.1819 -0.0702
16513W        W32407   3.672  13.375   0.026  0.0879 -0.0265  0.1245
16514W        W32408   4.728  12.177  15.379  0.0555 -0.1645 -0.1312
16515W        W32409  10.720   2.835   3.141 -0.2951 -0.0918  0.2160
16516W        W32410  12.701   4.561  16.437 -0.2123  0.0361  0.0459
16517W        W32411   9.049  12.360  14.209 -0.2521  0.0859 -0.0299
16518W        W32412  17.777  16.681   1.456  0.2193  0.0485 -0.1537
16519W        W32413  10.715  18.063  15.973  0.0925  0.0571 -0.3540
16520W        W32414  15.654   4.815  11.767  0.1112 -0.0142 -0.1285
16521W        W32415  11.908  11.272   1.015  0.3078  0.1300 -0.1548
16522W        W32416  17.760  14.338   0.251  0.0684 -0.2258 -0.0415
16523W        W32417   8.301   1.766   1.794  0.0915  0.0336  0.0323
16524W        W32418  15.168  16.946  12.116 -0.0832  0.1776 -0.3252
16525W        W32419  13.563  13.929   5.608 -0.0058  0.0340 -0.2318
16526W        W32420   0.682   3.764   4.284  0.3075 -0.0271  0.3974
16527W        W32421   7.503  14.645  14.518 -0.0864  0.3916 -0.0388
16528W        W32422   7.362  10.520   4.365 -0.1650 -0.1037  0.4199
16529W        W32423   5.417   0.552  12.272  0.0588  0.0086  0.1325
16530W        W32424   3.410  17.272   1.983 -0.3941  0.4032  0.1019
16531W        W32425   3.075   8.880  12.385  0.0955  0.0162 -0.0188
16532W        W32426   0.605  17.064  15.842  0.0073 -0.1280 -0.0115
16533W        W32427  17.844  12.779  12.847  0.1295 -0.3327  0.2285
16534W        W32428  13.590  17.703  12.100 -0.1518  0.0936 -0.1183
16535W        W32429   9.103  15.636   4.432 -0.0005 -0.0674 -0.0104
16536W        W32430   7.307  14.471   3.122  0.2050  0.1352  0.3476
16537W        W32431   1.291   0.984   0.544 -0.3934  0.3468 -0.1920
16538W        W32432  12.623  14.121   4.965 -0.2081  0.2565 -0.4774
16539W        W32433   6.263   0.689  11.280  0.0088  0.1588  0.3920
16540W        W32434   7.226  13.175  16.137 -0.0832  0.0132  0.2762
16541W        W32435   5.565  17.330  11.812 -0.1466 -0.3768  0.1252
16542W        W32436   1.554   0.839  14.728  0.0447  0.0249 -0.0249
16543W        W32437   1.205   0.566   1.586  0.0672  0.0278  0.1563
16544W        W32438   2.825  13.069  14.262 -0.0970 -0.2140  0.2362
16545W        W32439  15.482  13.500  10.676  0.1649 -0.0816  0.0535
16546W        W32440  11.688   9.321   1.468  0.0261  0.1286 -0.1532
16547W        W32441   5.130   9.043  11.506 -0.2378  0.2100 -0.0669
16548W        W32442   1.965  10.819   5.289  0.1099  0.0925 -0.0716
16549W        W32443   0.334   3.657   5.036 -0.3163 -0.2123  0.0109
16550W        W32444  15.334  13.441   4.039  0.0585  0.0219  0.0950
16551W        W32445   3.294   4.604  14.976  0.1170 -0.1567 -0.0410
16552W        W32446  10.031   7.763  14.090 -0.1170  0.1038  0.5998
16553W        W32447   7.689   0.925   0.121  0.1321 -0.1873  0.1022
16554W        W32448  13.093   8.416  14.487  0.1869 -0.0879  0.0006
16555W        W32449  12.088   7.215  15.111 -0.1444 -0.0051 -0.5058
16556W        W32450  10.704   5.569   2.946 -0.0434  0.2117 -0.0787
16557W        W32451  15.129   0.860   3.442 -0.1138 -0.2178  0.1048
16558W        W32452  16.236   2.905  13.466  0.3943 -0.2021 -0.0807
16559W        W32453  13.089  13.539   0.356 -0.0057 -0.0126 -0.0128
16560W        W32454  11.005   5.292   1.547 -0.0330 -0.1879 -0.1615
16561W        W32455   4.869  15.862  12.834 -0.1602 -0.1070 -0.0148
16562W        W32456   9.146   6.747   0.249  0.0297 -0.3480 -0.1380
16563W        W32457   5.287  13.768  11.440  0.0929  0.1439  0.0130
16564W        W32458  15.767  10.921  14.031  0.0985  0.0399  0.3710
16565W        W32459  17.529   7.901   0.792  0.2047 -0.4583  0.0827
16566W        W32460   8.574  15.005  12.868  0.1957 -0.1089 -0.0945
16567W        W32461  14.368  14.822  11.943 -0.0488  0.1468  0.1308
16568W        W32462  12.228  14.603  15.349  0.1377 -0.1119 -0.2838
16569W        W32463  15.808   3.030   2.624  0.4143  0.0423 -0.0750
16570W        W32464  16.860   9.696  16.216 -0.0769  0.3073 -0.0891
16571W        W32465  13.658   5.788  15.218 -0.0328  0.0199  0.0175
16572W        W32466  15.583  15.644   3.567 -0.1884  0.3218  0.2890
16573W        W32467   9.398  15.128  15.603 -0.0543 -0.0384  0.0993
16574W        W32468  16.726  14.633   2.940  0.0263  0.0150 -0.0296
16575W        W32469   9.010   4.208   4.802 -0.3212  0.1950  0.0845
16576W        W32470   5.694   8.165  12.879  0.0288 -0.0654 -0.0308
16577W        W32471   0.408  15.719  11.612 -0.2148  0.0541  0.2713
16578W        W32472  10.600  14.864   5.999  0.2142 -0.0107 -0.0971
16579W        W32473  17.703   8.563   4.740  0.1921  0.1604  0.0364
16580W        W32474   1.846   7.647   1.162 -0.0209  0.0725  0.5603
16581W        W32475   0.911   5.139   4.881  0.1415 -0.1904  0.0272
16582W        W32476   5.530   6.802  15.463  0.0303 -0.0379  0.0401
16583W        W32477   8.969   5.030  16.235 -0.0061 -0.0294 -0.1133
16584W        W32478   8.762  16.228  15.959  0.0472 -0.3140 -0.1184
16585W        W32479   3.945   5.946  11.339  0.2052  0.2309  0.1132
16586W        W32480  10.934  16.436  13.004  0.1393 -0.0170  0.3387
16587W        W32481   2.297  13.627   2.654  0.3191  0.0128 -0.2747
16588W        W32482  12.280   3.822   0.964  0.0736 -0.1188 -0.1432
16589W        W32483   8.449   2.002  15.575 -0.1133  0.0207 -0.0837
16590W        W32484   7.631   0.643  12.002  0.1952 -0.1808 -0.1439
16591W        W32485  12.577   2.069   5.793  0.1322 -0.0275  0.2206
16592W        W32486   4.118  15.095   1.423 -0.0885 -0.2907  0.1247
16593W        W32487  16.516  15.290  13.602  0.0302  0.1043  0.0485
16594W        W32488  12.079  18.085  15.212 -0.2843 -0.2615 -0.5632
16595W        W32489   2.447   6.930  14.699  0.2167  0.1392  0.0521
16596W        W32490   9.378  16.991  16.241 -0.0178  0.1610 -0.0157
16597W        W32491  11.023  10.909   2.445  0.0770  0.2712 -0.0834
16598W        W32492  12.706   5.835  14.521 -0.0257  0.2995 -0.0229
16599W        W32493  13.672  16.979  12.531  0.1015 -0.1655 -0.0816
16600W        W32494   0.746   2.405  13.093 -0.0152  0.4925  0.0924
16601W        W32495   0.606  12.165   0.802 -0.2346 -0.2182 -0.2993
16602W        W32496   0.622   5.388   3.451  0.3487 -0.2813  0.0000
16603W        W32497  15.611   2.411   5.631 -0.3020  0.1534  0.1192
16604W        W32498  18.077  16.035  14.554 -0.3789 -0.2424  0.1354
16605W        W32499  14.464   0.650   4.225 -0.3281  0.0191 -0.0836
16606W        W32500   5.631  17.346   5.576  0.3127 -0.2399 -0.1503
16607W        W32501   6.310   1.567  12.369 -0.1979 -0.0383 -0.2447
16608W        W32502   8.973   0.511  13.172 -0.1865 -0.1944 -0.0711
16609W        W32503  15.137  16.541  10.792 -0.1596 -0.0659 -0.5121
16610W        W32504   5.123  17.204   0.737 -0.3739  0.3823  0.0995
16611W        W32505   4.441  12.993   2.079 -0.0067  0.1476 -0.0782
16612W        W32506  12.095   9.992   4.508 -0.1382 -0.0538 -0.0958
16613W        W32507   0.433   5.399   0.488 -0.3718 -0.0523  0.1748
16614W        W32508  10.299   3.652   0.115 -0.1009 -0.1756  0.0309
16615W        W32509  16.444  11.531  13.969 -0.0723  0.1586 -0.0581
16616W        W32510  10.087  13.967   0.325  0.1443 -0.4750  0.0731
16617W        W32511   8.145   1.483  11.948 -0.4130 -0.0174  0.1689
16618W        W32512   1.338  13.814  14.016 -0.2700 -0.1076 -0.2592
16619W        W32513   9.722  16.226   4.665  0.2451 -0.1145 -0.0154
16620W        W32514   6.065   4.876  16.235  0.1556 -0.1315 -0.1487
16621W        W32515  14.069  11.042   1.920  0.1673  0.4760  0.0060
16622W        W32516   3.828   5.584   2.309 -0.2197  0.4257  0.3206
16623W        W32517   4.873   5.365  16.008 -0.1084  0.0921  0.3843
16624W        W32518  16.477  16.124   0.214  0.0175 -0.2144  0.1209
16625W        W32519  17.607   6.234   1.518  0.0281  0.1327 -0.1738
16626W        W32520   1.805  12.587   2.906  0.0620 -0.3858 -0.1025
16627W        W32521  15.682   5.268  11.624  0.2814  0.2080 -0.0403
16628W        W32522   8.565  14.729  15.942 -0.0190 -0.0448  0.0658
16629W        W32523   0.046  14.820   2.771  0.0893  0.2066  0.0212
16630W        W32524  11.296   1.462   5.532 -0.2595  0.0682 -0.0831
16631W        W32525   7.736   4.848   5.925  0.2277  0.0514  0.2780
16632W        W32526   7.473   4.769  15.608 -0.1981 -0.2202  0.0934
16633W        W32527   1.953  13.840  12.388  0.1743  0.2979  0.1479
16634W        W32528   0.392  13.253   5.377  0.4381 -0.0657  0.1411
16635W        W32529  13.756   4.378  11.775  0.2684 -0.0613  0.1678
16636W        W32530  17.957  13.518   0.895 -0.3071  0.2093  0.0763
16637W        W32531  14.157  11.465   5.978 -0.1961 -0.2753  0.1150
16638W        W32532   6.271   7.278  12.231 -0.1862  0.4160 -0.3208
16639W        W32533  10.757   2.036  12.882 -0.0380 -0.2468 -0.1753
16640W        W32534   6.589   8.626  11.960 -0.1661 -0.0425  0.1401
16641W        W32535   4.913   8.658   4.837 -0.0787 -0.1317  0.0670
16642W        W32536  13.055   6.501  13.223 -0.1377 -0.1554  0.0923
16643W        W32537   1.453  13.844  13.230 -0.4323 -0.1648  0.1342
16644W        W32538   5.302  12.059  12.136  0.1005 -0.0496  0.0847
16645W        W32539   3.925  14.719   3.576  0.1583 -0.1187  0.0854
16646W        W32540  13.857   8.218  15.987 -0.0596  0.1022  0.1808
16647W        W32541   0.664   9.181  13.306  0.0714 -0.0587 -0.3136
16648W        W32542  14.422  17.742  13.112 -0.3008  0.1059  0.1800
16649W        W32543   8.631  13.833   0.267  0.0797 -0.1195 -0.2670
16650W        W32544  18.055   6.887   3.900  0.2593  0.0097 -0.0694
16651W        W32545   6.986  12.910   3.099  0.1361 -0.0560 -0.0701
16652W        W32546  12.775   5.869   3.066 -0.3252 -0.0733 -0.3527
16653W        W32547  15.924  12.748  12.702  0.0571  0.1692  0.0034
16654W        W32548  13.945   0.215   3.506  0.0490 -0.2516  0.0352
16655W        W32549   5.822  12.927   4.877  0.0490 -0.2847  0.3047
16656W        W32550  14.289   6.740   4.622  0.1067 -0.4375  0.3061
16657W        W32551   9.274   2.006  15.212 -0.0210 -0.1406 -0.0282
16658W        W32552  12.646   9.351  13.088 -0.1132  0.1717 -0.0549
16659W        W32553  15.613   2.389  12.413 -0.0123  0.0060  0.1469
16660W        W32554  15.962  14.895   1.133 -0.2909  0.2048  0.2623
16661W        W32555  12.515  15.995   0.274 -0.1508 -0.1457 -0.2357
16662W        W32556   9.343  16.346   3.400 -0.1990 -0.2825 -0.0769
16663W        W32557   6.096  10.067   1.819  0.1434 -0.1080 -0.2260
16664W        W32558  12.527  14.962   4.453  0.1622  0.1021 -0.2045
16665W        W32559  13.261   4.591  15.450 -0.1268 -0.2098  0.2884
16666W        W32560   8.895   0.344  15.190  0.0949  0.0555  0.0178
16667W        W32561   3.539  13.938   0.005  0.2838 -0.1819 -0.0183
16668W        W32562   1.184  13.766   3.297  0.3312  0.0039  0.2693
16669W        W32563   5.652  12.304   2.835 -0.1892 -0.0118 -0.2080
16670W        W32564   4.783   1.974   0.451 -0.1363  0.1788  0.1080
16671W        W32565   7.481  17.144   3.479  0.0054 -0.1923  0.4231
16672W        W32566  14.304   1.257  12.871  0.2109 -0.0584  0.0023
16673W        W32567   3.729   2.891  15.838 -0.1392  0.2323 -0.3181
16674W        W32568  14.720  16.168   4.513 -0.1195 -0.0356  0.2876
16675W        W32569  11.024  15.016   1.404  0.0920  0.1550  0.2897
16676W        W32570   3.957  11.570   3.025  0.1525  0.4630 -0.3064
16677W        W32571   0.809  14.880   5.116  0.2598  0.0874 -0.0332
16678W        W32572  18.074   5.043  12.985 -0.1532  0.1896  0.0467
16679W        W32573   5.289  12.752   0.060 -0.1762  0.2117  0.1881
16680W        W32574   8.116  10.427   2.770 -0.2415  0.0117 -0.4120
16681W        W32575   1.512  14.188   2.363  0.2549  0.1236 -0.0185
16682W        W32576  10.859  13.679   1.957 -0.0702 -0.1943  0.2502
16683W        W32577  14.468   8.287  12.552  0.2520  0.1875  0.1011
16684W        W32578   7.093   9.990  16.006  0.0100  0.0311  0.0475
16685W        W32579   0.405  11.333  13.587 -0.2121  0.0486 -0.2092
16686W        W32580  15.803  17.219  14.233  0.3911 -0.2896  0.3629
16687W        W32581  13.789  11.498  14.361 -0.1755  0.2088 -0.1985
16688W        W32582  17.343   8.040   5.302  0.0667  0.0553  0.1855
16689W        W32583   8.630  11.857   2.600 -0.1278  0.3512  0.0949
16690W        W32584   6.373   2.705   2.925 -0.4132  0.2957 -0.3576
16691W        W32585   9.427   2.431  16.166  0.0615  0.1956 -0.1668
16692W        W32586  17.941  15.423   4.124 -0.0223 -0.2409 -0.1594
16693W        W32587   8.847   1.801  16.307  0.0678 -0.1651  0.2210
16694W        W32588  13.404  13.927  15.244  0.2085  0.3333  0.0841
16695W        W32589   3.927  14.482  13.165  0.0863  0.1760  0.0401
16696W        W32590   4.448   4.016   3.174 -0.2647  0.0727  0.2356
16697W        W32591  10.960   5.582  10.789 -0.1028 -0.2761 -0.0761
16698W        W32592   6.865   1.266  11.301 -0.3081 -0.3579 -0.1869
16699W        W32593   1.206   0.682  11.921  0.1306  0.0011 -0.0277
16700W        W32594   4.909   7.957  16.099  0.1194 -0.0545 -0.1962
16701W        W32595  15.510   3.524  13.228 -0.2538  0.0263 -0.2748
16702W        W32596  17.503  15.515  13.411 -0.0002  0.0300  0.0770
16703W        W32597   5.822  17.950  14.162  0.2066  0.0244 -0.1720
16704W        W32598  14.963  17.448   2.688  0.0112 -0.1485 -0.0406
16705W        W32599   2.866   5.898  14.137 -0.3134  0.1095  0.1419
16706W        W32600   5.046  11.141  15.381 -0.0396  0.2692  0.0314
16707W        W32601   7.779  16.185   0.434  0.2632 -0.2935  0.0547
16708W        W32602   3.552   8.447   4.700 -0.0978  0.1495  0.0919
16709W        W32603   4.389  15.033  14.568 -0.1823 -0.0544 -0.1561
16710W        W32604   1.586   1.472   6.267  0.4788  0.0634 -0.1074
16711W        W32605   0.914  15.163   0.116  0.0955 -0.1664  0.3876
16712W        W32606   1.130   5.346   2.332 -0.0360 -0.0692  0.1381
16713W        W32607   8.185   0.642   1.597 -0.0053  0.1966  0.0721
16714W        W32608  13.269  18.036  10.978 -0.1356 -0.0630 -0.1540
16715W        W32609  12.469  11.614  12.502 -0.1468 -0.1620  0.3036
16716W        W32610   3.411  16.570  12.776 -0.0049  0.0593 -0.3688
16717W        W32611   4.697   0.951   0.395 -0.2496  0.1295  0.2404
16718W        W32612   6.756  12.751  15.851 -0.0845  0.0594 -0.0375
16719W        W32613   2.402  11.883  15.275 -0.1087  0.1237  0.2335
16720W        W32614  10.270  15.278   1.697 -0.0425  0.2638  0.0790
16721W        W32615  16.958  13.962  15.476  0.0989  0.0798  0.0519
16722W        W32616   0.671   7.018   2.393  0.3446 -0.2937  0.3016
16723W        W32617  17.384  14.778   1.557  0.0552 -0.2057 -0.0083
16724W        W32618  16.861  15.417   6.188  0.1149 -0.2696 -0.3628
16725W        W32619  14.957  16.052  13.805  0.1359 -0.1257 -0.3603
16726W        W32620   5.426   7.706  15.236 -0.1235 -0.1705 -0.5135
16727W        W32621   4.038  16.390   4.594  0.2842 -0.1006  0.2039
16728W        W32622   2.069   4.813   4.614 -0.1520  0.0936  0.1628
16729W        W32623   9.432   3.308  15.466 -0.0971  0.0425 -0.0221
16730W        W32624   9.139  11.413   5.301 -0.2496 -0.1077 -0.0214
16731W        W32625  15.261   3.373  12.230  0.3168  0.0307  0.0524
16732W        W32626  15.903  16.739   3.697  0.0207 -0.4579 -0.1519
16733W        W32627   7.042   6.649   6.004 -0.0982  0.2747  0.2573
16734W        W32628   1.866   2.106  12.685  0.3566 -0.0072 -0.3772
16735W        W32629   9.547  14.232   0.251  0.2642  0.1632  0.2610
16736W        W32630  17.110   7.152  13.499  0.1558 -0.0918  0.2126
16737W        W32631   5.511   2.071   2.073  0.3360  0.0254 -0.1422
16738W        W32632  17.595   5.905  12.605 -0.1082  0.1327 -0.0749
16739W        W32633   8.748   3.522   2.392  0.0881  0.1847  0.0165
16740W        W32634   3.526   4.953   1.009  0.0140 -0.2700 -0.1980
16741W        W32635   6.536  14.023  13.157  0.0503 -0.0110  0.0208
16742W        W32636   3.758  13.296  15.626  0.0636 -0.1504  0.3208
16743W        W32637   9.441   8.718   2.197  0.3083  0.0105 -0.1534
16744W        W32638  11.770  12.013  11.819 -0.0247 -0.1138  0.2238
16745W        W32639  10.424  10.087   4.864  0.0609 -0.0548  0.3451
16746W        W32640  15.563  18.236   0.538  0.0316  0.0698  0.2350
16747W        W32641   0.068   1.424   1.014 -0.3376  0.0942  0.3756
16748W        W32642   6.034   6.084   2.673 -0.0222  0.1759  0.2852
16749W        W32643  17.071  15.568   1.128 -0.2016 -0.0645  0.0046
16750W        W32644   8.782   2.706   1.944 -0.1509  0.0197  0.3235
16751W        W32645   6.545   3.206   4.289  0.2641  0.0083  0.1531
16752W        W32646  14.541   2.103  12.432  0.2318  0.0104 -0.1726
16753W        W32647   7.585  14.021  14.627  0.0514 -0.0103  0.0290
16754W        W32648   3.873  17.497   1.210 -0.0425  0.2591 -0.1174
16755W        W32649   4.592  13.393  11.950  0.0190  0.0946  0.0356
16756W        W32650   8.913   1.450  12.450  0.0883  0.1335  0.1441
16757W        W32651  10.052   6.486   3.623 -0.1533  0.2317 -0.1521
16758W        W32652  13.436   6.718  11.934  0.0229 -0.0721  0.2639
16759W        W32653  15.066  10.778   4.297  0.0536 -0.1156  0.0156
16760W        W32654  10.960  11.395   0.109  0.0579  0.1336 -0.0386
16761W        W32655   5.209   0.285  13.188 -0.2174 -0.1351 -0.2531
16762W        W32656  14.562   9.961   3.707 -0.0452  0.1129 -0.0597
16763W        W32657   8.994   1.963   4.263 -0.0797  0.1013 -0.1130
16764W        W32658   4.567   0.538  13.879 -0.0368 -0.0710  0.2591
16765W        W32659   9.468  11.575   6.077 -0.5179 -0.1257 -0.0276
16766W        W32660  11.752   2.036   5.726 -0.3231 -0.0999  0.0699
16767W        W32661   6.705  16.030   4.471  0.2818 -0.0810  0.0725
16768W        W32662   1.682   8.615  10.837  0.0001  0.2173  0.0058
16769W        W32663  16.790  11.656  12.690 -0.0615 -0.1451 -0.2473
16770W        W32664   6.361  13.628   4.437  0.2752 -0.1710 -0.3289
16771W        W32665   6.462  11.868   1.501  0.1738  0.0230  0.0623
16772W        W32666   2.422   4.147  14.798  0.0151 -0.2379 -0.1565
16773W        W32667   9.909  14.996   0.031  0.0363  0.0857 -0.0189
16774W        W32668   5.864  13.244  15.332 -0.0373 -0.2307 -0.1148
16775W        W32669  13.150   2.836  13.701 -0.0243  0.1050  0.3941
16776W        W32670  18.102  13.954  15.955 -0.0362  0.1065 -0.2542
16777W        W32671  12.016   9.957  16.294  0.1108  0.0400 -0.0687
16778W        W32672   8.376   2.550   4.753  0.0316 -0.2253 -0.2244
16779W        W32673  12.763  17.613   3.101  0.0423  0.1206  0.0437
16780W        W32674  10.474  10.870   3.171  0.2628  0.0567  0.0040
16781W        W32675   8.439   2.446   6.431 -0.2566  0.0035  0.0064
16782W        W32676   3.977   5.960   2.622 -0.1536  0.0711 -0.0189
16783W        W32677   7.391   3.507  11.429  0.0378  0.2659 -0.0485
16784W        W32678   8.515  17.860  14.449  0.1046 -0.0849 -0.0516
16785W        W32679   0.129  14.718  14.302  0.0041 -0.1038  0.3175
16786W        W32680   6.590   7.720  10.925  0.1224  0.1067  0.2161
16787W        W32681   6.834   7.366  14.411  0.2966 -0.0065  0.2779
16788W        W32682  13.511   0.353   0.679  0.0567 -0.2141 -0.2430
16789W        W32683  14.767  13.030   5.069 -0.1139  0.1198  0.0918
16790W        W32684   8.135  13.634   3.969  0.2520 -0.0796 -0.0361
16791W        W32685   0.094  13.302   1.469  0.2400  0.2024  0.3707
16792W        W32686  12.612  12.863   0.090 -0.0552  0.1134 -0.1704
16793W        W32687  17.398  11.367  14.170 -0.2165 -0.2899 -0.4373
16794W        W32688   3.386  15.385   3.120  0.3785 -0.0622 -0.0497
16795W        W32689  11.452   6.849   4.766 -0.1903  0.2672 -0.0797
16796W        W32690  17.291  18.098  14.378 -0.5472 -0.0714 -0.0449
16797W        W32691   6.963   7.794   5.006  0.1916  0.0335 -0.0608
16798W        W32692   7.255   1.152   1.502  0.1628  0.0674  0.0617
16799W        W32693   8.900  14.519  16.281  0.1419  0.1731  0.1326
16800W        W32694   5.283   0.428  11.398 -0.0357 -0.2121 -0.0327
16801W        W32695  14.193   5.832  14.618 -0.0247 -0.0828  0.1514
16802W        W32696  17.477  16.687  12.920 -0.1707 -0.3195 -0.0109
16803W        W32697   7.589   4.927  11.217  0.0322 -0.2217  0.1171
16804W        W32698   1.867  16.676   3.297 -0.0379  0.2055 -0.2611
16805W        W32699   9.720   4.735   3.726 -0.2417  0.1308  0.1044
16806W        W32700  12.181   4.136  11.756  0.0845  0.4208  0.2602
16807W        W32701  17.079   5.019   3.343  0.2599 -0.1614 -0.5103
16808W        W32702   3.350  13.075   1.477 -0.3387 -0.0880  0.0794
16809W        W32703   1.461  13.075   2.500  0.0759  0.0555 -0.1095
16810W        W32704   4.356  13.625  15.136 -0.1298 -0.1193 -0.1918
16811W        W32705  12.555  14.565  11.867  0.1435 -0.2067 -0.1677
16812W        W32706  12.610  13.175   0.458 -0.1195 -0.0273 -0.2287
16813W        W32707   4.588  13.796  14.613  0.0251  0.1267  0.0014
16814W        W32708  11.023   8.283  10.915  0.2687  0.2239  0.3312
16815W        W32709  10.982   8.545   3.104  0.1983  0.0453  0.3640
16816W        W32710  11.097   9.545   2.745  0.0668 -0.1083 -0.0231
16817W        W32711  14.458   1.572   3.412 -0.1597  0.2365 -0.4188
16818W        W32712   0.013   6.438  16.140 -0.1112 -0.3328  0.2436
16819W        W32713  11.575   4.218   1.323 -0.4089 -0.1338 -0.0608
16820W        W32714   4.068   4.603   4.519 -0.0804  0.1680 -0.2191
16821W        W32715   7.508  10.354  11.112 -0.0759  0.1244 -0.2062
16822W        W32716   3.738   4.348   2.235  0.1828 -0.0273  0.0460
16823W        W32717   7.587   1.218  14.883 -0.2706 -0.0470 -0.0704
16824W        W32718   6.308  10.565  12.531 -0.0890  0.0189  0.3172
16825W        W32719  12.316   9.354   0.530 -0.1128  0.3398 -0.0691
16826W        W32720  14.471   0.999   3.340  0.3003 -0.3296 -0.1116
16827W        W32721   2.713  14.104   6.371  0.2460  0.1345  0.2314
16828W        W32722   3.949   0.789   2.617  0.1622 -0.0857 -0.0260
16829W        W32723   2.718   1.589  13.072  0.1995 -0.2276  0.2062
16830W        W32724  15.110   5.602   1.023 -0.1332 -0.1512  0.2195
16831W        W32725  14.798  12.782   5.958  0.0617 -0.1169 -0.2038
16832W        W32726   2.505  15.951   0.339  0.5496 -0.0834 -0.2274
16833W        W32727  15.999  16.697   1.515  0.0635 -0.0858  0.0425
16834W        W32728  12.976  10.128  12.651 -0.2093  0.2217  0.2189
16835W        W32729  14.754   7.834  11.939 -0.0536  0.2130  0.1147
16836W        W32730  16.093  18.156   4.131 -0.1042  0.1096  0.1348
16837W        W32731   8.066  14.242  11.257  0.6652  0.2538  0.2169
16838W        W32732  11.146   4.845  13.133  0.2290 -0.3703  0.0246
16839W        W32733  16.392   3.505   0.674  0.1669  0.0057  0.1617
16840W        W32734  13.149  10.746  15.539 -0.0920  0.0505  0.2527
16841W        W32735  11.678   6.880   0.730  0.1073  0.0136 -0.3955
16842W        W32736  15.924  11.086   3.591 -0.0161 -0.0555  0.0068
16843W        W32737   5.638   2.829   2.409  0.0510 -0.0165 -0.0073
16844W        W32738   6.263  14.858  11.426 -0.0908 -0.4102  0.3543
16845W        W32739   7.161  10.663   2.935  0.1058  0.2374  0.0984
16846W        W32740  15.076   5.293  10.729 -0.0780  0.0793 -0.1973
16847W        W32741  12.582  17.560   2.349  0.1431  0.1000  0.0250
16848W        W32742   9.824   1.945   0.195 -0.1905  0.2048 -0.0138
16849W        W32743   2.382  15.212   4.705  0.1189  0.0329  0.0891
16850W        W32744   8.658   3.454  14.818  0.2172 -0.0440 -0.0502
16851W        W32745   7.171  10.189   4.681  0.2857  0.0531  0.0044
16852W        W32746  18.002   5.365  14.855 -0.0240  0.0573  0.0341
16853W        W32747  15.264  17.762   1.298 -0.1414  0.0559 -0.1130
16854W        W32748  10.261  17.041  16.058 -0.0461  0.2142  0.0096
16855W        W32749   5.707   3.658   4.768 -0.0714  0.3548 -0.1154
16856W        W32750   1.124   8.268  10.566 -0.0916 -0.2457 -0.0799
16857W        W32751  13.247   7.468  11.477 -0.1219 -0.1700 -0.0324
16858W        W32752  13.289   8.995  13.263  0.4773  0.2213  0.0733
16859W        W32753   8.025   6.012  12.942  0.1408 -0.0052 -0.0264
16860W        W32754   3.171   1.470  12.893 -0.1367 -0.0836  0.0681
16861W        W32755  10.866  10.320  15.444 -0.3019 -0.0216 -0.1092
16862W        W32756  15.673   5.519  14.393  0.0223 -0.3567 -0.1693
16863W        W32757   4.290   4.896   4.845 -0.1247  0.0855 -0.0861
16864W        W32758   4.238   6.346   2.769 -0.0579  0.3996 -0.0251
16865W        W32759   2.892  16.002  14.939  0.0143  0.1993  0.0870
16866W        W32760  10.383   2.098   2.367  0.1541 -0.0781  0.0256
16867W        W32761  16.986  16.819   5.556 -0.2136  0.0465  0.0922
16868W        W32762   8.560  10.868   1.948  0.1076  0.1121  0.2258
16869W        W32763  13.579   2.368   2.337 -0.0220 -0.2279  0.1019
16870W        W32764  15.925  13.233  14.033 -0.0012  0.0631 -0.4218
16871W        W32765   9.299   6.716   9.911  0.2532  0.2729 -0.0659
16872W        W32766   5.510   6.192  12.180 -0.2469 -0.0821 -0.4530
16873W        W32767   7.353  17.611   0.435  0.2587 -0.4353  0.1435
16874W        W32768  15.296  14.891  15.751  0.1207 -0.3103 -0.0551
16875W        W32769  10.729   2.547  11.092  0.2327  0.1801 -0.0352
16876W        W32770   3.178  11.461  14.975  0.2680  0.0475 -0.0551
16877W        W32771  11.685  16.986   0.783 -0.0887  0.0081  0.0723
16878W        W32772  13.133  17.816  12.357  0.2717  0.1292 -0.0313
16879W        W32773   9.871   8.102   5.689  0.1938 -0.0309 -0.3444
16880W        W32774  15.511  10.975  13.144 -0.1269  0.1478 -0.2484
16881W        W32775   6.850   3.024   4.636 -0.1787 -0.0507  0.1388
16882W        W32776  15.237  11.803   1.223 -0.0640  0.1113 -0.0789
16883W        W32777   1.601   0.953  12.251 -0.1190 -0.0445  0.0008
16884W        W32778   4.756   7.496   2.180  0.1364  0.0299 -0.1973
16885W        W32779   0.550   4.697   5.790 -0.0604  0.0407  0.0370
16886W        W32780  12.194   0.792   1.420 -0.1631 -0.2751  0.1410
16887W        W32781  11.621   3.175  14.966 -0.1849 -0.2644  0.1615
16888W        W32782  13.950  16.285  15.645  0.0913 -0.0798  0.2188
16889W        W32783   8.758  11.252   4.894 -0.3441 -0.0327  0.2977
16890W        W32784   1.834  11.692   1.076  0.1805  0.0482 -0.1539
16891W        W32785  16.260   8.682  16.082  0.0635 -0.0233 -0.0334
16892W        W32786  10.485   4.144   3.492  0.0075 -0.1758 -0.2571
16893W        W32787  12.287  13.947   3.519  0.0564  0.4562  0.2240
16894W        W32788  11.815   6.901  14.858  0.2630  0.1632  0.2316
16895W        W32789   7.395  11.044  12.342  0.0240  0.1478  0.1139
16896W        W32790  15.979   1.771  12.887  0.0079 -0.1181  0.2462
16897W        W32791  14.845   5.225  11.626  0.1038 -0.4154  0.0025
16898W        W32792  12.747  12.509  12.448  0.0326 -0.1868  0.1527
16899W        W32793   5.410   1.496  13.925 -0.0343 -0.0780 -0.0021
16900W        W32794  16.354  17.978   3.075 -0.0284 -0.0767 -0.3608
16901W        W32795  14.402   6.281  14.807  0.1138  0.2536 -0.1269
16902W        W32796   4.575   5.493  16.434 -0.2105 -0.3781 -0.1014
16903W        W32797   4.792   9.620  13.223 -0.1304 -0.0922  0.0130
16904W        W32798   4.503   3.337  12.980 -0.0309  0.0476 -0.0715
16905W        W32799  12.247   4.154  11.156 -0.3363  0.0315 -0.0433
16906W        W32800   5.438  13.349  13.752  0.2572  0.0726  0.1422
16907W        W32801  11.954   4.998   0.822 -0.0133 -0.3172 -0.1417
16908W        W32802   5.951   9.387   4.385 -0.0480 -0.0149 -0.0178
16909W        W32803  17.968   1.783  11.694 -0.1097 -0.0883 -0.4782
16910W        W32804   5.981   4.908  13.668  0.1337  0.0179 -0.0113
16911W        W32805  10.506   7.655   3.432 -0.1585  0.0335  0.2966
16912W        W32806   7.121   4.632   2.525 -0.1308  0.0633  0.0921
16913W        W32807   6.935  10.132  15.067  0.0848 -0.0601 -0.1213
16914W        W32808   6.198  17.425  12.794  0.2234 -0.2289  0.0361
16915W        W32809  13.144  12.278  16.449  0.0677  0.1294 -0.1114
16916W        W32810  10.685   2.675  14.184  0.1680 -0.2472 -0.3048
16917W        W32811  15.848   8.767   2.321  0.0168  0.0613  0.2409
16918W        W32812   6.975  14.948  15.131 -0.2715 -0.4125  0.0262
16919W        W32813   4.304   1.733   5.584  0.2882  0.1635  0.4292
16920W        W32814  15.405  12.546   1.994  0.0434 -0.1767 -0.0236
16921W        W32815  16.458  10.042   2.136  0.0067  0.0432  0.0231
16922W        W32816  14.022   7.248   0.601 -0.1568  0.3640 -0.1579
16923W        W32817   0.366   5.079  12.728 -0.0792  0.1842  0.2772
16924W        W32818   8.063   1.540   0.704  0.5393 -0.3212  0.0564
16925W        W32819   9.219  12.400   1.439 -0.0999  0.1629 -0.1136
16926W        W32820  16.722   1.508   2.221  0.0709  0.0108 -0.1679
16927W        W32821   4.808  10.018  14.530 -0.2170 -0.1075 -0.0910
16928W        W32822   3.378  16.518   0.085 -0.3216 -0.0239  0.2700
16929W        W32823   9.556   5.997  14.510 -0.1150  0.0886  0.3207
16930W        W32824  18.054   0.523  16.251  0.1352 -0.0520 -0.0655
16931W        W32825  10.222  17.122  12.280  0.1579  0.0536 -0.1554
16932W        W32826  17.707  10.862  13.392 -0.0802  0.1438  0.1125
16933W        W32827   1.443   5.855   3.509  0.1361 -0.0046 -0.1337
16934W        W32828   2.605   8.299   0.946 -0.1628 -0.0358  0.1307
16935W        W32829   1.797   9.593   1.024 -0.0687  0.0905  0.0147
16936W        W32830  15.687  12.671  13.498 -0.3048  0.0548 -0.1657
16937W        W32831  10.952  12.017   4.880  0.1862  0.0645  0.0973
16938W        W32832   4.351   6.484  12.743  0.0058  0.1042  0.3396
16939W        W32833   3.592  17.254  11.395 -0.1862 -0.1954  0.1456
16940W        W32834   6.739   6.935   4.423 -0.2397  0.0416  0.0863
16941W        W32835   5.562   8.959   5.651 -0.1528 -0.0928 -0.0263
16942W        W32836  17.530  12.101   2.206 -0.0475  0.0221  0.0461
16943W        W32837   3.783   1.709  11.320 -0.3181  0.1073  0.0333
16944W        W32838  11.505   3.453   2.307 -0.2100 -0.1337 -0.3207
16945W        W32839  11.918  10.825  13.916 -0.2524  0.4521 -0.0742
16946W        W32840   8.863   3.238   0.279 -0.2632 -0.0757 -0.4139
16947W        W32841   7.339   1.461   0.561 -0.1564 -0.0076  0.0468
16948W        W32842  11.584   6.438  16.293  0.0117 -0.1851  0.0651
16949W        W32843  13.346   6.016  15.522  0.1467 -0.2635 -0.2197
16950W        W32844   2.500  14.211   3.627  0.4501  0.1878 -0.1689
16951W        W32845   0.316   0.217   4.201 -0.2938  0.0001  0.1684
16952W        W32846   6.364   9.810  11.283 -0.3847  0.2022  0.1839
16953W        W32847   9.106   0.731   0.929 -0.0325 -0.1788  0.1562
16954W        W32848   1.001  12.890  11.935 -0.0953 -0.0708  0.3894
16955W        W32849   5.790  18.065  12.796 -0.0305 -0.2196  0.2715
16956W        W32850   7.249  17.241  12.141  0.0222  0.1394  0.2778
16957W        W32851  15.654   9.788  13.272  0.0764 -0.3163 -0.2300
16958W        W32852   7.336  13.682  13.385  0.0068  0.0246 -0.3019
16959W        W32853  16.697   4.360   0.125 -0.0580  0.1026 -0.0701
16960W        W32854   3.773  16.952   4.916 -0.3538  0.0916 -0.1503
16961W        W32855   4.176  14.087  14.404  0.0566  0.1252 -0.3599
16962W        W32856   3.974   9.947  14.742  0.0526  0.2422  0.0342
16963W        W32857   8.890   3.456   2.939  0.2271 -0.2121 -0.2812
16964W        W32858  16.336   0.135  15.015  0.1921  0.1229 -0.5024
16965W        W32859   9.248  16.763   1.213 -0.1761  0.3447 -0.3100
16966W        W32860   6.482  16.653  13.016  0.0753 -0.0372 -0.1200
16967W        W32861   8.049   0.549   2.349  0.1262  0.0423  0.1516
16968W        W32862   6.881   8.466  14.337  0.1288 -0.1762  0.0994
16969W        W32863  12.990   9.330  11.082  0.0288 -0.4246 -0.2101
16970W        W32864   5.120   7.153  11.113  0.0522 -0.0091  0.1470
16971W        W32865  11.216  12.640  16.040 -0.0161  0.1763  0.1651
16972W        W32866   3.181   3.693  15.539  0.0211 -0.0818  0.3479
16973W        W32867   1.471   5.662  14.528 -0.0292  0.0647 -0.0125
16974W        W32868   8.386  18.020   1.948 -0.2460 -0.3584 -0.2483
16975W        W32869   7.875   1.143  15.858 -0.1753  0.1359 -0.3068
16976W        W32870   8.500   4.668   4.004 -0.0559 -0.2593 -0.1095
16977W        W32871   8.013   5.576  13.174  0.2012 -0.1305  0.1033
16978W        W32872  13.813  13.380   4.194 -0.0920 -0.2533 -0.0131
16979W        W32873   7.289  16.323   5.824  0.2455 -0.1643  0.0486
16980W        W32874   3.943   7.231  14.380  0.2584  0.2864 -0.2137
16981W        W32875   6.504  12.025  11.463  0.0047 -0.0373  0.0550
16982W        W32876   8.051   5.783   3.496 -0.1305  0.2138  0.1077
16983W        W32877   8.232  15.809  15.096  0.2123 -0.0613  0.1023
16984W        W32878  13.636   9.247   5.404  0.0019 -0.1451  0.1690
16985W        W32879  14.693  16.846   4.424 -0.2710 -0.0514 -0.1661
16986W        W32880  10.713   4.729  13.003  0.2580  0.2076 -0.1000
16987W        W32881  11.434   1.571   2.090  0.0501  0.1333 -0.3699
16988W        W32882  17.451  12.554   4.417 -0.2356 -0.2303  0.0375
16989W        W32883  13.872   4.986  14.771 -0.0604 -0.1105  0.1920
16990W        W32884  10.334  17.801  16.247  0.0262  0.3108 -0.2491
16991W        W32885   7.260  16.142  11.238  0.1168  0.0683 -0.1330
16992W        W32886   8.020  17.090  13.268 -0.2896 -0.1913  0.2400
16993W        W32887  12.853  15.917   5.587 -0.1222 -0.0256  0.2584
16994W        W32888  17.147   9.521   1.064 -0.1027  0.1221  0.2710
16995W        W32889  12.314   0.182  14.829  0.0199  0.2880  0.1509
16996W        W32890   5.084   6.526   1.183 -0.0335 -0.1591  0.3803
16997W        W32891  15.041  14.763   4.233  0.2230  0.0803 -0.2408
16998W        W32892   6.630  15.887   3.638  0.2680 -0.2905  0.0772
16999W        W32893  16.787  13.717  16.392 -0.0586 -0.0580 -0.1855
17000W        W32894   3.137  14.924   2.422 -0.3008  0.0518 -0.0929
17001W        W32895  16.753  11.995   4.775  0.0263 -0.1110 -0.1221
17002W        W32896   1.032   3.296   4.421 -0.0810 -0.1815  0.2283
17003W        W32897   4.177  11.246   4.983 -0.2475 -0.1389  0.2074
17004W        W32898   6.584   4.701   2.491 -0.4214  0.0510  0.2173
17005W        W32899  18.078   2.694  13.500  0.0591 -0.2614 -0.1835
17006W        W32900  16.262  15.149  14.433  0.0583 -0.0154 -0.0992
17007W        W32901  13.742   1.389   2.279 -0.1063  0.0047  0.0515
17008W        W32902   2.584   8.631  12.557 -0.1111 -0.0930 -0.0871
17009W        W32903  18.215   1.790   0.694 -0.1173 -0.2232 -0.0588
17010W        W32904  10.685   2.635  11.650  0.3315  0.1239  0.0498
17011W        W32905   5.781   4.717  15.873  0.0206 -0.0996  0.1292
17012W        W32906   6.026   6.353   1.018  0.0883  0.0868 -0.0637
17013W        W32907  16.394   7.556  14.108  0.2384  0.1276  0.0506
17014W        W32908  10.831  16.317   5.138  0.0210  0.3193 -0.1660
17015W        W32909   3.105   1.269   2.823 -0.1299  0.0145  0.1961
17016W        W32910   7.414  11.896  14.316 -0.0969 -0.0737 -0.2670
17017W        W32911  17.956   4.365  14.815  0.3305 -0.0484  0.3730
17018W        W32912  11.699  10.881   1.845  0.1897  0.2956  0.1320
17019W        W32913   0.830  14.650  15.159 -0.1020  0.0994  0.1333
17020W        W32914   6.716   6.644   2.653  0.2256  0.1610 -0.1074
17021W        W32915  13.881   9.794   4.968 -0.1095 -0.0943  0.0247
17022W        W32916   2.530  12.082   5.380 -0.2411 -0.0776  0.1385
17023W        W32917  16.288   4.986   1.171 -0.0920  0.0404  0.1678
17024W        W32918   3.747   0.689   0.641  0.2181 -0.1972 -0.4816
17025W        W32919  13.982   9.674   1.347  0.1902 -0.0551  0.3931
17026W        W32920  14.684  12.745   4.511  0.3843 -0.1431 -0.1785
17027W        W32921   3.663  16.797  13.897  0.2642  0.2648  0.3054
17028W        W32922   6.727   5.375   5.767 -0.1820  0.4230 -0.1927
17029W        W32923  15.683   6.766  13.418 -0.1254 -0.1551  0.1310
17030W        W32924  16.450  14.852   3.966 -0.2034  0.0925 -0.2232
17031W        W32925  13.640   1.893  12.625 -0.1963 -0.0398 -0.0389
17032W        W32926  11.542  17.043   2.904 -0.1198  0.0652 -0.1335
17033W        W32927  17.151   6.497  12.554 -0.1216 -0.0246 -0.2006
17034W        W32928  13.271  17.450   2.235  0.0251 -0.0256 -0.0653
17035W        W32929   3.084   6.756  15.253 -0.0016 -0.5251 -0.3253
17036W        W32930   9.721  14.541   5.038 -0.1143  0.2907  0.0056
17037W        W32931   9.126  17.880  12.195 -0.1309  0.0939 -0.2853
17038W        W32932   6.445  13.836  15.567  0.3268  0.4631  0.2572
17039W        W32933   5.457   6.872  13.291  0.2026 -0.1404 -0.0596
17040W        W32934   8.049  12.318   2.055  0.0784  0.1289  0.0020
17041W        W32935  10.036   6.942   2.127 -0.2074  0.1600  0.1984
17042W        W32936  11.846  15.186  14.791 -0.0844 -0.1914  0.0121
17043W        W32937   9.879  13.937   2.223 -0.0957  0.0804 -0.2617
17044W        W32938  17.703  12.785   3.804 -0.0517  0.0411  0.1482
17045W        W32939  14.769  13.349  15.148 -0.0002  0.4126 -0.0906
17046W        W32940   0.686  12.362   3.611 -0.3149  0.2719 -0.0250
17047W        W32941  17.064  10.651   1.002 -0.1373  0.1373 -0.0540
17048W        W32942  12.291   3.317   1.638  0.1537  0.2402  0.1279
17049W        W32943   3.660  17.618  15.889  0.0099 -0.2538 -0.1145
17050W        W32944   5.082   9.047  16.046 -0.0706  0.2430 -0.2501
17051W        W32945   5.391   8.013  14.776 -0.0366  0.2516  0.1305
17052W        W32946   8.668   6.404  12.194 -0.0032 -0.3031  0.1515
17053W        W32947   5.445   3.300  16.068  0.1369  0.2632  0.3808
17054W        W32948   1.979  15.680  13.064  0.2205  0.2049 -0.3355
17055W        W32949  11.583  13.753   3.900  0.1294  0.1171 -0.2061
17056W        W32950  18.155   6.060  13.099  0.0504  0.2854 -0.2656
17057W        W32951   9.432  15.213  11.667  0.1808  0.0252  0.0474
17058W        W32952  17.455   0.063  10.930 -0.0898  0.0426  0.2978
17059W        W32953  11.082   2.087   0.135 -0.0578  0.0085 -0.2465
17060W        W32954  13.994  18.100   1.775  0.1058 -0.1401 -0.0288
17061W        W32955  12.484   8.407   3.886 -0.1646  0.1459  0.2154
17062W        W32956   2.639   7.134   1.604  0.1630  0.2978 -0.0879
17063W        W32957   3.288  10.556   0.767 -0.3072 -0.0679 -0.3489
17064W        W32958   6.177  16.339  12.701 -0.1874 -0.1009 -0.4087
17065W        W32959   1.839  13.105   2.861 -0.2452 -0.0438 -0.1027
17066W        W32960   9.167   3.724   4.963  0.0120  0.0025  0.0868
17067W        W32961   4.076  15.658   3.131  0.1169  0.1572 -0.1385
17068W        W32962   2.750   5.458   2.815  0.2497 -0.1527  0.1494
17069W        W32963  11.053  15.171   3.374  0.3444  0.0652 -0.2180
17070W        W32964   2.249  12.267   0.290 -0.2563 -0.2281 -0.1218
17071W        W32965   0.910  17.448   2.740  0.1094 -0.0195 -0.1441
17072W        W32966   2.284  17.658   1.766 -0.0482 -0.0306  0.2499
17073W        W32967   1.069   7.769   0.109 -0.0304 -0.1000  0.3850
17074W        W32968   4.795  15.962   2.627 -0.1941  0.3993  0.2772
17075W        W32969   0.231  16.713  13.896  0.3417  0.1774 -0.3409
17076W        W32970   7.462  17.211  11.048  0.0464 -0.0953 -0.0615
17077W        W32971   5.743   7.773  10.031  0.1129  0.3505  0.1092
17078W        W32972  16.383   5.668   4.985  0.1409  0.2301 -0.0103
17079W        W32973   6.517   9.749  12.518  0.1274 -0.1740  0.0763
17080W        W32974   5.833  12.695  12.170  0.4637 -0.3586 -0.2283
17081W        W32975  13.390  16.781   0.229 -0.0161  0.1622 -0.2432
17082W        W32976   0.378   3.266   0.033  0.0073 -0.0071  0.2713
17083W        W32977   6.437   4.214   5.280  0.1323  0.1071 -0.1384
17084W        W32978  14.349  10.400   0.094 -0.1431 -0.3241  0.1876
17085W        W32979  10.065   4.937   0.844  0.1116  0.2172  0.0912
17086W        W32980   0.823  16.321   0.896 -0.0028  0.0399 -0.2651
17087W        W32981  14.687  14.454  14.774 -0.1592  0.0102  0.0512
17088W        W32982   9.738   5.132  12.826 -0.0471 -0.1036 -0.0903
17089W        W32983  16.864  14.464   2.397 -0.1873  0.2616 -0.0065
17090W        W32984   9.023  18.012  12.627  0.1091 -0.2553 -0.3347
17091W        W32985  18.058   0.851   1.562  0.1982 -0.0615  0.1267
17092W        W32986   7.253   4.783  13.766  0.1837 -0.1451 -0.1865
17093W        W32987   1.909   4.573  14.261 -0.0814 -0.0715 -0.0767
17094W        W32988   6.150  14.738   2.725  0.0993  0.0026  0.0477
17095W        W32989   5.359  13.112   1.739 -0.1222  0.1669 -0.2703
17096W        W32990   0.793   2.662   5.990  0.1532  0.1464 -0.0988
17097W        W32991   8.875   2.356   2.307 -0.1015 -0.1979  0.1794
17098W        W32992   1.187   4.897   3.451 -0.0209  0.0771  0.1473
17099W        W32993   9.733  10.402  15.252  0.1715 -0.0552  0.1390
17100W        W32994   5.893   9.345   0.606  0.2266 -0.0426 -0.0918
17101W        W32995   3.656   4.870   3.658 -0.2450 -0.0022  0.0515
17102W        W32996  10.482  13.161  13.029 -0.0987  0.2387 -0.3894
17103W        W32997   2.240  16.563   5.540 -0.2208  0.1441 -0.0860
17104W        W32998  12.846  16.561  13.586  0.3187 -0.1895  0.5014
17105W        W32999  13.787  17.025  14.436 -0.1778  0.0084  0.1158
17106W        W33000   2.188   2.075  10.384 -0.1125  0.0690  0.0870
17107W        W33001   6.274  12.274  14.958 -0.3500  0.1219 -0.3398
17108W        W33002   5.938  12.174  16.085 -0.1504 -0.1241 -0.1199
17109W        W33003  13.538  10.070   4.660  0.2265  0.0042  0.1942
17110W        W33004   4.347  13.785   4.901  0.1182  0.0711  0.0851
17111W        W33005  13.878  16.801   4.460 -0.2286 -0.0471 -0.0669
17112W        W33006   1.584   8.155   4.729  0.1811 -0.2975  0.0914
17113W        W33007   9.264  12.131   3.684 -0.3252 -0.0271 -0.1942
17114W        W33008   7.361  14.828  13.014 -0.2160 -0.1966 -0.3203
17115W        W33009  17.765   0.577   1.866 -0.1984 -0.2053 -0.0252
17116W        W33010   2.288   8.302  15.272 -0.1389 -0.1268  0.1724
17117W        W33011   1.190   0.572  13.643 -0.0769  0.0162  0.4539
17118W        W33012   5.608  13.062  12.548 -0.3720 -0.1556 -0.2297
17119W        W33013   0.002   0.277   1.524 -0.1103 -0.5049 -0.1880
17120W        W33014   7.530  12.160  10.950  0.2518  0.2238 -0.0975
17121W        W33015   0.588  12.195   5.491 -0.0351  0.0947 -0.1650
17122W        W33016  11.127   1.772  14.358 -0.0133 -0.3191 -0.0710
17123W        W33017   4.812  13.661  10.625  0.1952  0.2087  0.1677
17124W        W33018  17.736  15.182   1.531  0.1306 -0.2556 -0.1244
17125W        W33019  12.880   7.551   3.432 -0.2960  0.3084 -0.0110
17126W        W33020  10.026  11.458   4.080  0.3407  0.0630 -0.0042
17127W        W33021   3.200  14.555   4.819 -0.0439 -0.1940  0.0993
17128W        W33022   4.769   6.183   4.264  0.1565  0.0077  0.1047
17129W        W33023   3.886  13.926   5.417 -0.0182 -0.3672  0.2479
17130W        W33024   8.146  15.746   5.146 -0.0892 -0.1272  0.0915
17131W        W33025  15.922  13.210  11.569  0.1393  0.0893 -0.2355
17132W        W33026   3.009  16.235   5.221  0.0038  0.1895  0.0710
17133W        W33027  10.848  17.954  11.870 -0.3342 -0.1530  0.3108
17134W        W33028   9.454  17.140  12.178 -0.0795  0.3736 -0.0093
17135W        W33029  17.913   1.711   1.107 -0.1502 -0.0592  0.0689
17136W        W33030   3.767   2.379   0.433 -0.0012 -0.1231  0.2191
17137W        W33031  15.091  15.321   4.928 -0.1412  0.6035  0.2439
17138W        W33032  15.092  16.614   5.869  0.1743 -0.2038 -0.0400
17139W        W33033  11.839  15.170   3.801 -0.2063  0.1627  0.2632
17140W        W33034  13.428  15.207  14.978  0.0758  0.1824 -0.1518
17141W        W33035   1.681   5.437  12.100 -0.1069 -0.3125  0.2010
17142W        W33036  11.131  13.706  11.233  0.2305  0.4692 -0.2481
17143W        W33037   6.398  10.575   4.111  0.1341  0.2305 -0.2451
17144W        W33038  14.718   2.382   4.550  0.1984  0.0186 -0.0548
17145W        W33039   0.754  13.094  14.018 -0.0877 -0.1473  0.0827
17146W        W33040  15.451   8.926  13.871  0.1815 -0.4106  0.0435
17147W        W33041  17.079  18.168  15.311 -0.0455 -0.2186 -0.1266
17148W        W33042   1.359   7.089   5.484  0.1840 -0.1862  0.1065
17149W        W33043   5.791   3.167   1.070 -0.0688  0.0558  0.1460
17150W        W33044   9.500   1.010   3.240  0.2700  0.4310  0.2195
17151W        W33045  14.451  11.022   5.592 -0.3472 -0.1132  0.0706
17152W        W33046   7.822  17.370  14.657  0.4087  0.4410 -0.0433
17153W        W33047  10.144   3.636  14.350 -0.2486 -0.2117  0.3047
17154W        W33048  17.946  14.400  15.683  0.1010 -0.3560  0.0068
17155W        W33049   2.043   7.409  16.411  0.0158 -0.1948  0.2644
17156W        W33050   5.185  17.190   3.336 -0.0054 -0.1178 -0.4262
17157W        W33051   5.657   8.149   3.839  0.1316  0.1122  0.2310
17158W        W33052  12.963  17.066   0.087  0.1593  0.1207  0.0582
17159W        W33053   7.820   0.254  12.949 -0.2672  0.3083  0.1133
17160W        W33054   5.704  16.737   4.115  0.0483 -0.1813 -0.3013
17161W        W33055   1.873   3.279   5.893 -0.0328  0.0453  0.0659
17162W        W33056  14.838  13.107  10.964 -0.2316  0.0683  0.2579
17163W        W33057   9.732  15.625   5.028 -0.0981  0.1452 -0.1558
17164W        W33058   8.289  10.545   3.739  0.2045 -0.1188 -0.1825
17165W        W33059   5.102   7.080   1.247 -0.3754  0.2587 -0.0849
17166W        W33060   7.259  17.050  15.912 -0.0790  0.0347  0.3161
17167W        W33061   6.208   4.666   0.184  0.1795  0.2255 -0.1214
17168W        W33062   2.462   7.137   4.691  0.2113 -0.0918  0.1263
17169W        W33063   2.303   7.082   4.173  0.1269 -0.0177  0.1453
17170W        W33064   4.212  17.546  12.385 -0.1475 -0.0823 -0.1088
17171W        W33065   5.979   1.337  13.919  0.0561  0.0363 -0.0083
17172W        W33066   9.380  10.923  11.950 -0.0323  0.2991 -0.3236
17173W        W33067   9.690   4.954   5.300  0.0180 -0.1028  0.1884
17174W        W33068   8.869  17.903   0.836  0.0169  0.0953 -0.2963
17175W        W33069  16.712   8.990  15.209  0.0641 -0.0467  0.3657
17176W        W33070  16.217   6.784   4.920 -0.3389 -0.2242 -0.1333
17177W        W33071  12.535  14.421   2.688  0.0637 -0.0829 -0.1185
17178W        W33072  15.768   3.436  14.716  0.0150 -0.0238 -0.2632
17179W        W33073  10.971  18.122   5.612 -0.3203  0.1103 -0.0991
17180W        W33074  17.128   6.881   2.161 -0.4456 -0.0019  0.0388
17181W        W33075   3.915  13.723   3.027  0.1845  0.1048  0.1710
17182W        W33076  14.758   7.131  13.483  0.2538  0.3117 -0.3608
17183W        W33077   3.717  18.165  12.926 -0.1561  0.2819 -0.0622
17184W        W33078   5.792  17.263   5.139 -0.2300 -0.2296  0.1157
17185W        W33079  10.630  16.584  16.206 -0.0249  0.0395 -0.1375
17186W        W33080  17.144   5.881  13.069  0.4104 -0.2395 -0.0660
17187W        W33081  13.318   2.790  15.458 -0.3176  0.0153  0.1673
17188W        W33082  13.931   0.744  13.675 -0.1903  0.1610 -0.2601
17189W        W33083  17.154   9.521   4.690 -0.1608 -0.0422  0.0313
17190W        W33084   8.944  16.317   1.307 -0.0122  0.1458 -0.3524
17191W        W33085   1.106   0.628   2.493  0.2514  0.0618  0.3308
17192W        W33086   2.317   0.224   3.217  0.0099  0.1511  0.3822
17193W        W33087   9.076   7.827   1.110  0.2979  0.0189  0.1715
17194W        W33088   7.991  13.916  12.826  0.3905 -0.1774 -0.2021
17195W        W33089   5.749  17.607  12.848  0.4152 -0.0070 -0.4042
17196W        W33090  17.618   0.419  13.698  0.2404 -0.3073 -0.4811
17197W        W33091  13.408  13.430  14.937  0.3111  0.2736  0.0067
17198W        W33092   4.451   4.587  15.797  0.1589  0.1373  0.1621
17199W        W33093   3.211   2.180  13.553 -0.1443  0.0917 -0.0549
17200W        W33094   8.800   9.121  12.354  0.0614  0.1484  0.1646
17201W        W33095  16.548  17.429  13.170  0.1772  0.2683  0.2448
17202W        W33096   4.680   0.025  13.607  0.0265  0.0396  0.0759
17203W        W33097   1.608   3.914   0.586 -0.2927  0.1459  0.1971
17204W        W33098  16.359   7.785   0.849 -0.0967 -0.4333 -0.0865
17205W        W33099  16.596   4.989  11.509  0.0498 -0.0724 -0.0181
17206W        W33100  16.643  16.937  13.131  0.4938  0.0584 -0.0500
17207W        W33101   0.035   3.585  15.153  0.1435  0.5176 -0.0076
17208W        W33102   9.285   1.235   1.147  0.0956 -0.0151 -0.4230
17209W        W33103  13.600  14.926  15.470 -0.1383  0.0555 -0.2884
17210W        W33104  14.163   1.127  11.691  0.1862 -0.1880  0.0101
17211W        W33105  13.390   8.386   2.500 -0.0815  0.2350  0.1863
17212W        W33106   1.806  13.959  14.013  0.2563  0.0406  0.0887
17213W        W33107  13.953   4.010  15.563  0.1080 -0.3554  0.1524
17214W        W33108   2.146   0.995   0.783 -0.0498  0.0649 -0.0218
17215W        W33109  15.503   4.348  12.607  0.0710  0.0891  0.2290
17216W        W33110   9.608   3.973  12.127 -0.0901  0.2126 -0.0551
17217W        W33111  15.137  12.298   5.224  0.0206 -0.0923 -0.0882
17218W        W33112   1.476   8.992  13.460 -0.2246 -0.2278 -0.0851
17219W        W33113   3.520  13.745   2.649 -0.1159 -0.2117 -0.0452
17220W        W33114   0.543   9.244   4.753  0.1780 -0.2316  0.0690
17221W        W33115   6.877  11.477  14.879  0.0297  0.1946  0.4156
17222W        W33116  15.281   4.815   5.463 -0.1964  0.0441 -0.1961
17223W        W33117  16.821   1.209   4.234  0.2107 -0.3173  0.1004
17224W        W33118  10.798   5.562   5.902 -0.0896  0.2052 -0.4377
17225W        W33119   5.514  16.354   6.207  0.1473  0.1739  0.0340
17226W        W33120   7.014  13.187   0.161 -0.0492 -0.1560 -0.0216
17227W        W33121  13.591  12.750  14.764 -0.1155  0.0052 -0.3704
17228W        W33122  10.745  16.322  15.623 -0.3153  0.1433  0.1054
17229W        W33123  13.150  10.652  12.955  0.0886  0.3137 -0.0123
17230W        W33124  13.113   0.297   2.128  0.1288 -0.1095  0.1394
17231W        W33125  13.304   6.812   4.141 -0.0740 -0.1704  0.3022
17232W        W33126   3.412   8.889   3.533 -0.2092 -0.1242 -0.2577
17233W        W33127   6.506  15.934  14.326  0.3229 -0.1853 -0.3898
17234W        W33128   8.904   6.601  10.722 -0.0115  0.2055  0.2503
17235W        W33129   3.543   3.840  13.524 -0.0752 -0.2226 -0.0523
17236W        W33130   2.964   1.893  12.771  0.0685  0.0252 -0.2605
17237W        W33131  16.766   9.760   0.861 -0.2457 -0.0062  0.1313
17238W        W33132   0.731  15.526   1.199  0.1420 -0.0341 -0.0024
17239W        W33133  10.453  17.526  12.107  0.1552 -0.0051  0.1817
17240W        W33134   0.772   0.711   1.584  0.1953 -0.2874  0.0556
17241W        W33135   0.723   5.149   2.163 -0.0469  0.1029 -0.1912
17242W        W33136  15.626  15.147   1.544 -0.5418 -0.3186 -0.4261
17243W        W33137   2.697   1.284  15.764 -0.4447  0.1958  0.3637
17244W        W33138   3.629  11.699  14.556 -0.3041  0.0262 -0.2218
17245W        W33139  13.291   0.054  16.222 -0.1689 -0.0155 -0.0383
17246W        W33140   5.630   5.997  10.860 -0.2332  0.2642 -0.1071
17247W        W33141  10.482   4.017   5.154  0.1338  0.1156 -0.2931
17248W        W33142  10.996   6.581  14.098  0.1237  0.2491 -0.1991
17249W        W33143   1.645   9.177   0.774  0.2374 -0.5249 -0.3269
17250W        W33144  12.155  18.207  15.997 -0.0887 -0.0343  0.1262
17251W        W33145  12.219  15.081  15.461 -0.2497 -0.1974  0.2130
17252W        W33146   9.412   9.637  14.595 -0.3141 -0.1092  0.0990
17253W        W33147  12.852   1.441   0.805 -0.0001  0.0240 -0.0204
17254W        W33148   5.454  11.100  10.385  0.2236  0.0547  0.0997
17255W        W33149  16.682   6.516  13.280  0.3527 -0.1143  0.0812
17256W        W33150  12.738   5.732  13.608  0.1889  0.2401  0.1679
17257W        W33151   3.868  15.901   4.159  0.3817 -0.0061  0.2598
17258W        W33152   6.882  12.398  11.426 -0.3119  0.1409  0.0577
17259W        W33153   6.791   2.367   6.126  0.0897 -0.3587  0.1612
17260W        W33154   1.591   3.503  11.724 -0.1162  0.0782 -0.3194
17261W        W33155  17.564   6.113   2.668  0.1077  0.2730  0.3197
17262W        W33156  15.777   4.200   5.039  0.0759 -0.0745 -0.0092
17263W        W33157   7.812  14.874  15.360 -0.1459  0.0208  0.0932
17264W        W33158  17.743   9.242   3.924 -0.0074  0.1184 -0.1615
17265W        W33159  17.765   1.212  15.662  0.1589  0.1768 -0.1791
17266W        W33160   0.069  12.014  14.184 -0.3098 -0.3133 -0.0648
17267W        W33161   0.082  17.963   2.849  0.2697  0.1047  0.2228
17268W        W33162  12.531   6.345  11.706 -0.2264  0.0248 -0.0461
17269W        W33163   7.490  16.822   4.176  0.1738  0.0285  0.2313
17270W        W33164  14.854  16.836  11.356  0.0581  0.1179 -0.3628
17271W        W33165  15.636  16.854  12.033  0.0367  0.1016  0.3636
17272W        W33166   7.078   8.400  12.148  0.1863 -0.0304 -0.1699
17273W        W33167  11.390  13.910  13.926  0.2413 -0.2017 -0.3172
17274W        W33168  17.401  18.225  13.896  0.0577  0.0296  0.3168
17275W        W33169  12.409  15.144   5.150  0.0743 -0.0731  0.1666
17276W        W33170   6.039   7.416   2.953 -0.1453 -0.3170  0.3059
17277W        W33171   4.287  17.812  14.822 -0.0329  0.2145  0.1746
17278W        W33172  15.071   8.195   0.121  0.2209 -0.1332  0.0291
17279W        W33173  16.911   0.161   0.930  0.3800 -0.1062  0.2182
17280W        W33174   3.292   8.810   1.488 -0.3891 -0.3256 -0.3623
17281W        W33175  14.135   8.436   0.094  0.0582 -0.4409 -0.3263
17282W        W33176   5.988   1.028   2.949  0.1361 -0.4201 -0.1244
17283W        W33177  14.311  13.025  15.802  0.1270  0.1023  0.0848
17284W        W33178  14.061  11.923  14.628  0.1902 -0.0362 -0.0579
17285W        W33179   6.570   0.755  13.441  0.2891 -0.2007  0.1387
17286W        W33180   4.184  17.698   3.457  0.1302 -0.2421 -0.0826
17287W        W33181   6.133  16.556  16.264 -0.0144  0.0008 -0.2858
17288W        W33182   2.948   9.269   0.222 -0.0730  0.3080  0.2400
17289W        W33183  13.639  17.972  13.554 -0.0656  0.0574 -0.0715
17290W        W33184  18.073  11.709  12.102  0.2224 -0.1423  0.2216
17291W        W33185   0.903   8.021  13.687  0.1942  0.2234  0.1129
17292W        W33186  11.931  12.680   5.649  0.0449  0.1111  0.2445
17293W        W33187   9.056  16.122   3.973  0.0910 -0.1442  0.3299
17294W        W33188  12.721  17.136  13.488 -0.1320 -0.1041  0.2690
17295W        W33189  14.857   8.570  16.346  0.0567 -0.1049  0.1007
17296W        W33190  12.439   2.757   4.124  0.0892 -0.1765 -0.4591
17297W        W33191  12.921   6.518   4.862  0.1221  0.0602  0.0439
17298W        W33192  15.161  15.159  12.278  0.2943  0.0576  0.1156
17299W        W33193  14.442   3.130  14.156 -0.1158  0.1225  0.1927
17300W        W33194   5.942   0.677  16.436 -0.0283 -0.3196  0.0954
17301W        W33195  18.233  10.656   5.984 -0.1859 -0.1445  0.3061
17302W        W33196   3.275   6.809   5.070 -0.2556 -0.0970 -0.3762
17303W        W33197   6.913   7.728  12.527  0.1182 -0.1486  0.0454
17304W        W33198   3.780  15.297  12.016  0.0780  0.0057  0.0534
17305W        W33199   7.976   7.614   2.012 -0.1354  0.2040 -0.1457
17306W        W33200   5.647   2.720   1.380  0.0607  0.0425  0.0515
17307W        W33201  15.758  13.287   1.434  0.1825 -0.1907  0.0198
17308W        W33202  10.385   2.977  15.913 -0.4215 -0.1284 -0.0879
17309W        W33203   9.471  16.941  14.372  0.1595  0.1626  0.2644
17310W        W33204   6.034  14.603  12.755 -0.3598 -0.0619  0.1813
17311W        W33205   9.999   9.144  15.109 -0.1346  0.0693  0.1698
17312W        W33206  11.696   8.222  15.355 -0.0375 -0.2024 -0.1282
17313W        W33207   9.986  14.259  14.146 -0.1125  0.2030 -0.1821
17314W        W33208   4.472   5.407   0.591  0.1074 -0.3594  0.0060
17315W        W33209   1.347   0.223  12.100 -0.1335 -0.1078 -0.0452
17316W        W33210   9.743   1.907  15.564  0.0460  0.0533  0.1246
17317W        W33211   5.725   0.834   2.570  0.3324  0.0103  0.1777
17318W        W33212  11.970  16.067   1.728  0.2057 -0.2507 -0.1061
17319W        W33213   6.948   2.272  16.067  0.0087 -0.3566  0.0994
17320W        W33214  11.854   2.035  13.192 -0.1026 -0.1389 -0.1611
17321W        W33215   5.425  14.605  14.625 -0.0545 -0.2130  0.1864
17322W        W33216  18.169  12.560  16.453  0.1439 -0.0163  0.0783
17323W        W33217   6.618   2.878   6.037  0.2981 -0.2242  0.2262
17324W        W33218   1.879  15.650   3.309 -0.1060  0.0969  0.3845
17325W        W33219   0.389  16.831   2.368 -0.1797 -0.1759  0.1979
17326W        W33220   9.956  14.427   5.474  0.3956 -0.0290  0.0708
17327W        W33221   2.790  15.759   6.485  0.1281 -0.0997  0.1676
17328W        W33222   9.267  14.545  12.157 -0.1261 -0.0384 -0.1958
17329W        W33223   9.168  10.483   2.921 -0.1422 -0.0978  0.0092
17330W        W33224   2.024   2.734   2.060 -0.3490 -0.0854 -0.1674
17331W        W33225   3.999   2.276   2.687  0.1332 -0.1137 -0.1624
17332W        W33226   6.571  17.638   2.400  0.0099 -0.0160 -0.0929
17333W        W33227  11.041  16.927  12.481  0.0360 -0.1160  0.2061
17334W        W33228  14.802  12.961   0.502 -0.0009 -0.1811  0.3218
17335W        W33229   0.954   4.176   2.268  0.0541  0.1398 -0.2243
17336W        W33230  11.933   4.706   2.062  0.2310 -0.0838 -0.0197
17337W        W33231  14.824  15.308   4.237  0.0793 -0.1670 -0.1006
17338W        W33232   8.646   0.217   5.662 -0.1412 -0.2150 -0.1627
17339W        W33233  11.242   9.153   2.462 -0.0181  0.0934  0.0917
17340W        W33234   3.758   1.581  16.247  0.1663 -0.2412 -0.2731
17341W        W33235  18.132   3.400   1.798  0.1495 -0.0290  0.1440
17342W        W33236   9.811  15.397  14.751 -0.1444 -0.3234 -0.0204
17343W        W33237   5.329  14.173   5.016 -0.0048  0.1970  0.1156
17344W        W33238  13.958  15.492   2.612  0.2821 -0.2089  0.3177
17345W        W33239   7.885  11.378   2.141  0.1571  0.0503 -0.0499
17346W        W33240   8.664   2.844  12.579  0.1371  0.0657 -0.0466
17347W        W33241   7.664   3.782   1.040 -0.0305  0.1631  0.0535
17348W        W33242  15.514  16.615  15.117  0.0260 -0.0786  0.0564
17349W        W33243  12.173  16.465   5.111 -0.3029 -0.3074  0.1580
17350W        W33244   8.345   8.027   4.697  0.3266 -0.1786 -0.0212
17351W        W33245   2.237   9.441   0.860 -0.4378 -0.1581 -0.1517
17352W        W33246   8.194   6.701  12.332 -0.1366 -0.0450 -0.0954
17353W        W33247  11.973  17.442  12.637  0.0147  0.0033 -0.1055
17354W        W33248  12.010   5.177   1.773 -0.2553  0.3220  0.2618
17355W        W33249  17.097  14.523   0.079 -0.1509 -0.1160 -0.1121
17356W        W33250   6.371   1.712   4.894 -0.3927  0.0217 -0.2846
17357W        W33251  10.319   4.800   4.845  0.0641 -0.0413 -0.1972
17358W        W33252   0.669  15.046   0.520  0.3802  0.4264  0.3727
17359W        W33253   4.524   8.012  13.166 -0.0528  0.0321  0.0270
17360W        W33254  11.705  17.632   5.334 -0.1707 -0.1656  0.0514
17361W        W33255   5.884  15.031   5.844 -0.0856 -0.1754  0.0492
17362W        W33256   9.750   0.888  11.480  0.2111 -0.0335  0.0862
17363W        W33257   2.964  16.821  14.488 -0.0534 -0.3685  0.3675
17364W        W33258  14.475  17.697   2.565 -0.0086 -0.0203 -0.0911
17365W        W33259   5.126   8.149  15.242 -0.2213  0.0588  0.2337
17366W        W33260  10.276  16.742  15.203 -0.0516 -0.0406  0.0947
17367W        W33261   5.713  16.605   3.574 -0.2076 -0.0197  0.0846
17368W        W33262   6.732  14.151   0.584  0.0533 -0.0665 -0.0496
17369W        W33263   6.364  15.855  15.179  0.2109 -0.1338 -0.1021
17370W        W33264   9.563   7.802   3.240  0.1357 -0.1574 -0.1510
17371W        W33265  11.420  17.454  15.412 -0.0834  0.0461  0.1588
17372W        W33266   9.482   7.248   4.636  0.1362  0.0513 -0.0448
17373W        W33267   6.807  12.212   4.282  0.2723 -0.0108  0.4607
17374W        W33268   3.288  18.012  11.958  0.0636  0.0768 -0.0255
17375W        W33269   7.175   8.302   1.786  0.2400  0.0033 -0.0668
17376W        W33270  13.396   1.479  13.399 -0.2564  0.1440 -0.5473
17377W        W33271   6.115   0.352   0.315 -0.2185  0.0850 -0.1304
17378W        W33272   1.791   2.269   0.212  0.2619  0.0141 -0.1841
17379W        W33273   4.161   0.972   4.492  0.1469 -0.4643 -0.1148
17380W        W33274  11.890  13.763   2.504 -0.0117  0.1861  0.2360
17381W        W33275  10.601  11.683   2.932  0.0014  0.0384  0.0305
17382W        W33276  11.933  16.080   3.181 -0.1924  0.0172  0.2325
17383W        W33277   3.400   7.419  12.444 -0.0791 -0.4691 -0.0260
17384W        W33278  15.959   3.951   4.503 -0.0465 -0.2203  0.0338
17385W        W33279   3.277  16.530  14.053  0.0844 -0.0277 -0.0410
17386W        W33280  11.425   4.969   4.687 -0.0658  0.1111  0.2794
17387W        W33281  15.120   6.082   1.374 -0.1108 -0.1112 -0.1956
17388W        W33282   3.264  11.721   1.202  0.0162 -0.2380 -0.2156
17389W        W33283   5.013  16.692  13.330  0.0454 -0.1751  0.2037
17390W        W33284  11.608   8.232   5.529  0.3167 -0.2965 -0.2229
17391W        W33285  10.668  10.045   4.440  0.3549 -0.0124 -0.2325
17392W        W33286  12.843   6.350  16.212  0.3237  0.0786 -0.2442
17393W        W33287   4.555  13.835   4.370 -0.4551  0.2558  0.1029
17394W        W33288   5.084   2.912   3.196  0.0126  0.3087  0.1206
17395W        W33289   9.168   6.964  14.635 -0.0870  0.0890  0.0656
17396W        W33290   7.661   8.676   0.187 -0.0416  0.0827  0.1895
17397W        W33291  12.278   2.960  13.581  0.1495  0.4165 -0.2633
17398W        W33292   4.594   3.954   1.951  0.1226 -0.0427  0.1436
17399W        W33293  14.653  11.522   5.642  0.3976  0.1603 -0.1415
17400W        W33294   8.401   3.023   2.087  0.1526 -0.4546  0.2278
17401W        W33295  17.249   7.800   1.573  0.2128 -0.0858  0.2071
17402W        W33296  12.912   2.093  16.069 -0.1609 -0.1346  0.2322
17403W        W33297  17.638   1.243   2.817 -0.2674 -0.0524 -0.1237
17404W        W33298   8.775   0.046   4.047  0.1904  0.2122  0.0921
17405W        W33299  10.666  13.874  12.077  0.0695 -0.0264 -0.2563
17406W        W33300   1.021  13.972   1.636  0.0147  0.2580 -0.0881
17407W        W33301   1.482  14.638  15.885  0.2546  0.0504  0.0512
17408W        W33302  15.644   8.280   5.525 -0.1863  0.1617 -0.3498
17409W        W33303   0.607  10.901  13.993 -0.2168  0.3658 -0.1808
17410W        W33304   8.436   2.932  15.799 -0.1732  0.1448 -0.0477
17411W        W33305   3.707   3.030   0.374  0.2118  0.1100 -0.0091
17412W        W33306  13.933  13.905   0.854  0.2787 -0.1241 -0.0892
17413W        W33307   7.564  17.556  13.037  0.0803 -0.0547  0.1608
17414W        W33308  15.245   1.726   0.514 -0.1728 -0.0413 -0.0132
17415W        W33309   7.376  10.323  15.339  0.2661 -0.1217  0.0193
17416W        W33310  13.525   3.842   3.599 -0.2872  0.1954  0.2725
17417W        W33311  15.372  10.168   1.973  0.0661  0.0757  0.0901
17418W        W33312  15.519  11.995   0.234  0.0144 -0.0480 -0.1060
17419W        W33313   2.060  17.390  14.272 -0.0594 -0.0113  0.0812
17420W        W33314   3.979   1.180   6.202  0.2796 -0.0717  0.3149
17421W        W33315   7.675   1.525   4.078 -0.2416  0.0473  0.0551
17422W        W33316   3.943   6.252  15.045 -0.1762  0.3089 -0.1321
17423W        W33317  12.540   0.508   1.174 -0.0154  0.0646  0.0459
17424W        W33318  11.335  15.906  14.715 -0.0597  0.2362 -0.2617
17425W        W33319  17.605   4.034  14.891  0.4204  0.0481 -0.3438
17426W        W33320  10.806   7.061   0.982 -0.1304 -0.1195  0.3336
17427W        W33321   1.011  13.753  13.091 -0.2462  0.3316 -0.1741
17428W        W33322   5.977   8.818  16.030 -0.1830  0.0515  0.0439
17429W        W33323   5.768  14.943  11.767  0.0075  0.1452  0.1950
17430W        W33324   3.458   8.784   2.967 -0.0251 -0.0576  0.3724
17431W        W33325   7.413   0.302  16.258  0.0059  0.0109  0.2653
17432W        W33326   7.178   3.453  16.267  0.2511 -0.0574 -0.2367
17433W        W33327  13.545   3.212  14.039 -0.1836 -0.2780  0.0056
17434W        W33328  11.502  17.479   1.948  0.1093  0.0844  0.1383
17435W        W33329  15.104  16.222   2.624 -0.1782  0.0673  0.2105
17436W        W33330  17.633   2.099   3.493 -0.2102 -0.1627  0.0834
17437W        W33331  13.396  15.416  14.528 -0.2634 -0.4272 -0.0693
17438W        W33332  14.586  17.948   4.068  0.0983 -0.0459  0.1176
17439W        W33333  11.082  12.137  14.332  0.0557 -0.1028  0.0139
17440W        W33334   3.664   3.108   4.208  0.0631  0.0365  0.0151
17441W        W33335   8.203   9.987  10.953  0.0322  0.2083 -0.2252
17442W        W33336  15.158  15.897  11.815 -0.3028 -0.0602  0.0658
17443W        W33337  13.422   8.612  11.765 -0.0124  0.0406 -0.2871
17444W        W33338  12.777  10.979   6.538  0.2427  0.1036 -0.2687
17445W        W33339  13.729  11.196  13.213  0.1295  0.0075 -0.1310
17446W        W33340   2.045   8.264   6.088  0.2440 -0.0616  0.1267
17447W        W33341   9.003  11.951   2.913 -0.3055 -0.0180  0.1444
17448W        W33342   3.565   2.252  11.402  0.1456 -0.0366  0.0279
17449W        W33343   6.166  13.121  11.706  0.0834  0.0013  0.0017
17450W        W33344   7.552   8.579   4.079 -0.2043  0.0059  0.0501
17451W        W33345  12.617   9.801  14.497 -0.2472 -0.0773 -0.0761
17452W        W33346   5.415   8.173   1.936 -0.0462  0.1287  0.1931
17453W        W33347  17.324   6.110   0.273 -0.2372 -0.1225  0.3464
17454W        W33348  10.502  10.664  13.545  0.2098 -0.1281  0.0402
17455W        W33349  15.561  14.753  11.566 -0.1338  0.0861 -0.0873
17456W        W33350  14.869   5.984   3.592  0.1313 -0.0574 -0.2264
17457W        W33351  10.936   3.110  12.901  0.0999  0.0251 -0.4921
17458W        W33352  16.226   2.978   2.939 -0.0672  0.0384  0.1217
17459W        W33353   8.619   0.865  13.806 -0.0537 -0.0226 -0.1568
17460W        W33354   9.122  12.433   0.902  0.0486 -0.3088  0.0705
17461W        W33355   6.187   7.737   3.450  0.0655 -0.0504  0.2175
17462W        W33356  13.061   3.316   1.436  0.0800 -0.0168  0.0194
17463W        W33357  18.001  11.506   0.372 -0.1617  0.1939 -0.3336
17464W        W33358   5.950   5.593   3.504  0.0194 -0.2838  0.2883
17465W        W33359   5.055   7.147  11.641  0.1210 -0.0255  0.1897
17466W        W33360   8.093  12.751   0.983  0.0427  0.1200  0.2488
17467W        W33361  16.743   5.996   1.853 -0.0152 -0.0442 -0.0677
17468W        W33362  10.687   6.167  11.097  0.1885  0.1131  0.0310
17469W        W33363   6.366  16.201  14.749  0.0583  0.0047  0.1360
17470W        W33364   4.668   8.202   2.912  0.2293 -0.0501  0.1470
17471W        W33365  16.713   6.770   4.725  0.1909  0.1370  0.4316
17472W        W33366  13.880   4.846   0.740  0.1314  0.1284  0.0302
17473W        W33367  16.508  15.061  13.094  0.3050  0.1222 -0.0686
17474W        W33368   2.180  16.783   6.029 -0.3616 -0.2326  0.0686
17475W        W33369  10.020  15.969   4.354  0.1842 -0.2060  0.0207
17476W        W33370   7.854  12.731  12.430  0.3969 -0.0496  0.1789
17477W        W33371  10.494  18.109  11.606  0.0091  0.5720 -0.1425
17478W        W33372  11.947   4.376   4.519 -0.1048 -0.5305 -0.2536
17479W        W33373  17.194  12.775   6.563 -0.4210  0.2545  0.1009
17480W        W33374   8.873   9.430  14.645 -0.1381 -0.3490 -0.0862
17481W        W33375  14.551   2.912  13.714  0.1249  0.1045  0.1240
17482W        W33376  16.530  16.795   2.258 -0.0191 -0.1707  0.1309
17483W        W33377  16.148   8.241   4.814  0.1537 -0.1259 -0.2459
17484W        W33378  16.351   7.539  13.105  0.3285 -0.0131  0.4010
17485W        W33379   4.206   9.427   2.566 -0.0771 -0.0138 -0.1018
17486W        W33380  10.708  11.550  12.254 -0.0679  0.0691  0.0365
17487W        W33381   5.181   4.015  13.301  0.0353  0.2719 -0.0574
17488W        W33382  11.086   1.261   5.106  0.0231 -0.0656 -0.2716
17489W        W33383   5.167   0.698   3.682 -0.2987  0.1960 -0.2016
17490W        W33384   6.857  14.450   3.380 -0.1854  0.0356 -0.2568
17491W        W33385  11.329   5.445  13.886  0.1837 -0.1448  0.0111
17492W        W33386  13.088   6.347  15.755 -0.0193  0.1987 -0.2519
17493W        W33387   0.396  16.101  15.541 -0.1495  0.4949  0.2159
17494W        W33388  16.909  12.117   5.963 -0.0448  0.1698 -0.1921
17495W        W33389  14.098   6.282  11.770 -0.2667  0.1214  0.0101
17496W        W33390   2.018   6.499  15.439  0.3809  0.0492  0.0091
17497W        W33391   5.251  11.437  16.372 -0.1773  0.0566  0.0680
17498W        W33392   7.741   5.461  16.173  0.1628 -0.3052  0.2070
17499W        W33393  11.240   4.310  13.244  0.2053  0.1540 -0.0964
17500W        W33394  15.166   6.402   0.444 -0.0969  0.2935  0.1422
17501W        W33395  13.933  16.781  14.057  0.1376  0.1708 -0.0636
17502W        W33396  16.223  13.990   4.865  0.3867 -0.1050  0.0531
17503W        W33397   5.284   0.398   4.190  0.2130  0.0486 -0.0214
17504W        W33398  11.951   2.265  14.319 -0.0792 -0.3680 -0.0121
17505W        W33399   9.390  16.520  15.947 -0.1154 -0.1037 -0.0405
17506W        W33400   3.421   2.689   1.626  0.3776 -0.1005 -0.1796
17507W        W33401   2.279   8.477   4.311 -0.0097 -0.0994  0.1784
17508W        W33402  17.960  13.536  15.705  0.0371  0.0763  0.1951
17509W        W33403  14.926   3.224  11.302 -0.3845 -0.5579  0.2702
17510W        W33404   6.049   2.383   2.662 -0.2011  0.2721  0.3668
17511W        W33405   9.942   2.926   1.017 -0.0912 -0.1505  0.1210
17512W        W33406   2.920  16.732   1.446 -0.2310  0.1643  0.1760
17513W        W33407   5.415   6.824  10.793  0.0408 -0.2164  0.0374
17514W        W33408  16.716   9.226  11.438 -0.2368 -0.0204  0.2808
17515W        W33409  16.817   8.175   2.006 -0.0764 -0.1642 -0.1665
17516W        W33410   0.865  11.263  14.783 -0.0092  0.0768  0.3740
17517W        W33411   3.600   1.220  11.457  0.3204 -0.3251  0.3478
17518W        W33412  10.530   6.420  13.266 -0.1719  0.1876  0.1512
17519W        W33413   2.544   0.827  12.192  0.1445 -0.0379  0.2832
17520W        W33414  11.147  11.387  12.433 -0.1323  0.0766 -0.2207
17521W        W33415   9.582   4.427   5.083 -0.1228  0.1507  0.2395
17522W        W33416   9.761  10.231  16.089 -0.2934  0.0663  0.2352
17523W        W33417   7.507  17.435  14.279 -0.1320 -0.2354  0.0751
17524W        W33418  16.916   5.958   0.039 -0.0456 -0.1108  0.2710
17525W        W33419   3.873   2.075  14.550  0.1596  0.1286  0.1701
17526W        W33420  15.106   9.383   2.795 -0.0820 -0.0627 -0.3267
17527W        W33421   1.740  14.836  12.957 -0.0624 -0.2890  0.0696
17528W        W33422  14.044   3.827  14.515  0.0090  0.0130  0.1810
17529W        W33423   4.679   3.797  16.292  0.0310  0.2802  0.2535
17530W        W33424  14.315   0.053   1.188 -0.1127 -0.2143 -0.1591
17531W        W33425  13.709  12.128   1.229 -0.0047  0.1107  0.2816
17532W        W33426   3.376  13.779  13.954  0.0560  0.2323 -0.0555
17533W        W33427   2.451   2.232  15.377  0.0887 -0.0055 -0.1455
17534W        W33428  12.739   4.637   2.617  0.0196  0.2437  0.1175
17535W        W33429   9.478  17.700  12.944  0.1490 -0.1510 -0.0646
17536W        W33430  10.506  12.681   4.990 -0.1567  0.2877  0.0412
17537W        W33431  15.722   0.268   2.366 -0.2267  0.0972 -0.2345
17538W        W33432   6.469  15.353  15.243  0.0789  0.4863  0.2486
17539W        W33433   9.498   1.187  13.817 -0.0367 -0.1511 -0.1083
17540W        W33434  14.413   9.701   4.823 -0.3708 -0.2451 -0.0925
17541W        W33435   5.314   3.140   0.131  0.1047  0.1665 -0.1993
17542W        W33436  13.366   9.579  13.824 -0.3440 -0.1869  0.1210
17543W        W33437   5.462   2.628  11.513 -0.2721 -0.2291 -0.0256
17544W        W33438   3.916  10.281  15.221  0.2312  0.3004 -0.0745
17545W        W33439   5.406   1.289   4.994 -0.0479 -0.1652  0.1961
17546W        W33440   0.640  10.834  13.458 -0.0048  0.1031  0.0328
17547W        W33441   5.110   1.523   3.220 -0.2141  0.0489  0.1806
17548W        W33442   0.961   9.576  13.297 -0.0682 -0.0539 -0.2023
17549W        W33443  16.448   2.617  15.857 -0.0189  0.1086  0.2950
17550W        W33444   8.799  12.617  11.476  0.0805 -0.0381  0.2521
17551W        W33445   7.048   2.230   5.129 -0.3204 -0.1070 -0.1593
17552W        W33446  13.883   9.783   2.292  0.0417 -0.2016 -0.1991
17553W        W33447   1.709   8.395   0.340  0.1815  0.0275 -0.2734
17554W        W33448   6.872  13.178  12.996  0.0006  0.1194  0.0071
17555W        W33449   2.284   4.197   5.420  0.0980 -0.0077  0.0464
17556W        W33450   1.817  15.881  16.298 -0.3834  0.2562  0.0374
17557W        W33451  10.243   8.198   4.510  0.0245 -0.2594 -0.2709
17558W        W33452   0.591   4.336  12.327  0.3975 -0.0385  0.0135
17559W        W33453   1.591   6.952  15.691  0.3005 -0.0007 -0.4061
17560W        W33454  18.052   4.070   4.402  0.2478  0.1717  0.0124
17561W        W33455   2.165   3.281   2.747  0.1301 -0.0267  0.1521
17562W        W33456  17.471   7.981  14.005  0.1727 -0.1581 -0.1730
17563W        W33457   5.649   2.219   3.963 -0.3806  0.0917  0.3903
17564W        W33458   1.610  11.936  15.029 -0.2799  0.0937 -0.0108
17565W        W33459  15.053  10.282   6.003  0.1430  0.1270 -0.1133
17566W        W33460   6.684  11.951  12.412  0.0528 -0.0839  0.1002
17567W        W33461  14.353   4.339  11.403 -0.0451  0.1696 -0.3362
17568W        W33462   0.055  11.566  14.481  0.3029 -0.2202  0.2384
17569W        W33463  14.805   6.662  15.470 -0.0859  0.2918 -0.3710
17570W        W33464   0.856   7.106   4.375 -0.2386 -0.0941  0.2336
17571W        W33465  16.364  13.422  14.822  0.2542  0.0285  0.1173
17572W        W33466   0.081   7.907   4.173  0.2385  0.0748  0.1676
17573W        W33467  14.384  11.975   3.700 -0.1539  0.2644 -0.3682
17574W        W33468  11.032   2.445   6.047 -0.3632 -0.1165  0.3431
17575W        W33469  13.238  15.471   2.150 -0.1764  0.0440  0.2269
17576W        W33470   8.616   6.333   1.056 -0.0928 -0.1615 -0.2417
17577W        W33471   4.017  16.832   4.128 -0.0691  0.1616 -0.0574
17578W        W33472  17.324  12.832   0.534  0.0724  0.2111 -0.1408
17579W        W33473  14.888   7.887  14.583 -0.1719 -0.0771  0.0689
17580W        W33474  15.546  16.818  14.080  0.2495 -0.0728  0.1172
17581W        W33475   0.984  12.967  15.326  0.1257  0.2924  0.2059
17582W        W33476  15.552  10.490   4.250  0.3627  0.2575  0.0196
17583W        W33477  17.645   0.195  15.231  0.3123 -0.0010  0.0023
17584W        W33478   9.741  15.909  12.563  0.0215  0.0111 -0.0226
17585W        W33479  13.301   0.334  11.927  0.2088  0.0348 -0.0237
17586W        W33480   4.719  15.718   4.306  0.0428  0.2207  0.0576
17587W        W33481   5.244   7.573  13.162 -0.2216  0.0148  0.6014
17588W        W33482   0.424   0.691   4.080 -0.1973  0.0905  0.0569
17589W        W33483   0.822  15.427   5.140 -0.2464  0.0701  0.1326
17590W        W33484   5.518  14.458   3.916 -0.0040  0.0359  0.0298
17591W        W33485   6.793   3.232  14.711  0.0548  0.1451 -0.2063
17592W        W33486  14.143  16.943   3.622 -0.2761 -0.2964  0.1465
17593W        W33487  11.866  12.534   0.682 -0.2573 -0.1404 -0.0382
17594W        W33488   6.406   5.422  14.815  0.1724 -0.2160  0.0200
17595W        W33489  13.068   8.382   5.832 -0.2188  0.1126  0.1518
17596W        W33490  11.447   6.835  13.410  0.3012 -0.0650 -0.2901
17597W        W33491   1.870   5.149   2.922  0.1092  0.1731  0.0610
17598W        W33492  10.422  16.211  15.963 -0.1118 -0.1361 -0.0802
17599W        W33493  14.506   9.334  16.111 -0.3363 -0.1676  0.0231
17600W        W33494   1.450   2.629   1.172  0.0422  0.0629 -0.1414
17601W        W33495   0.032  14.804   3.923  0.0583  0.1397 -0.0192
17602W        W33496   6.111   6.389  12.362  0.1588 -0.1767 -0.4821
17603W        W33497   7.500   1.724  11.397  0.0001 -0.4700  0.0252
17604W        W33498  14.323   5.149  12.207  0.0099 -0.2046 -0.1196
17605W        W33499   5.412  16.970   4.429 -0.1275  0.2476 -0.0286
17606W        W33500   2.259   0.187  13.652 -0.0002 -0.2588  0.1464
17607W        W33501   1.471  13.634   1.777 -0.1523 -0.0578  0.0880
17608W        W33502  12.100   6.569  15.106  0.0336 -0.0343 -0.2395
17609W        W33503   3.783  15.301   5.617 -0.0473  0.1990 -0.2307
17610W        W33504   9.336  17.876  11.663  0.2401 -0.1571  0.1917
17611W        W33505   5.697   8.366  15.976 -0.2837  0.2029 -0.0991
17612W        W33506  16.750  12.142   3.085 -0.0193 -0.1622 -0.0455
17613W        W33507  13.719   5.249  11.416 -0.0693 -0.0651 -0.1666
17614W        W33508  15.762  16.899  14.615  0.1594  0.0129  0.0110
17615W        W33509  10.033   7.297   3.274  0.2371  0.0824  0.1362
17616W        W33510   0.906  15.500  13.659  0.4098 -0.0152  0.1490
17617W        W33511   4.089   2.805   2.492 -0.0691 -0.2983  0.0804
17618W        W33512   4.622  13.137   2.804 -0.4173 -0.0472 -0.3712
17619W        W33513  17.953   3.594  12.223  0.1086 -0.2276  0.2208
17620W        W33514   6.732  10.757  12.751  0.1394 -0.1925 -0.2613
17621W        W33515  13.022  15.219   0.539  0.0587 -0.1272  0.3391
17622W        W33516  17.817   5.439  11.890 -0.1160 -0.0053  0.0510
17623W        W33517   8.536   3.283  12.737 -0.3452 -0.2180 -0.2594
17624W        W33518  15.580   8.609  13.457 -0.2024 -0.1237 -0.3991
17625W        W33519  15.873   0.821  12.406  0.0301  0.2337 -0.2010
17626W        W33520   8.381  15.757   1.993 -0.1667 -0.0710 -0.2310
17627W        W33521   8.554  11.999   3.119 -0.0726  0.0377  0.2138
17628W        W33522  11.768   9.604  13.203 -0.0183 -0.0281  0.0078
17629W        W33523  10.377   9.444  13.756 -0.1646  0.2640  0.2134
17630W        W33524   0.351   3.729   5.535 -0.0162 -0.3687 -0.0634
17631W        W33525  12.287   8.225  10.988 -0.2396  0.2127  0.1233
17632W        W33526   3.169   6.587  14.724 -0.0790  0.0275 -0.1859
17633W        W33527   4.949  15.290  13.433  0.2520  0.0663  0.1664
17634W        W33528   9.263   6.444   2.219  0.0382  0.3249 -0.1696
17635W        W33529   5.773  15.391   4.071 -0.1167  0.0122 -0.1714
17636W        W33530  15.088  17.565  14.923 -0.0617 -0.0843 -0.1532
17637W        W33531  15.573  12.485   5.087 -0.2489 -0.1148 -0.1354
17638W        W33532   3.397   4.387   4.846  0.0295  0.0039 -0.1631
17639W        W33533  11.630  17.742   1.357  0.1985  0.3361  0.2751
17640W        W33534   4.822   6.390  11.349  0.0827 -0.1541  0.0995
17641W        W33535   7.787   6.624   0.368 -0.0761  0.2460 -0.2259
17642W        W33536   4.772   1.626  16.314 -0.1395 -0.0874  0.1665
17643W        W33537  12.726   6.872  13.596  0.0042  0.1949 -0.0885
17644W        W33538  17.791   0.764  12.102  0.2920  0.2438 -0.0923
17645W        W33539   9.468   5.009  16.022 -0.3072  0.1419 -0.0737
17646W        W33540   9.395   1.276   5.633  0.1731  0.2571  0.1800
17647W        W33541  15.114   0.977   1.641 -0.0766 -0.1192  0.0760
17648W        W33542   6.954   6.839   1.670  0.2269  0.0182 -0.1027
17649W        W33543   4.464  16.402   1.646  0.0280 -0.1373 -0.1988
17650W        W33544   1.154   5.195   5.371  0.2206 -0.2588 -0.2139
17651W        W33545   8.067  17.088  12.401 -0.3923 -0.2521 -0.2284
17652W        W33546  12.708   4.577  12.740 -0.2282 -0.0241  0.3686
17653W        W33547   3.541   1.601  15.388 -0.0050 -0.0524  0.1588
17654W        W33548  13.152  12.732   1.550  0.2003  0.2805  0.0052
17655W        W33549   5.508  13.345  11.709 -0.1819 -0.0189 -0.2003
17656W        W33550  15.209   2.233   0.840 -0.3065 -0.1964  0.2380
17657W        W33551   1.637   5.637  13.025  0.1196  0.2885 -0.2378
17658W        W33552  16.597   1.439  13.438  0.1568  0.2041 -0.0481
17659W        W33553  12.320   3.532  15.544 -0.0645 -0.4008 -0.0386
17660W        W33554  12.982   7.205   4.289 -0.3069  0.0125  0.1065
17661W        W33555   6.765  10.217  13.886 -0.1970 -0.1511 -0.1867
17662W        W33556   3.116   6.521  12.819  0.3351 -0.0767  0.1534
17663W        W33557   1.603   2.290   2.017 -0.0188  0.2668 -0.1385
17664W        W33558   3.953  15.190   4.575  0.0097 -0.0545  0.1152
17665W        W33559  14.567  15.621  12.476 -0.0409  0.0036 -0.1153
17666W        W33560   2.894   0.622  12.465  0.0842 -0.0084 -0.1217
17667W        W33561   7.114   7.540  10.309  0.1336  0.3039 -0.2151
17668W        W33562   1.262  17.968   4.277 -0.2542 -0.0500  0.3745
17669W        W33563   3.494   0.967   4.983 -0.2480 -0.2728  0.2511
17670W        W33564   2.751  14.702  13.516 -0.0595 -0.1425 -0.1669
17671W        W33565  12.565  11.803   3.510  0.0279 -0.1680  0.2599
17672W        W33566   0.699  17.610  12.687 -0.2539 -0.2719  0.3910
17673W        W33567   3.240   4.079  15.214 -0.2563  0.0889  0.3836
17674W        W33568   0.862   7.756  14.115 -0.3452 -0.0402  0.1426
17675W        W33569   3.287   6.216   3.927 -0.2027 -0.1024 -0.0745
17676W        W33570   2.594   0.361   0.037 -0.2509 -0.0722  0.1100
17677W        W33571   6.646   5.772   0.565  0.0373  0.3278 -0.0684
17678W        W33572  17.790  14.420  16.194  0.1224  0.3841 -0.1252
17679W        W33573  11.962   3.438   3.609 -0.2023 -0.0897 -0.0236
17680W        W33574   4.196   0.496   1.155  0.1468  0.0156  0.0860
17681W        W33575   9.590  13.481   2.011  0.1221 -0.1231  0.0020
17682W        W33576  12.357   1.497   3.372  0.1272 -0.1102 -0.3823
17683W        W33577  14.592  14.965   1.097 -0.0077 -0.5159  0.0533
17684W        W33578  10.594  17.324   2.291 -0.1449 -0.1525 -0.0848
17685W        W33579  16.854  13.833   2.287  0.0838 -0.0982  0.0499
17686W        W33580  14.744  16.009   1.638 -0.1991  0.0773 -0.0207
17687W        W33581  15.574   5.744   0.590 -0.0766  0.0758 -0.1248
17688W        W33582   6.379   7.810  13.285 -0.0598 -0.1817 -0.2062
17689W        W33583  10.438   4.376   0.967 -0.2928 -0.1245 -0.1862
17690W        W33584  15.265  11.271  12.269 -0.0533 -0.2410  0.0444
17691W        W33585   6.902   0.637   3.948  0.2324 -0.2141  0.0414
17692W        W33586   5.751   8.492  13.886 -0.0179 -0.0788  0.0970
17693W        W33587   8.710  13.673   0.761 -0.2417  0.2444 -0.2826
17694W        W33588   1.862   6.254   4.494 -0.0142 -0.0040  0.0167
17695W        W33589  11.547  10.150  14.309  0.1322 -0.2566 -0.0224
17696W        W33590  10.347   4.107  10.747 -0.0451  0.0734  0.1137
17697W        W33591  17.898   9.584   5.837 -0.2042 -0.2211 -0.0745
17698W        W33592  17.648   2.370  15.505 -0.0557  0.1712 -0.2241
17699W        W33593   9.518  13.484  16.040 -0.1721 -0.1518  0.2530
17700W        W33594   5.334   9.343   3.974 -0.2235  0.1990  0.1345
17701W        W33595   3.314  11.066   0.681  0.0335  0.3865 -0.2330
17702W        W33596   3.494  15.016   4.776 -0.2005 -0.1162  0.0149
17703W        W33597  13.039   9.933  13.639 -0.1181  0.1912  0.1222
17704W        W33598  17.861   3.177   4.472  0.2930  0.0563 -0.0120
17705W        W33599   2.090  17.454  13.749  0.0637  0.0458 -0.1875
17706W        W33600   3.890  17.149   0.631 -0.0787  0.0569  0.0984
17707W        W33601  16.904  10.022   1.821  0.3483  0.0646  0.1728
17708W        W33602   3.323   3.924  11.505  0.1531  0.0869 -0.0037
17709W        W33603  15.679   8.901  13.020 -0.3756  0.2891  0.1854
17710W        W33604  10.188  10.824  15.352 -0.2118  0.3603  0.2212
17711W        W33605  15.757  17.933  14.582 -0.0883 -0.1855 -0.0538
17712W        W33606   3.464  18.081   0.074  0.0128  0.1766 -0.0879
17713W        W33607  17.085  18.234  15.923  0.0318 -0.2638  0.1205
17714W        W33608  17.991   6.655  12.094  0.4270 -0.2493 -0.0712
17715W        W33609   3.490  17.900   3.257  0.0844  0.0742  0.3117
17716W        W33610  17.725  12.447  12.426  0.0505 -0.2981 -0.1708
17717W        W33611  16.853   3.547   2.653  0.1157  0.0545  0.1212
17718W        W33612   1.400   5.191  14.257 -0.1090  0.2152 -0.2817
17719W        W33613   2.072   7.722  11.132  0.2019  0.0616  0.1668
17720W        W33614  17.360   3.280   0.755 -0.0632 -0.0864  0.1852
17721W        W33615  12.605  13.405  15.271  0.0441  0.1277 -0.2991
17722W        W33616   4.958   4.938  12.192 -0.1386  0.0888  0.3884
17723W        W33617   9.344   0.378  13.545  0.0428 -0.1123  0.0638
17724W        W33618  16.182   1.488  13.805  0.0803  0.1141  0.0096
17725W        W33619  12.651   5.197  11.057 -0.0039 -0.1557 -0.0355
17726W        W33620   2.886   4.156  15.772 -0.2341  0.0430  0.3027
17727W        W33621   5.581  15.399   4.568  0.1566 -0.0613  0.0042
17728W        W33622  13.006   3.780   1.556  0.0657 -0.0661  0.3604
17729W        W33623   3.597  12.954   0.307 -0.0095 -0.0662  0.4667
17730W        W33624  11.049  12.300  15.447  0.0852 -0.2503  0.0105
17731W        W33625   6.599  13.729   2.431  0.1307 -0.0303  0.0202
17732W        W33626  14.691  15.604  11.522 -0.0415  0.2053 -0.0719
17733W        W33627  13.205  16.810   1.062 -0.1996  0.2675 -0.0487
17734W        W33628   9.960   4.444   0.586 -0.0166 -0.1154  0.0570
17735W        W33629   4.052  14.650   1.756  0.1432  0.0649  0.2397
17736W        W33630   4.409   5.379   3.958 -0.2128 -0.1490  0.0901
17737W        W33631   4.549  10.332  12.838  0.2699 -0.0214  0.0687
17738W        W33632   5.230   2.449   1.278  0.1345 -0.1687 -0.0764
17739W        W33633  12.728  11.929   4.659  0.1370 -0.3756 -0.1406
17740W        W33634   7.604  10.447   2.610 -0.1375 -0.2524 -0.0941
17741W        W33635  11.531  10.992  11.794  0.2760 -0.0646  0.0884
17742W        W33636   4.774   0.828   1.554  0.2638  0.0393 -0.1403
17743W        W33637   6.846  18.126  12.101 -0.2593  0.2649  0.1558
17744W        W33638  12.738  10.152  14.874  0.2082  0.0067  0.3164
17745W        W33639   8.631   4.820   5.951 -0.1206  0.3778  0.0501
17746W        W33640  10.087   0.682   2.016  0.1307 -0.3121  0.1382
17747W        W33641   9.358   7.523  11.358  0.0226 -0.3171 -0.1815
17748W        W33642   3.180  14.475   1.520 -0.1506  0.2264 -0.3279
17749W        W33643  16.820   3.358   4.934 -0.0559 -0.2227  0.4709
17750W        W33644   1.583  15.667  13.429  0.2694 -0.0263  0.3979
17751W        W33645  13.251  17.349  15.826 -0.0861  0.0922  0.2381
17752W        W33646  16.842  13.086  12.702 -0.0313 -0.1157 -0.0750
17753W        W33647   5.647  15.189  13.641 -0.0508  0.2225 -0.0382
17754W        W33648   9.151  17.526   1.715 -0.2562 -0.1439 -0.1418
17755W        W33649   6.424   3.136   2.038 -0.2081 -0.1441  0.0253
17756W        W33650   8.182  16.108   4.389  0.0978  0.0784 -0.3888
17757W        W33651   5.119  13.000  13.590 -0.0231 -0.2109 -0.1358
17758W        W33652   1.200   4.091   0.388 -0.2465 -0.1506 -0.1538
17759W        W33653   1.142  13.757  15.724  0.0616 -0.1413  0.1139
17760W        W33654  12.800   5.810   3.700 -0.2688  0.3448 -0.2807
17761W        W33655  13.000   8.823   2.216 -0.0195  0.0090 -0.1397
17762W        W33656   3.249   5.672   4.501  0.3798  0.1261  0.0627
17763W        W33657   7.338   6.023  11.862  0.3632  0.0351  0.2097
17764W        W33658   2.847  13.994  13.926 -0.0143  0.0824  0.1077
17765W        W33659   6.805  14.964   0.980  0.1428  0.0118 -0.2836
17766W        W33660   7.152   6.482   2.010  0.0191 -0.0482 -0.0783
17767W        W33661  17.770   0.576   0.338  0.1160  0.1596  0.1262
17768W        W33662   1.689   6.506   0.115  0.1006 -0.4696 -0.0350
17769W        W33663  10.758  15.616   3.779  0.4654  0.0470 -0.1132
17770W        W33664   3.046  12.989  13.740  0.1152 -0.2878  0.1318
17771W        W33665   0.861  14.023   3.015  0.0645  0.1949 -0.0236
17772W        W33666   8.833  13.811  15.568 -0.1146 -0.1563  0.2955
17773W        W33667  11.695  15.024   3.059 -0.3213 -0.2238 -0.0468
17774W        W33668  16.220   4.640   1.860 -0.1116  0.0711 -0.1203
17775W        W33669  16.329  12.095  12.407 -0.0035 -0.1269 -0.5101
17776W        W33670   2.235  10.078  13.017 -0.1943 -0.1090  0.1380
17777W        W33671   4.765  18.214   1.037  0.2350  0.3631  0.1857
17778W        W33672   4.416  16.926   5.078  0.1286  0.0718  0.1383
17779W        W33673   4.424   3.530  12.068 -0.3732  0.0735 -0.2606
17780W        W33674   0.625   5.257  15.373  0.2077  0.0903 -0.0168
17781W        W33675  18.029   6.026  16.080  0.0401  0.1314 -0.0493
17782W        W33676  16.045  14.996   4.237  0.0104  0.1825 -0.0125
17783W        W33677  12.585  18.184  13.050 -0.4848  0.1060  0.0941
17784W        W33678  11.004  16.204  13.919 -0.2279  0.2379 -0.0471
17785W        W33679   0.859  12.864  12.673 -0.2647 -0.0163  0.1439
17786W        W33680  17.926  13.655  12.429 -0.3818 -0.0194 -0.1252
17787W        W33681  14.885  14.744  13.523 -0.2277  0.0798 -0.2259
17788W        W33682  10.188  10.912  15.823  0.1213  0.2285 -0.5097
17789W        W33683  15.159  14.376  12.880 -0.0012  0.0651  0.1576
17790W        W33684   1.632   3.855   5.808  0.1025 -0.1053 -0.1607
17791W        W33685  18.127   7.451   5.561 -0.1327  0.0199  0.2629
17792W        W33686   0.641  16.077   0.521 -0.0665 -0.1914  0.3237
17793W        W33687  14.537   6.077   1.594  0.0413 -0.0256 -0.2728
17794W        W33688  17.707   3.098   2.165 -0.1017 -0.0975 -0.0030
17795W        W33689  14.859   0.211  12.523  0.0945  0.1732 -0.1837
17796W        W33690   0.356   3.194  15.093  0.0596 -0.0531 -0.1769
17797W        W33691   9.909  11.753  13.255  0.0071 -0.1747 -0.1127
17798W        W33692   7.632   2.585  13.078  0.0121 -0.1998  0.1083
17799W        W33693  14.747  10.619  12.568 -0.0336  0.1125 -0.3595
17800W        W33694   2.212   1.539   0.538 -0.0322  0.3235  0.0852
17801W        W33695   8.491   5.575  12.970  0.1666  0.0685 -0.1510
17802W        W33696  15.532   4.535  12.178  0.1491  0.3448  0.1188
17803W        W33697   4.551   2.235  13.149  0.2355 -0.2217  0.0972
17804W        W33698   3.368   9.971  16.330  0.3790 -0.0820  0.1051
17805W        W33699   8.312  17.419   5.931  0.1720 -0.0886  0.2890
17806W        W33700  15.608  10.133  14.879 -0.1292 -0.0324 -0.3718
17807W        W33701   3.647   1.522   1.049 -0.0781 -0.0027 -0.1247
17808W        W33702  12.795  15.383   3.581  0.0896  0.0463 -0.1766
17809W        W33703  16.801   5.327  11.804 -0.2060  0.0242  0.0974
17810W        W33704   5.037   0.524  11.892  0.1780  0.0889 -0.0170
17811W        W33705  13.287  14.633   3.766  0.1189  0.2104  0.2016
17812W        W33706  13.841   3.815  11.223  0.3447  0.0543 -0.3129
17813W        W33707   1.783  10.707  11.963  0.1597  0.0949 -0.4507
17814W        W33708  13.233   6.116  13.668  0.1135 -0.0906  0.0436
17815W        W33709  15.251  14.946  12.704 -0.2642 -0.0823  0.0787
17816W        W33710   5.809  13.527   3.553  0.0015  0.0435 -0.4967
17817W        W33711   8.147  12.501   5.035 -0.1158  0.1894  0.1096
17818W        W33712  18.100   2.660  13.022 -0.4294  0.0709 -0.0302
17819W        W33713  15.574   1.200  13.729  0.1039 -0.2800 -0.2258
17820W        W33714  11.930  15.175   4.357 -0.0826  0.1761 -0.2418
17821W        W33715  10.011  13.825   0.828 -0.0492 -0.1218  0.0733
17822W        W33716   6.330  15.301   3.774 -0.0059 -0.1186  0.1500
17823W        W33717   9.962  17.571   4.878 -0.0571  0.4183 -0.0913
17824W        W33718   2.459  14.341  14.767  0.2232  0.1429 -0.1592
17825W        W33719  12.217  15.182   3.091  0.1206  0.3049 -0.1959
17826W        W33720   5.188   2.024  12.926 -0.0553 -0.1895 -0.1776
17827W        W33721  17.403   0.533  11.795 -0.0283 -0.1077 -0.4508
17828W        W33722   0.731  17.867   3.890 -0.3256 -0.0759  0.2548
17829W        W33723  12.771   7.659  14.183 -0.1730  0.0208  0.3356
17830W        W33724  18.025   5.192   2.400 -0.3013  0.4980 -0.1963
17831W        W33725  16.713   4.593   2.058 -0.2298  0.3692  0.1036
17832W        W33726   4.020   7.195   1.082  0.0154  0.0629 -0.3819
17833W        W33727   4.140  12.951   2.521  0.1473 -0.0743  0.0511
17834W        W33728  16.430   7.930   4.371  0.2867  0.0627  0.3536
17835W        W33729  11.717   5.786  13.837 -0.0843 -0.4472 -0.1285
17836W        W33730   4.381   7.864   3.028  0.1903  0.0536 -0.1229
17837W        W33731   3.843  10.338   2.130  0.0779 -0.0249  0.0547
17838W        W33732   0.949  14.816  12.618 -0.1718  0.1501 -0.2084
17839W        W33733  11.006   9.253  12.589 -0.2472  0.1389 -0.2099
17840W        W33734  11.557  13.233   4.123 -0.1038  0.1817 -0.1159
17841W        W33735   5.203  13.164  14.144  0.2206 -0.1729  0.0627
17842W        W33736  11.971  10.349  12.395  0.4654  0.2179  0.0176
17843W        W33737  14.052  13.858  14.639 -0.0547  0.2402 -0.0014
17844W        W33738  15.993  16.775   2.279  0.1722 -0.0320  0.0346
17845W        W33739   3.308   3.590   4.371  0.0213 -0.2489  0.1352
17846W        W33740   6.550  13.868  12.245  0.4059  0.5862  0.3075
17847W        W33741  15.323   2.753   3.693  0.3339  0.2981  0.1059
17848W        W33742   9.877  15.928   0.364  0.0465 -0.0006 -0.1805
17849W        W33743  16.585   8.403  15.868  0.1759 -0.0045 -0.1233
17850W        W33744   0.164  14.886  11.809 -0.0588 -0.0183  0.2171
17851W        W33745  12.927   4.959  14.015 -0.2368 -0.1121  0.1063
17852W        W33746  10.152   5.668  12.125  0.2803 -0.1566  0.1906
17853W        W33747  11.120   7.479  14.677  0.2021 -0.3692 -0.2666
17854W        W33748   2.745   4.279  16.208 -0.0327 -0.0870 -0.2143
17855W        W33749  11.169   9.263   1.227  0.2735  0.0804 -0.0769
17856W        W33750   5.353  14.123   0.901 -0.0500  0.0795  0.0822
17857W        W33751   2.582  11.430  12.541  0.2756  0.0390 -0.0677
17858W        W33752   0.731   1.205  11.238  0.2871 -0.2189 -0.2383
17859W        W33753  11.320  14.966  11.848 -0.0162 -0.1927 -0.2084
17860W        W33754   2.830   3.956  11.553  0.1117 -0.0951  0.1418
17861W        W33755  16.842  14.403  15.800  0.2966  0.0225 -0.2036
17862W        W33756   7.539  11.869  16.095 -0.1584 -0.0511  0.0808
17863W        W33757   8.711   6.570   0.564 -0.1427  0.1832 -0.1100
17864W        W33758  16.481  13.099   0.036 -0.0467  0.0421 -0.0758
17865W        W33759   2.629   4.405   3.363  0.3196 -0.1879 -0.0424
17866W        W33760   8.031   2.041  10.121  0.0861 -0.1570 -0.0775
17867W        W33761  14.492  13.332   3.293 -0.1499  0.1741 -0.4190
17868W        W33762   3.075   8.139  14.994 -0.1992  0.1349 -0.1141
17869W        W33763   0.595  10.209  13.604 -0.0829  0.1311  0.0492
17870W        W33764  15.858   0.258   1.387 -0.0848  0.1929  0.1257
17871W        W33765  15.820  16.122   1.407 -0.0951 -0.1894  0.1432
17872W        W33766  11.333  12.954   2.410 -0.0770  0.4045 -0.0657
17873W        W33767   0.318  10.771  16.024 -0.1747  0.0379 -0.1368
17874W        W33768  13.660  12.286   2.120 -0.1141  0.2475  0.2657
17875W        W33769  12.384  17.084   2.462  0.1193 -0.2803  0.0079
17876W        W33770   1.914  11.565   4.540 -0.0074 -0.0658 -0.1184
17877W        W33771   8.299  16.126   4.875 -0.3097 -0.0228 -0.1070
17878W        W33772  10.677  14.627   2.266 -0.3217 -0.0329  0.0256
17879W        W33773   7.095  10.625  15.003  0.0354  0.1040  0.0053
17880W        W33774   5.456  16.564   5.269 -0.2486  0.1539  0.1270
17881W        W33775   5.016   8.285   5.834  0.3136 -0.2401  0.2368
17882W        W33776   6.922  16.792  11.654 -0.0844  0.1627  0.4803
17883W        W33777  13.134   3.121  14.670  0.0700 -0.0644 -0.0053
17884W        W33778   1.736  13.277  12.391 -0.1023 -0.0536  0.0392
17885W        W33779   4.312  17.160  14.310  0.0647 -0.0939  0.0169
17886W        W33780  11.458  14.828  14.969 -0.2643 -0.2122  0.0521
17887W        W33781   5.783   3.985   2.713 -0.2365  0.0352 -0.1076
17888W        W33782  14.033   0.826  14.772  0.0442 -0.1517 -0.3096
17889W        W33783  15.311  11.304  14.476  0.2568 -0.1338  0.0108
17890W        W33784   7.640  12.923   3.866 -0.1883  0.1198 -0.0705
17891W        W33785  14.305   0.696   2.127  0.2371 -0.2763  0.4052
17892W        W33786  12.076  16.152   0.564  0.2030  0.2700  0.0076
17893W        W33787   6.793   6.230   1.584 -0.1438  0.3497 -0.1089
17894W        W33788  12.758   4.061   4.633  0.1920 -0.3948  0.2458
17895W        W33789   8.570   8.672  10.043  0.1751  0.2179 -0.0698
17896W        W33790  16.403  17.550  15.476 -0.1148 -0.1779  0.1134
17897W        W33791   8.303  14.656   3.850  0.0090 -0.0961 -0.2878
17898W        W33792   7.377  15.914   4.556 -0.1354 -0.0344 -0.3292
17899W        W33793  11.461   4.560  13.718 -0.0961 -0.0272  0.0121
17900W        W33794  12.472   7.179  14.248  0.1515 -0.0396  0.0392
17901W        W33795   3.641  13.592  11.474 -0.0457  0.0630 -0.0792
17902W        W33796  16.570   9.353   5.608 -0.1124 -0.0449 -0.0183
17903W        W33797  14.170   8.754   0.943 -0.1795  0.0184  0.0585
17904W        W33798  14.983   1.285  14.452 -0.0798 -0.2555 -0.2170
17905W        W33799  15.681   0.599  13.990 -0.1279 -0.0737  0.3644
17906W        W33800  12.460   1.859  13.129  0.1146 -0.0004 -0.1975
17907W        W33801   4.700  13.625  11.138 -0.2365 -0.1428 -0.1119
17908W        W33802  15.006  17.049   2.293 -0.0330 -0.1529  0.0999
17909W        W33803   1.499  15.064   1.467  0.0502 -0.0485 -0.2374
17910W        W33804  14.855  13.268   2.567  0.0324  0.0849 -0.3044
17911W        W33805  14.888   6.467  13.743 -0.1210  0.0957 -0.0396
17912W        W33806  17.255  11.930   0.689  0.0804 -0.1646  0.0336
17913W        W33807   8.241   6.352   0.746  0.0687 -0.0318  0.0167
17914W        W33808   8.050   7.621   3.323  0.0087 -0.1018  0.4130
17915W        W33809  11.433   1.881   4.687  0.2012  0.0246  0.1260
17916W        W33810  11.570   0.803  16.113 -0.1879  0.4668  0.2009
17917W        W33811   9.418   6.955  12.909 -0.1031 -0.3170  0.3329
17918W        W33812  12.329   5.991   2.232 -0.2221 -0.1889 -0.2818
17919W        W33813  15.490   2.473  15.001  0.0549  0.2108  0.1303
17920W        W33814  10.567   0.220  14.787  0.0455  0.4391 -0.1557
17921W        W33815   1.474   3.660   3.700 -0.2787 -0.1772 -0.1858
17922W        W33816   2.130   3.702   5.673 -0.0387  0.4315 -0.0104
17923W        W33817   9.484   4.436  13.384  0.1087 -0.1493 -0.1294
17924W        W33818   2.298   8.117   5.289 -0.3409 -0.0286  0.0051
17925W        W33819  17.576   0.746   1.349  0.1243  0.3799 -0.5379
17926W        W33820  14.908   3.810  11.969 -0.0419  0.2072 -0.0277
17927W        W33821   2.887  11.001   5.694  0.0982  0.0824  0.0049
17928W        W33822  15.480   0.951  15.691  0.0240  0.2182  0.0662
17929W        W33823   7.040   5.696  15.651 -0.1621 -0.1881 -0.3572
17930W        W33824  14.347   9.262  12.531  0.3339  0.1069 -0.1678
17931W        W33825  17.093  13.030  12.070  0.2388  0.0926 -0.4288
17932W        W33826  13.724   2.380  12.182 -0.0849  0.1307 -0.1699
17933W        W33827   4.669  10.296   0.687 -0.2737 -0.1846 -0.0491
17934W        W33828   6.166  16.359   3.623  0.0523 -0.0951  0.0546
17935W        W33829   5.282   3.350   4.658  0.1809  0.1730 -0.1985
17936W        W33830   2.227  16.486  14.658  0.2172  0.1004 -0.3157
17937W        W33831   6.547  14.740  13.955 -0.1590 -0.0458 -0.0477
17938W        W33832  12.304   7.496  12.549 -0.1101  0.2262 -0.0708
17939W        W33833   8.418   7.195  13.729 -0.0764  0.1915 -0.0464
17940W        W33834   4.769  13.939  15.100 -0.1690  0.2156 -0.2291
17941W        W33835   3.132   7.368   0.733  0.7027 -0.2533 -0.0770
17942W        W33836   3.654   4.566  13.301  0.0815  0.1805  0.0644
17943W        W33837   5.034  12.181  13.789  0.0708  0.0492  0.0498
17944W        W33838   8.344   9.886   3.056  0.2479 -0.2858 -0.0692
17945W        W33839  17.094   8.563  12.038 -0.2198 -0.1216  0.0018
17946W        W33840   2.087  15.068   0.535  0.0260  0.2417 -0.1458
17947W        W33841   9.983   3.823  11.328 -0.1479  0.1071 -0.2673
17948W        W33842   3.625  15.817   3.194  0.0594  0.2172 -0.2262
17949W        W33843  10.588   1.064  13.060  0.2819 -0.2992  0.2493
17950W        W33844  10.759  12.063   0.088  0.3247  0.2018  0.2347
17951W        W33845  11.923   0.601  14.456 -0.1398 -0.1655 -0.2481
17952W        W33846   7.329  17.897  13.458  0.0700 -0.4813  0.1822
17953W        W33847   7.374  15.339   0.499  0.2277  0.0627 -0.1118
17954W        W33848  16.056  13.384   0.009  0.3246 -0.0716  0.0937
17955W        W33849   1.719  15.396   0.589 -0.0020  0.3192 -0.1809
17956W        W33850   5.972  17.466  14.689  0.0582  0.0130  0.4639
17957W        W33851   5.089  11.972   5.706  0.0997 -0.1909 -0.0161
17958W        W33852   0.391  13.406   4.618 -0.2063  0.2277  0.1783
17959W        W33853   8.392  11.767  15.872 -0.1058  0.0368 -0.2545
17960W        W33854  15.517   7.913   2.611 -0.2592  0.0484  0.2741
17961W        W33855   7.079  17.110   1.364  0.0900  0.1431 -0.1894
17962W        W33856  17.090   5.648  14.378  0.1067 -0.0315 -0.0213
17963W        W33857   8.986   4.481  13.548  0.1792  0.0497 -0.3441
17964W        W33858  18.170   3.780   5.308  0.0455  0.0431  0.0132
17965W        W33859  12.473  12.938  15.273  0.0061 -0.1226  0.2408
17966W        W33860   0.955   5.820   3.564  0.0223  0.0893 -0.0475
17967W        W33861   9.108   8.024   2.802 -0.2571 -0.0502 -0.3063
17968W        W33862   1.073  11.118  12.370  0.2699  0.0705 -0.2439
17969W        W33863  15.963   9.086  14.229 -0.2341 -0.0285 -0.0138
17970W        W33864  12.702   7.343  15.259 -0.0994 -0.2049 -0.0384
17971W        W33865  13.465   1.814   4.382 -0.0438 -0.2206 -0.2160
17972W        W33866   0.266  12.489  11.856  0.2816 -0.1654 -0.0594
17973W        W33867   4.934  18.042  14.159 -0.2349 -0.2749  0.3706
17974W        W33868  15.210  11.364  16.229  0.0650 -0.3572  0.1193
17975W        W33869  13.879  16.411  13.661 -0.0619  0.0667  0.0716
17976W        W33870   0.288  11.722   4.660 -0.0736 -0.3801  0.1365
17977W        W33871   9.733  15.583   3.905  0.1389 -0.2797  0.2007
17978W        W33872  11.531   1.147   1.874 -0.3070  0.1111  0.0237
17979W        W33873   5.440   4.452   0.196  0.1479  0.0693 -0.4720
17980W        W33874   0.785   3.730   5.275 -0.3421  0.1871 -0.0055
17981W        W33875  12.299   5.715   3.789 -0.1691  0.3961  0.0058
17982W        W33876   0.539   8.065  14.530 -0.0800 -0.4463 -0.0445
17983W        W33877  16.253  11.832   6.116 -0.3114 -0.0454  0.0222
17984W        W33878   0.022  12.986  11.792 -0.2923 -0.0242  0.0589
17985W        W33879   8.262  13.362  13.868 -0.1097 -0.2582  0.0143
17986W        W33880   0.789  10.180   4.898  0.2110 -0.0857  0.1064
17987W        W33881  17.148  14.074  16.187 -0.4752 -0.0980 -0.0607
17988W        W33882  16.124   9.321  13.791 -0.2511 -0.1218 -0.1622
17989W        W33883  12.091  15.209  13.036 -0.5359  0.0467 -0.0300
17990W        W33884  10.192   5.381   1.176 -0.1671 -0.1438 -0.2099
17991W        W33885   8.941  13.114  12.182 -0.1034 -0.1424 -0.0516
17992W        W33886  13.577  10.356  14.805 -0.2297 -0.0469 -0.3233
17993W        W33887   2.340   4.225  12.025  0.0389  0.2468 -0.0327
17994W        W33888   9.596   0.535   2.247 -0.1412  0.1538  0.0642
17995W        W33889  11.101  13.064  16.429  0.1417 -0.0195  0.0411
17996W        W33890   3.870   0.312  12.571 -0.0904 -0.2745  0.2434
17997W        W33891   1.399  15.066  15.614  0.3054  0.0671  0.0588
17998W        W33892  18.230   7.310   3.667 -0.1343  0.2616 -0.1727
17999W        W33893   4.391   7.143  14.757  0.3818  0.1827 -0.0242
18000W        W33894  13.233   2.212  11.233 -0.0885  0.1871  0.0120
18001W        W33895  13.532  17.178   4.510 -0.0900 -0.0678  0.2684
18002W        W33896  17.004   2.726   0.688  0.1046  0.0913  0.2852
18003W        W33897  15.601  17.752  15.884  0.0645 -0.2010 -0.1213
18004W        W33898   4.468   3.881  11.288  0.2501 -0.0394 -0.0371
18005W        W33899   4.920  10.435  14.021 -0.1597  0.1185 -0.0170
18006W        W33900  18.100  14.120  12.475  0.0782  0.3676  0.0210
18007W        W33901   3.464   3.849   0.544 -0.2052 -0.0618  0.0137
18008W        W33902   6.798  11.625  11.578 -0.3422 -0.2866  0.0488
18009W        W33903  14.912   1.712  14.701  0.2358  0.0707 -0.1916
18010W        W33904   4.957   5.608  13.326  0.1336  0.2188 -0.0946
18011W        W33905  10.534   0.287  12.533  0.1590 -0.1410  0.0841
18012W        W33906  17.368   2.317  12.043 -0.1619 -0.4819 -0.0082
18013W        W33907   0.591  11.610   0.682 -0.0542  0.0446 -0.2530
18014W        W33908  12.163  13.156   5.743  0.4538 -0.0577  0.0329
18015W        W33909   8.508   5.978   2.220  0.1137  0.1668  0.0586
18016W        W33910  12.982  14.246   6.487  0.2987 -0.1141 -0.2629
18017W        W33911  11.518   2.493   5.707 -0.0956  0.2691 -0.1308
18018W        W33912   1.108  10.103  16.397 -0.3216 -0.1672  0.1937
18019W        W33913  16.964   1.788  13.434 -0.0677 -0.0279  0.4419
18020W        W33914   3.287  17.726   1.882  0.3432  0.3180 -0.1394
18021W        W33915  14.555   5.290   3.232  0.0741 -0.3624  0.0658
18022W        W33916  18.009   2.214   1.047 -0.1581 -0.0660 -0.0669
18023W        W33917   8.035   9.136   2.305 -0.0660 -0.0342  0.1367
18024W        W33918  10.893  16.006   5.499 -0.0877 -0.1529 -0.0446
18025W        W33919   1.841  16.267  11.312  0.0158  0.1144  0.0095
18026W        W33920  16.253   0.988   1.648  0.1014 -0.2553 -0.2740
18027W        W33921  17.483  13.204   0.942  0.1675  0.1100  0.0557
18028W        W33922   4.774  15.980   5.355 -0.0015  0.0668 -0.0549
18029W        W33923   7.931  11.265  10.961 -0.1259 -0.0504 -0.1445
18030W        W33924   7.759  12.813  11.524  0.2236  0.0571  0.0410
18031W        W33925   0.946   8.149  13.130 -0.0119 -0.0258  0.0413
18032W        W33926   8.534  12.128  13.258 -0.2491  0.1016  0.0599
18033W        W33927  10.143   1.728  15.292 -0.1840  0.1034  0.1828
18034W        W33928   0.773   6.921   2.915 -0.0796 -0.1208  0.0316
18035W        W33929  12.947  12.310   3.005  0.1941  0.0575  0.2915
18036W        W33930   9.866   0.252  13.696  0.0884  0.1155  0.1896
18037W        W33931  17.929   2.962  15.736  0.0271 -0.0964  0.1736
18038W        W33932   6.563   6.905  15.536 -0.3942 -0.0382  0.2104
18039W        W33933  12.893   0.815   2.217  0.2666 -0.1485  0.1116
18040W        W33934  17.985  16.577  12.211 -0.0416 -0.1640 -0.2052
18041W        W33935  12.731   3.416  14.927  0.2495 -0.2327  0.3433
18042W        W33936   2.287   7.512   3.255  0.2212 -0.3391  0.0832
18043W        W33937  13.935   7.536   0.204  0.0774  0.1460 -0.4389
18044W        W33938   9.715   8.397   0.019 -0.1612  0.3221 -0.0600
18045W        W33939   6.298  15.779   2.246  0.1452  0.1996 -0.0016
18046W        W33940  15.236  12.665   3.692 -0.3931 -0.1723  0.1424
18047W        W33941  11.745   9.893   1.295 -0.0223 -0.1270 -0.0024
18048W        W33942   0.719   8.841  12.451 -0.1320  0.1500  0.2179
18049W        W33943   7.578   2.512   0.994 -0.0386 -0.1738  0.2718
18050W        W33944   5.154   2.591  15.035 -0.2011 -0.0443 -0.0848
18051W        W33945   7.274   0.078  13.879  0.1699 -0.0709  0.1175
18052W        W33946  16.765  12.503   2.723 -0.2689 -0.1202  0.2531
18053W        W33947   1.818   7.775   3.537  0.1227  0.2253  0.0876
18054W        W33948  10.169   4.372  12.605  0.0044  0.0660 -0.2950
18055W        W33949  15.297   9.155  15.851  0.0759 -0.2158 -0.0092
18056W        W33950  16.763  14.709  16.190 -0.0650  0.1510  0.0913
18057W        W33951   3.244   0.236   1.259 -0.3547  0.1011  0.2745
18058W        W33952   3.146  13.538   2.943 -0.1674  0.1011 -0.1804
18059W        W33953   2.314  16.100  14.942  0.0884  0.2903  0.1913
18060W        W33954  14.480   0.269   1.676  0.3755 -0.1618 -0.0825
18061W        W33955  11.310   1.996   1.775  0.0449  0.1851 -0.0751
18062W        W33956  17.072   4.123  13.580  0.1528 -0.3330 -0.2754
18063W        W33957   4.410   9.697  14.471 -0.3376 -0.0505  0.0153
18064W        W33958   8.106   9.923  14.439  0.1928  0.2241  0.2601
18065W        W33959  17.547  16.715   2.883  0.0004 -0.1607  0.4354
18066W        W33960   0.520  12.001   2.656 -0.0196 -0.0875 -0.1977
18067W        W33961   0.226   5.572  15.229 -0.1375 -0.1717  0.1289
18068W        W33962  13.687  14.483   5.420 -0.2537  0.2231  0.1381
18069W        W33963   8.414  12.565  15.185 -0.1466 -0.2390  0.0386
18070W        W33964   8.504   1.895  12.972 -0.3687 -0.3059 -0.3063
18071W        W33965  10.270   5.901   1.579 -0.1080 -0.0601 -0.1284
18072W        W33966  11.536  15.994   3.984  0.4111  0.1001  0.1996
18073W        W33967  16.324   8.489   4.419  0.0895  0.1642  0.1059
18074W        W33968   1.339   3.073  16.027 -0.0068 -0.1618 -0.1033
18075W        W33969  11.339  15.421  13.191  0.3042  0.3670  0.0206
18076W        W33970   0.757   4.951   3.263 -0.1215 -0.1361  0.0707
18077W        W33971   6.231  16.609   1.716 -0.2020 -0.0416 -0.1216
18078W        W33972   1.838  11.816   2.768  0.2069 -0.2468 -0.3377
18079W        W33973   8.588   1.888   4.621  0.0413 -0.1449  0.0003
18080W        W33974   1.509  13.217  11.942  0.1326  0.0946 -0.1527
18081W        W33975   8.952   6.988  16.305 -0.0646  0.0425 -0.1463
18082W        W33976   3.871  13.987  13.068 -0.3892  0.1050 -0.0701
18083W        W33977  17.499  12.241  15.866  0.1411 -0.2015 -0.0746
18084W        W33978   5.150  17.477  11.054 -0.2146 -0.0824  0.1107
18085W        W33979   8.460   3.754  15.444 -0.1439  0.2381  0.0746
18086W        W33980  15.507   9.110   3.458  0.2401 -0.0099 -0.1167
18087W        W33981  15.857  15.486  15.269 -0.0175 -0.2371  0.1553
18088W        W33982  11.138   7.170  13.229 -0.0168 -0.0516 -0.0834
18089W        W33983  17.531  14.619  11.846  0.3242 -0.4402 -0.0553
18090W        W33984   1.678  13.123  15.327 -0.2558  0.0966 -0.1711
18091W        W33985  10.989  15.206   0.377  0.1582  0.1307 -0.2543
18092W        W33986  14.027   4.940  16.269 -0.0297 -0.2340 -0.0177
18093W        W33987  12.816  11.326  14.972  0.1290  0.1853 -0.2405
18094W        W33988   8.340  10.858   1.490 -0.1933 -0.3190  0.2005
18095W        W33989  13.623   1.734   1.835  0.3047  0.2560  0.0446
18096W        W33990  15.053   2.962   1.425 -0.0651 -0.0894  0.0251
18097W        W33991  18.217  13.104   5.043  0.3059 -0.0268 -0.1643
18098W        W33992  17.234  17.529  10.431 -0.1105 -0.0078  0.1691
18099W        W33993   7.512  13.238  14.265 -0.1496 -0.1622  0.1396
18100W        W33994  10.185  13.676   2.515  0.0653 -0.0816 -0.2320
18101W        W33995   6.252  13.785   1.734  0.0840  0.1552 -0.1740
18102W        W33996  10.526  13.165  12.090  0.0043 -0.0334 -0.1031
18103W        W33997   6.226  11.948  13.228 -0.0882  0.0585  0.0191
18104W        W33998  16.609   8.602   1.539 -0.0373 -0.1544 -0.0528
18105W        W33999   8.607   8.321  15.720 -0.1548 -0.0041 -0.1680
18106W        W34000  14.021  17.660  12.347  0.1832 -0.2273  0.0517
18107W        W34001  15.816  10.278  14.432  0.0321 -0.2115 -0.0341
18108W        W34002  12.621   9.511   5.233 -0.1653 -0.0066 -0.0422
18109W        W34003   4.948   6.953  12.181  0.0545 -0.0681 -0.2260
18110W        W34004   6.049   3.428   4.421 -0.0443 -0.0216  0.1202
18111W        W34005   0.685  12.873   3.547  0.0932 -0.0295  0.1003
18112W        W34006   6.803   5.574   1.594  0.1004  0.2079 -0.2976
18113W        W34007  14.710   0.014   2.357 -0.3422 -0.1949 -0.0798
18114W        W34008   9.337   7.343  16.272  0.0283 -0.3012  0.3508
18115W        W34009   5.112   8.983   1.051  0.1765  0.2033  0.0641
18116W        W34010   8.651  10.623  13.083  0.2567  0.1083 -0.1632
18117W        W34011   6.025  14.837  10.910  0.0269  0.0168  0.1452
18118W        W34012  17.720   3.813  11.648 -0.0502 -0.0481  0.2661
18119W        W34013   1.859  13.440  13.124  0.1997  0.0772 -0.0963
18120W        W34014  14.040  17.464   0.585 -0.1186 -0.0203  0.0194
18121W        W34015   6.208  12.254   5.475  0.4487 -0.2485 -0.1865
18122W        W34016   6.985   4.029  12.407 -0.2673 -0.0313 -0.0600
18123W        W34017   7.035   5.007   0.950  0.2120 -0.0711 -0.0707
18124W        W34018   8.586   7.975   3.654 -0.2290 -0.2543  0.2638
18125W        W34019   0.511  15.181   4.596 -0.1064 -0.1637  0.1169
18126W        W34020  14.965   3.450  16.184 -0.1836  0.1900  0.0694
18127W        W34021  10.396   2.290  15.411  0.0343  0.1674 -0.0173
18128W        W34022   0.156   8.934   1.359  0.0449 -0.2633  0.2001
18129W        W34023  17.033   9.601   2.053 -0.1632 -0.2786  0.0950
18130W        W34024   2.116   5.803  15.334  0.1208  0.2122  0.2069
18131W        W34025  10.150   7.067   1.575  0.2795  0.0683  0.0463
18132W        W34026   3.923   2.621  11.519 -0.0883  0.1597  0.3490
18133W        W34027   0.205   6.465  15.125  0.1406  0.3106 -0.0557
18134W        W34028   3.610   0.768  13.953  0.2014 -0.0231  0.2829
18135W        W34029  14.717  18.214  11.509  0.2789  0.0229 -0.1381
18136W        W34030   7.816  14.200   4.822  0.0878 -0.1851  0.1639
18137W        W34031  17.429   9.911  12.098  0.2304  0.1106  0.1256
18138W        W34032   5.718   6.662  12.501  0.0874  0.1837 -0.0941
18139W        W34033   3.084   9.271  11.148  0.1389 -0.2161 -0.0747
18140W        W34034  13.217   3.507   0.529  0.2850 -0.0187  0.2004
18141W        W34035   4.392   4.929   0.643 -0.0767  0.1328  0.2192
18142W        W34036   7.293   3.320  13.669  0.4226 -0.1839 -0.3973
18143W        W34037  12.567   2.124   2.768  0.1486  0.0291 -0.2155
18144W        W34038   0.729  11.970  15.388  0.2177 -0.1704 -0.1134
18145W        W34039  15.227   9.812   0.060 -0.2601  0.2943 -0.1287
18146W        W34040  14.804  14.745  15.684  0.0099  0.1132 -0.0891
18147W        W34041  11.017  17.690   5.246  0.0229 -0.2910  0.0184
18148W        W34042  10.186  17.382   5.285  0.1864  0.1092 -0.0043
18149W        W34043  12.139   0.937  11.866  0.1580 -0.1616  0.1802
18150W        W34044  12.364   6.726   3.025 -0.0964 -0.0828 -0.2424
18151W        W34045   2.041   9.260   0.388  0.1262 -0.0380 -0.2592
18152W        W34046  15.712  10.785   5.676 -0.2687  0.1899  0.3409
18153W        W34047  10.923   6.005   3.533 -0.1884 -0.1385 -0.1029
18154W        W34048  13.457   7.552   5.639 -0.0756  0.0336 -0.0475
18155W        W34049  17.186  10.959   4.134 -0.0727 -0.2951 -0.3295
18156W        W34050  16.014   4.114   5.847  0.1610 -0.0303 -0.1013
18157W        W34051  15.849   8.264   2.613  0.1947 -0.1862 -0.0365
18158W        W34052   0.935   0.050   3.176 -0.1923  0.0269 -0.0277
18159W        W34053  12.035  10.793   5.516  0.1775  0.1014  0.0265
18160W        W34054  11.963   2.389   1.685  0.2403 -0.2388 -0.1543
18161W        W34055  13.238  17.751  13.869 -0.0968 -0.3463 -0.2886
18162W        W34056   9.839  16.573  14.507 -0.0420 -0.2514  0.0404
18163W        W34057  15.622  15.900  15.515  0.0209  0.2397  0.0819
18164W        W34058   7.239  12.957  11.575 -0.0121  0.0285  0.0613
18165W        W34059   6.855   9.455  13.857  0.4002  0.0467 -0.2728
18166W        W34060  11.818  15.046  14.081 -0.6015 -0.0351 -0.1953
18167W        W34061   9.304   7.755   4.624 -0.2963  0.1121 -0.2435
18168W        W34062  10.159   7.824  11.514  0.3206  0.0289  0.0919
18169W        W34063   4.235   8.980  13.082  0.0794  0.0928 -0.2749
18170W        W34064  12.203  10.561   1.074  0.2807 -0.4408  0.1934
18171W        W34065   0.248   1.837  10.997 -0.1447  0.4093  0.0105
18172W        W34066  15.075  11.064  13.299  0.0264  0.0401 -0.0809
18173W        W34067   2.880   6.462   4.253  0.0132 -0.2813  0.4440
18174W        W34068   6.325  17.188  15.183  0.1543  0.1583  0.1006
18175W        W34069  11.407  10.584  13.045 -0.4483 -0.2446 -0.2572
18176W        W34070  14.106  10.457   1.141 -0.2346  0.1656  0.4120
18177W        W34071   8.074   1.335  16.286  0.3297  0.2472  0.1067
18178W        W34072   9.961   9.015  10.551  0.1476 -0.1579  0.4373
18179W        W34073  13.081   8.222   3.762 -0.0556  0.1459 -0.4906
18180W        W34074  15.290  10.222  11.902  0.1472  0.1263 -0.0513
18181W        W34075  11.566   9.769   2.795  0.0834 -0.0804 -0.2867
18182W        W34076   1.190   0.038   0.091 -0.0448  0.2826 -0.0793
18183W        W34077   8.553   5.400  15.486  0.1493  0.1681  0.0483
18184W        W34078   9.317   0.221   4.069 -0.0441 -0.3946  0.2459
18185W        W34079   9.379  17.839  14.208  0.2430 -0.0762 -0.0631
18186W        W34080  11.290  13.556   1.782  0.2949  0.2523 -0.0410
18187W        W34081  12.418  16.675   1.309  0.1244  0.0773 -0.2072
18188W        W34082   3.661   5.451   1.872 -0.0948 -0.0423 -0.1419
18189W        W34083   2.219  17.627  15.493 -0.1983  0.1775 -0.1073
18190W        W34084  17.060   9.895  15.311 -0.0719  0.2158 -0.0130
18191W        W34085   0.907  14.719   2.378  0.0963  0.3753  0.1261
18192W        W34086   6.939  13.840  15.395  0.0966 -0.0883 -0.2262
18193W        W34087  13.884  16.935  12.977  0.0052  0.0387 -0.0537
18194W        W34088   7.417   6.153  12.717  0.2013  0.1007  0.0662
18195W        W34089  10.956  16.183  16.120 -0.1539  0.0248  0.1063
18196W        W34090  12.229   7.274  16.408  0.1142  0.1258  0.3173
18197W        W34091   9.304   9.124   4.140 -0.0075 -0.0220  0.1477
18198W        W34092   3.056  13.310   0.599  0.0453 -0.2327 -0.1938
18199W        W34093   8.696   6.801  12.547  0.0102  0.0877 -0.1189
18200W        W34094   8.355   0.447   5.339  0.2031 -0.1196 -0.2564
18201W        W34095  15.727  14.892   0.200  0.0488  0.1530 -0.0853
18202W        W34096  14.872   6.455  12.192 -0.1366 -0.0060 -0.2196
18203W        W34097  13.280  17.949   2.226 -0.1179 -0.1735 -0.1190
18204W        W34098  13.684   1.070  11.508  0.0613  0.1646 -0.2700
18205W        W34099   0.083   9.117  11.922 -0.2475  0.2481 -0.0247
18206W        W34100  11.147  10.374   1.367  0.2466 -0.0007  0.2022
18207W        W34101  12.888  18.163   5.529  0.0616  0.0897  0.2537
18208W        W34102  10.262   2.884   4.415 -0.0837 -0.1169 -0.1930
18209W        W34103   7.122   3.041  11.047 -0.4041  0.1831  0.4064
18210W        W34104   9.262   5.057  11.932 -0.1906  0.1366  0.1000
18211W        W34105  10.368  16.188   5.314 -0.3603  0.0595 -0.1121
18212W        W34106   9.936   5.233   2.417 -0.0638  0.1528 -0.0123
18213W        W34107   3.159  12.820  12.873 -0.1194 -0.1362  0.1176
18214W        W34108   4.253   0.740  11.524 -0.1197  0.0013  0.0164
18215W        W34109   0.638   0.499  13.735 -0.0254 -0.3551  0.3596
18216W        W34110  10.355   7.530  12.789 -0.2467  0.1032  0.0632
18217W        W34111  13.970  11.255   3.777 -0.1968  0.2355 -0.1551
18218W        W34112   3.221   0.455   3.100 -0.1262  0.0405  0.1115
18219W        W34113  17.382  17.929   2.937 -0.1269 -0.2278  0.2836
18220W        W34114  13.826   4.383   3.620 -0.4206  0.4984 -0.0599
18221W        W34115  16.374   0.502  16.309  0.0007 -0.2468  0.2202
18222W        W34116  12.231   5.750  12.768 -0.0150  0.4631  0.0154
18223W        W34117   5.810   5.329  16.257 -0.1085  0.1269 -0.0893
18224W        W34118  17.089   6.432   1.908 -0.0018  0.3246  0.0004
18225W        W34119   5.796  15.956  11.971  0.0878 -0.0211  0.3121
18226W        W34120   0.789   2.074   4.747 -0.1958 -0.1050 -0.2205
18227W        W34121   9.088   6.408  14.617 -0.1026  0.1775  0.2520
18228W        W34122  13.800  10.985  14.020  0.1035  0.0610  0.0430
18229W        W34123   8.526   4.007  11.581 -0.1258  0.2851 -0.1783
18230W        W34124   0.708  17.153  15.336  0.1574  0.0647  0.0669
18231W        W34125   7.358  17.204   1.813 -0.3313 -0.2437  0.0354
18232W        W34126  14.176  15.935   3.397  0.2098 -0.1960  0.3953
18233W        W34127  10.071   8.303   0.539  0.2121  0.0675 -0.1081
18234W        W34128  13.958   8.463  11.533 -0.1617  0.2086 -0.0603
18235W        W34129   4.549   8.928  15.230 -0.1605 -0.1981  0.0026
18236W        W34130   0.688   1.733   3.016  0.3181  0.0093  0.0362
18237W        W34131   7.259  13.202   3.591 -0.0911 -0.0441  0.0172
18238W        W34132  16.745   8.352   2.797 -0.3630  0.0371  0.1770
18239W        W34133   2.049  17.954   0.620 -0.2526  0.0347  0.2735
18240W        W34134  13.371  15.994  14.408 -0.0989  0.0723 -0.0771
18241W        W34135  11.274  16.273   6.606 -0.0129 -0.0349 -0.1136
18242W        W34136   5.085   3.929   1.872  0.0702  0.1334 -0.3312
18243W        W34137  12.910  15.111   5.458 -0.0362 -0.0743  0.0273
18244W        W34138   8.948   6.063   2.387 -0.1193 -0.2477 -0.0623
18245W        W34139  10.631   9.496   2.867  0.1358  0.3446  0.1211
18246W        W34140   4.003  11.157   0.841 -0.0958 -0.0125 -0.0139
18247W        W34141   0.213  16.882   0.864 -0.0725 -0.0243 -0.0466
18248W        W34142   2.709  12.470  16.030  0.0218  0.2674  0.4226
18249W        W34143  17.758   9.674   6.946 -0.1401  0.0242 -0.2283
18250W        W34144  10.701   0.058  14.146  0.2159  0.1004 -0.1621
18251W        W34145   0.783   6.785  14.782 -0.3924  0.0191 -0.0862
18252W        W34146  15.728   6.366  15.005  0.2423  0.3379 -0.0302
18253W        W34147   1.912   9.078  11.533  0.0953 -0.0513 -0.4083
18254W        W34148  13.997  12.164   3.451 -0.2881  0.5062  0.2998
18255W        W34149   6.879  11.149  11.880  0.3314  0.1596 -0.1321
18256W        W34150   5.278   7.451   3.813  0.4550  0.2990 -0.1945
18257W        W34151  10.505   4.274   0.007  0.2756 -0.0206 -0.1046
18258W        W34152   3.902   2.076   4.259 -0.1327  0.1687 -0.1595
18259W        W34153  12.948  18.182   0.620 -0.4841  0.1339  0.1714
18260W        W34154   8.710  15.948  14.859 -0.0657  0.0975 -0.1566
18261W        W34155   5.582  12.470  15.865  0.2467 -0.2034  0.0058
18262W        W34156  11.911   5.693   1.309 -0.1688  0.0867 -0.2951
18263W        W34157   2.246   4.272  14.065  0.3700 -0.1283 -0.1203
18264W        W34158   5.602   0.980  14.810  0.3305  0.0749 -0.1104
18265W        W34159  12.383  11.816   5.801 -0.3506  0.0278 -0.0672
18266W        W34160   7.630  18.013   5.394 -0.3815  0.0071  0.1697
18267W        W34161  16.183   6.701   2.752 -0.0899  0.3487  0.0485
18268W        W34162  13.417   1.313   0.645  0.2109 -0.3444  0.2379
18269W        W34163  15.972   5.171  13.017 -0.2862  0.2900  0.0654
18270W        W34164  11.345   1.386   3.246  0.3357  0.0917  0.1292
18271W        W34165   9.599   4.902   4.233  0.1350  0.0740  0.1837
18272W        W34166  18.130   0.522  15.737 -0.0718 -0.2500  0.0185
18273W        W34167  16.126  14.821  12.998  0.1494  0.0339 -0.2135
18274W        W34168   4.005   0.094  15.935  0.1644  0.1641  0.2836
18275W        W34169  12.234   5.011   2.445 -0.1071 -0.0128 -0.0319
18276W        W34170   0.583   9.872  15.512 -0.2231 -0.1719 -0.0312
18277W        W34171  11.842   5.533  16.026 -0.0476  0.1486  0.1973
18278W        W34172  17.527   8.443  11.744 -0.0414  0.0623 -0.4952
18279W        W34173  10.158   8.867  11.063  0.2123 -0.3089  0.1144
18280W        W34174   8.970   2.500  15.020 -0.0482 -0.0961 -0.1345
18281W        W34175   0.197  15.686   4.447 -0.1319  0.1906  0.0036
18282W        W34176   1.253  16.409   2.063  0.0908  0.2348  0.0783
18283W        W34177   8.439   8.446  13.525 -0.0898 -0.0067 -0.1197
18284W        W34178  15.357  14.142   1.669 -0.0655 -0.2848 -0.2264
18285W        W34179   4.090  18.226   5.112  0.1499 -0.1914  0.0390
18286W        W34180   5.904  12.641   6.227 -0.0338 -0.1199  0.0885
18287W        W34181   5.479  17.271  16.015  0.2454 -0.2814  0.0816
18288W        W34182   3.649   0.111   3.038 -0.0882  0.1404  0.1276
18289W        W34183   5.970  11.822  14.157 -0.0582 -0.1179  0.1400
18290W        W34184   2.020   8.717   5.707 -0.0648  0.3251  0.1871
18291W        W34185  10.098  11.491  12.324 -0.1548 -0.0353 -0.0154
18292W        W34186   4.470  12.309  13.053  0.0039  0.6835  0.0648
18293W        W34187   6.797   0.235  14.760 -0.2463 -0.0369  0.0076
18294W        W34188  15.069   5.871   5.766  0.2712  0.3287  0.2271
18295W        W34189  13.215   4.392   2.503  0.2222  0.0528  0.2486
18296W        W34190  11.094   1.180   0.094 -0.1620  0.0922 -0.2199
18297W        W34191   1.829   7.763   6.045  0.0504 -0.0994  0.0595
18298W        W34192  14.707  15.066  15.197 -0.2066 -0.5038 -0.2557
18299W        W34193  16.129  14.473   4.131  0.1905  0.0479 -0.1176
18300W        W34194   0.212   6.880  14.907 -0.0089 -0.1734 -0.3365
18301W        W34195  10.446   2.847   0.013  0.1076  0.0709  0.2164
18302W        W34196  12.006  16.869   0.091 -0.2381  0.0887 -0.1479
18303W        W34197   3.322  15.402  11.154  0.0718 -0.1084 -0.0342
18304W        W34198   6.750  13.254  15.764 -0.2611 -0.1537 -0.1610
18305W        W34199  12.668  11.658  13.158 -0.0581  0.2025  0.2504
18306W        W34200   9.428   8.259   4.907  0.1547 -0.0754  0.0940
18307W        W34201   5.505  11.800   4.443  0.1021 -0.0576 -0.0631
18308W        W34202  15.275   6.154  12.488  0.0973  0.0831 -0.0625
18309W        W34203   1.830  18.150  14.718 -0.1880  0.0488 -0.0552
18310W        W34204  17.599  16.529  12.512 -0.0543 -0.0422 -0.0912
18311W        W34205  15.420   9.323  12.909  0.1900  0.0651  0.0269
18312W        W34206   1.705  13.565  13.747  0.0575  0.4362  0.2787
18313W        W34207   8.729   2.639   5.549 -0.1388  0.0568  0.0437
18314W        W34208   0.644  13.925   1.957  0.4580  0.1340 -0.1102
18315W        W34209   7.588  10.957  15.869 -0.2506 -0.0830 -0.0757
18316W        W34210   9.304   3.485   0.032  0.1858 -0.2783 -0.1368
18317W        W34211   1.305   3.505  15.143 -0.0620 -0.0634 -0.1396
18318W        W34212   0.329   0.393  16.411 -0.2163 -0.2050  0.1808
18319W        W34213   1.409   8.461   1.321 -0.0633  0.0889 -0.1547
18320W        W34214  14.008  15.537  14.672 -0.2146  0.1163 -0.3195
18321W        W34215   3.261   6.817  12.159  0.2615  0.0206  0.0314
18322W        W34216   0.632   2.610  10.843  0.1647 -0.1345 -0.1021
18323W        W34217  12.467   6.895   5.160 -0.1649  0.1603 -0.2123
18324W        W34218   7.996   8.269  13.144  0.2482 -0.2151 -0.2849
18325W        W34219   5.886   9.342   3.859  0.2265 -0.0751  0.1253
18326W        W34220  10.242   2.978   5.731 -0.5980 -0.1176 -0.0025
18327W        W34221  14.915   0.253  14.397  0.1123 -0.2971  0.5088
18328W        W34222  16.761  11.127   6.065 -0.1034  0.4297  0.2101
18329W        W34223   2.746  11.097   0.870  0.0313  0.0647  0.1033
18330W        W34224   3.692   5.877  16.450 -0.1916  0.2660  0.1763
18331W        W34225  15.743   9.773   4.036 -0.5220 -0.1685 -0.1180
18332W        W34226  11.333   2.338  15.080 -0.1310 -0.2192  0.1784
18333W        W34227   4.716   3.177  13.497 -0.0852  0.0041  0.0670
18334W        W34228   8.230   9.101   2.781 -0.0100 -0.2745 -0.2684
18335W        W34229  10.791   1.674   3.470  0.0118 -0.0629 -0.0522
18336W        W34230  16.391  11.824   5.183  0.1679  0.1497 -0.2803
18337W        W34231   4.058  13.622   2.555  0.1122  0.2027 -0.2648
18338W        W34232  16.822  13.045  13.949  0.0494  0.1838  0.0484
18339W        W34233   4.447   1.950   4.576  0.2826  0.1871 -0.2042
18340W        W34234  15.230  13.185   1.663  0.2160  0.0440  0.1727
18341W        W34235   9.276  16.043  12.742  0.0421  0.1283 -0.0489
18342W        W34236  13.464  11.743   1.417  0.1234 -0.3081  0.0370
18343W        W34237  16.192   1.932  15.987 -0.1610 -0.0280  0.2063
18344W        W34238   4.067   7.185  15.527 -0.1952 -0.1067  0.0421
18345W        W34239   8.432   4.645  15.549  0.0844  0.1714 -0.0254
18346W        W34240   6.291  13.283  12.938  0.3027 -0.1561 -0.0359
18347W        W34241   9.531   8.982  12.979  0.1092 -0.1537 -0.0683
18348W        W34242   3.005   9.339   3.593 -0.2503 -0.0981  0.0711
18349W        W34243   6.805   6.299   3.270 -0.0568 -0.1174 -0.0449
18350W        W34244   1.657  15.077   4.961  0.0153  0.0902  0.0056
18351W        W34245   3.144   4.688  13.506  0.0252 -0.0554 -0.0256
18352W        W34246   9.189  12.047   2.463 -0.0415  0.1207  0.0231
18353W        W34247  11.521  10.423   0.063  0.1793  0.1931  0.0162
18354W        W34248   9.016   8.391   5.255 -0.1035  0.0371 -0.0283
18355W        W34249  10.592   2.922   4.860 -0.0939 -0.1960  0.1484
18356W        W34250  13.185  12.128   4.926 -0.3134  0.0637  0.0849
18357W        W34251   2.875   5.927   4.316 -0.0967  0.0372 -0.2023
18358W        W34252   8.822   0.467  16.372  0.0193  0.2430  0.1042
18359W        W34253  15.999  12.006   0.096  0.0872  0.1947 -0.0549
18360W        W34254  11.496  10.534   4.900 -0.1334 -0.3290 -0.3227
18361W        W34255   2.793   0.486  14.020 -0.0551  0.4105  0.1708
18362W        W34256  15.585   0.030  13.735 -0.0396  0.3482  0.3524
18363W        W34257  17.015  15.029  13.066  0.0473  0.1324  0.2212
18364W        W34258   9.640  12.400  12.603  0.0082 -0.1299  0.1493
18365W        W34259   4.194  11.098   0.280 -0.1371  0.0060 -0.1040
18366W        W34260  11.758  11.718  13.125 -0.2716 -0.0716  0.2878
18367W        W34261   3.845  10.851  15.368 -0.2532  0.1044  0.0783
18368W        W34262  16.712   4.418  16.023 -0.0287 -0.2112  0.1629
18369W        W34263   4.181  12.722  13.043  0.1087 -0.0985  0.1032
18370W        W34264  14.520   0.176   3.540  0.0042  0.0727 -0.0640
18371W        W34265   4.522   7.119  10.824  0.3141 -0.4103 -0.2056
18372W        W34266  11.570  14.578   2.717  0.2891 -0.1215  0.2556
18373W        W34267   4.785   2.821  13.126  0.3114  0.2655 -0.2622
18374W        W34268  10.070  10.036   0.556 -0.1020  0.1581  0.0518
18375W        W34269  12.284  14.413   1.931  0.1287  0.1036  0.2437
18376W        W34270   7.756   3.032   2.792  0.0042  0.0283  0.0378
18377W        W34271  16.336   1.915   3.847 -0.0967 -0.2181 -0.0063
18378W        W34272   4.199  10.705   3.867  0.1897 -0.1929 -0.2342
18379W        W34273  17.856   3.577   0.858  0.0708 -0.1698  0.2004
18380W        W34274   7.734  17.561   5.283 -0.0437  0.1846  0.0726
18381W        W34275   0.767   1.445   1.864  0.0386  0.1967 -0.0180
18382W        W34276   8.714  10.669  13.991  0.0311  0.2193 -0.4237
18383W        W34277   6.456   3.466  12.422 -0.1313 -0.0443 -0.2241
18384W        W34278   1.346   8.215  16.455  0.3964  0.3298 -0.1091
18385W        W34279   4.397  14.607  14.285 -0.2306 -0.1373 -0.1003
18386W        W34280   4.083   5.366  12.794 -0.2258  0.1205 -0.0438
18387W        W34281   6.998   7.995  14.352  0.1600 -0.0600  0.0826
18388W        W34282  14.278  13.504  16.011 -0.0726  0.2728 -0.0664
18389W        W34283   7.465   6.654   5.136 -0.1491  0.0461  0.1306
18390W        W34284   5.795   7.707  14.890  0.1902 -0.3320 -0.1582
18391W        W34285   1.662   1.229  11.551  0.1301  0.0331  0.0940
18392W        W34286   4.800   7.402   0.338  0.0800 -0.1756  0.1438
18393W        W34287   3.375   7.088  14.863  0.1477 -0.1790 -0.0089
18394W        W34288  16.459  13.847  14.567 -0.0393  0.0691 -0.0607
18395W        W34289   7.067   3.048   0.023 -0.2201  0.0028 -0.1925
18396W        W34290   9.702  17.699   3.621 -0.2748  0.1018 -0.2789
18397W        W34291  13.453   9.309   1.289  0.0127  0.1924 -0.0561
18398W        W34292   8.091   8.421   0.207 -0.0070 -0.1506  0.1131
18399W        W34293  11.022   2.683   5.052  0.0764  0.0068  0.1722
18400W        W34294  14.381   1.778   4.811  0.2014  0.1114 -0.3208
18401W        W34295   7.276   5.845   9.847  0.1587 -0.0888 -0.1832
18402W        W34296   4.175  17.832   1.632  0.0013  0.1971 -0.2302
18403W        W34297   7.374   9.143  11.794 -0.0044  0.1090  0.0828
18404W        W34298  12.827   6.927  13.079 -0.2471  0.2037 -0.0967
18405W        W34299   1.521   4.622   4.197 -0.1453  0.0977  0.1796
18406W        W34300   4.601   9.841   0.445 -0.1118  0.1694 -0.0760
18407W        W34301   8.469   6.399  12.703 -0.0436  0.1896 -0.0475
18408W        W34302   2.105   4.716   3.061  0.4001  0.0800 -0.0132
18409W        W34303   7.407   9.843  15.170 -0.2190  0.0105 -0.1026
18410W        W34304  11.877   2.378   5.374 -0.4280 -0.1996  0.1014
18411W        W34305   5.915   2.867  14.865 -0.1399 -0.3499 -0.2402
18412W        W34306  10.249  17.142  12.873  0.1333 -0.1419  0.2970
18413W        W34307   2.023  11.284   5.547  0.2639  0.0464  0.0681
18414W        W34308   9.353  15.424   3.466  0.1194 -0.2079  0.0095
18415W        W34309  16.286   2.268   2.588  0.0248  0.1269  0.1815
18416W        W34310  13.402  17.371   4.984 -0.0997  0.2043  0.0865
18417W        W34311   4.598  12.241   2.959 -0.1290 -0.0727  0.0816
18418W        W34312  10.496  16.400   1.962  0.1037  0.2988 -0.0985
18419W        W34313   9.535   3.600  14.984  0.0268  0.1880  0.3222
18420W        W34314   6.787  10.802  12.271  0.1947  0.0873 -0.2131
18421W        W34315   2.013  10.566   3.008  0.2059  0.0654 -0.2297
18422W        W34316   6.160   1.517  16.020  0.2009 -0.2295 -0.0371
18423W        W34317  11.427   6.970  12.826 -0.3818 -0.0211  0.0806
18424W        W34318  17.211  14.953  16.272 -0.0883  0.1837  0.2126
18425W        W34319   0.186   9.593   3.282 -0.0140 -0.4940  0.1103
18426W        W34320  13.327   9.295  15.537 -0.1964 -0.0937 -0.1859
18427W        W34321  12.394   9.740   3.789  0.1019  0.1455  0.3668
18428W        W34322  17.700   2.705   2.738  0.1076 -0.0923 -0.1819
18429W        W34323   9.036   3.160   4.288 -0.1446 -0.0883  0.4008
18430W        W34324  13.804  11.716  12.545  0.1934 -0.0074  0.0702
18431W        W34325  15.758   2.671  13.661  0.1284 -0.2424  0.0470
18432W        W34326   2.284  15.118   0.069  0.2965  0.1762 -0.2318
18433W        W34327   1.484  11.865   0.314 -0.0425  0.4767 -0.2592
18434W        W34328   2.582   5.624   4.526 -0.2407 -0.0295 -0.0373
18435W        W34329  13.840  14.055   6.163 -0.1819 -0.1794 -0.1335
18436W        W34330   3.137  16.479  14.930 -0.2138  0.1689  0.1390
18437W        W34331   9.370  10.926  14.751  0.0047  0.0669  0.1287
18438W        W34332   9.859   1.486  11.396  0.2565  0.4093  0.1613
18439W        W34333  11.240   8.249   2.389 -0.3693  0.0473  0.2047
18440W        W34334  12.569   3.428  11.702 -0.4057 -0.1075  0.0718
18441W        W34335   1.128  12.906  13.740 -0.1392  0.3485 -0.0245
18442W        W34336  13.015   6.507  11.693  0.0350  0.3279  0.0353
18443W        W34337  14.413   8.352   1.122 -0.3749  0.2607 -0.3552
18444W        W34338   1.258   6.787  14.314  0.0786  0.1973  0.1766
18445W        W34339  10.806   0.176   1.623  0.0714 -0.2042 -0.2247
18446W        W34340  12.501  11.413  15.880 -0.0450  0.1049  0.3021
18447W        W34341  17.675  11.272   2.296  0.1442 -0.0837 -0.1043
18448W        W34342  17.899   5.076  10.349  0.1757 -0.0345  0.0039
18449W        W34343  11.824   2.175   1.111 -0.2018 -0.1780  0.2247
18450W        W34344  16.751   2.205  11.051 -0.3891  0.1520  0.2094
18451W        W34345   9.229  10.031  11.482  0.0995  0.1175  0.4088
18452W        W34346   3.276   8.674  13.940  0.2526  0.0330 -0.4411
18453W        W34347   7.574   0.320  11.534 -0.1302  0.2415  0.0819
18454W        W34348   5.523   7.865   0.293 -0.0670 -0.2215  0.1408
18455W        W34349  14.777   2.035  13.901  0.0184 -0.0963 -0.1476
18456W        W34350   1.231  10.639   3.544 -0.0297 -0.2187  0.2666
18457W        W34351   6.802   9.570   0.340  0.0105 -0.2033  0.2281
18458W        W34352  17.678  15.651   2.668  0.3476 -0.1157  0.2584
18459W        W34353   8.619   0.570   1.310 -0.2207 -0.3579 -0.0305
18460W        W34354   5.797   4.299   0.487 -0.0032  0.1321  0.0289
18461W        W34355  13.070   5.878   1.440 -0.0590  0.2364 -0.2304
18462W        W34356   1.308  18.078  13.934  0.2011 -0.1148 -0.1018
18463W        W34357   8.205   0.990  12.889  0.2122 -0.0053 -0.0768
18464W        W34358   7.806  15.500   4.484  0.0461  0.1512  0.2782
18465W        W34359   8.648   5.800  13.816  0.1865 -0.1660 -0.0841
18466W        W34360  12.067  11.100  14.478  0.3928 -0.1402 -0.3032
18467W        W34361   0.941  17.344   4.587  0.0775 -0.0173 -0.1118
18468W        W34362   2.991   0.993   1.942 -0.0971 -0.0710  0.0019
18469W        W34363   1.718   9.193  14.891  0.2749  0.1802 -0.1334
18470W        W34364  14.969   2.255  13.504 -0.0509  0.0727 -0.1106
18471W        W34365   4.199  15.118   5.704  0.0945  0.0252  0.0479
18472W        W34366   4.942   8.877  11.929 -0.2331 -0.0079 -0.0130
18473W        W34367  14.385   5.448   2.050 -0.2302 -0.1531 -0.1781
18474W        W34368  14.429   4.718   4.903 -0.1219  0.3632  0.2447
18475W        W34369  10.884  15.184  11.896  0.4000  0.1326 -0.0528
18476W        W34370   7.794  13.485   0.702 -0.1090  0.0738 -0.1897
18477W        W34371   4.347   4.566   9.570 -0.0714 -0.1362  0.0437
18478W        W34372  13.434  16.412   3.865 -0.0507 -0.1366  0.2892
18479W        W34373   4.700   4.969   3.248 -0.3056 -0.0750 -0.0982
18480W        W34374  14.091  13.136   4.556  0.3783 -0.2585  0.0860
18481W        W34375   5.824   7.204   3.325  0.1344 -0.0218 -0.1406
18482W        W34376   0.300  14.723   2.349 -0.1768 -0.2312  0.0067
18483W        W34377  15.911   8.940  15.370  0.3624 -0.0508  0.0743
18484W        W34378  12.857   9.537  13.980 -0.2635  0.3020  0.1216
18485W        W34379  17.215   2.269   3.759 -0.0272 -0.0110 -0.0056
18486W        W34380  17.717  14.179   1.511  0.1678  0.2886  0.0379
18487W        W34381  14.680   4.858   1.877  0.2462  0.3656 -0.2067
18488W        W34382  15.783  16.340   2.801  0.1050 -0.0868  0.1974
18489W        W34383   3.323   9.236  12.636 -0.3416 -0.3043 -0.1940
18490W        W34384   2.612  16.310   4.908 -0.2213 -0.0549 -0.0722
18491W        W34385   6.758   8.947   1.772  0.1666 -0.0162  0.1307
18492W        W34386  12.503   8.493   2.121 -0.3065  0.2911  0.1607
18493W        W34387   7.752  13.799  11.849  0.0961  0.4171 -0.1381
18494W        W34388  13.442  11.734  15.597 -0.0437 -0.0166  0.0460
18495W        W34389  12.792  10.298  11.851 -0.2437 -0.1071 -0.1585
18496W        W34390   9.431  13.637   5.026  0.5230  0.3663  0.1667
18497W        W34391   3.681  17.096   4.392  0.0636  0.0209  0.3298
18498W        W34392   8.044  16.028  12.154  0.0919  0.2373 -0.1781
18499W        W34393  14.784   4.102   3.308 -0.0668  0.1320  0.0592
18500W        W34394  11.015  16.991  14.664 -0.2633 -0.0658  0.0529
18501W        W34395  12.397  14.222   1.489 -0.0223  0.2833 -0.2796
18502W        W34396  11.869  10.590   4.298 -0.0425  0.5437 -0.1402
18503W        W34397  15.191   6.244  15.674 -0.3156 -0.2516 -0.0411
18504W        W34398  14.123  14.932  12.853 -0.3293 -0.3724  0.1374
18505W        W34399   1.639   2.492   5.361 -0.0296 -0.3737  0.0401
18506W        W34400  13.975   2.346  13.648  0.0039 -0.0641  0.0097
18507W        W34401   4.410  11.896   0.445  0.3246  0.2304  0.0324
18508W        W34402  12.536   4.895   3.246  0.1870 -0.1115 -0.1094
18509W        W34403   0.133   2.251   1.550  0.1476 -0.2492 -0.1861
18510W        W34404   2.980  17.251  16.148  0.3127 -0.2871 -0.0307
18511W        W34405   7.322  11.825  12.511 -0.2315  0.1378  0.0194
18512W        W34406   5.772  11.238  13.253 -0.0130 -0.2541  0.0814
18513W        W34407   5.229   4.674   5.098 -0.0299  0.3740 -0.1700
18514W        W34408   6.481  12.866   3.192  0.2520 -0.3366 -0.0486
18515W        W34409   2.288   8.867  14.062  0.2647  0.0236 -0.2412
18516W        W34410   4.885   0.480   6.344 -0.1920 -0.1328  0.0575
18517W        W34411  11.181  18.117  12.582 -0.1439  0.0766 -0.0476
18518W        W34412   4.067   2.067  13.845 -0.0863 -0.0439  0.0868
18519W        W34413  10.868  16.320   4.337 -0.1379  0.1809 -0.0386
18520W        W34414  13.346   4.726  14.953  0.1044 -0.2020  0.0166
18521W        W34415   4.009   4.976  16.139 -0.1364 -0.0929 -0.0762
18522W        W34416  11.272  16.453   6.074 -0.2563  0.2020  0.4620
18523W        W34417  17.470  17.147  15.730  0.3567  0.0667 -0.2221
18524W        W34418   8.840   3.758  12.433 -0.1961 -0.2454 -0.0896
18525W        W34419  11.182   9.050  12.084  0.0052  0.1824  0.2648
18526W        W34420   0.084  14.499  15.303  0.1538 -0.1111  0.0534
18527W        W34421   2.752   0.190  12.739  0.1924 -0.0260  0.0211
18528W        W34422  11.599   6.581   3.234  0.1439 -0.3055 -0.0660
18529W        W34423  13.877   1.970  11.825  0.1303  0.2551  0.0188
18530W        W34424  15.379   9.019   1.563  0.0704 -0.0988  0.1247
18531W        W34425   3.661   8.741  14.252 -0.0803 -0.0360  0.1406
18532W        W34426   5.519  15.589  15.662  0.1174  0.1838 -0.1230
18533W        W34427  11.291  11.115   4.200 -0.4591 -0.0056 -0.0795
18534W        W34428   7.533  15.093  13.940 -0.0882  0.4045  0.0061
18535W        W34429  15.582   9.932  12.220  0.0451  0.3937 -0.0789
18536W        W34430  13.344   4.051  14.653  0.0545 -0.1175  0.1645
18537W        W34431   8.057   0.715  13.780 -0.0228 -0.1365 -0.3084
18538W        W34432   0.283  14.387  12.783 -0.2394 -0.0051 -0.2275
18539W        W34433   7.758   5.197   3.541 -0.2304 -0.2713 -0.0350
18540W        W34434  13.238  13.755  12.261 -0.0634  0.2237 -0.2612
18541W        W34435  13.780   9.972  15.194 -0.0914 -0.1051  0.1288
18542W        W34436   8.988  14.560   2.469  0.3031 -0.1735 -0.0741
18543W        W34437   9.495   7.236   2.276  0.0446 -0.0954 -0.2021
18544W        W34438   2.017   4.429  12.769 -0.0412 -0.0069  0.1325
18545W        W34439   6.765  11.288  14.224 -0.1001  0.0791  0.4843
18546W        W34440  12.222  14.488  12.769  0.2515  0.2949  0.1179
18547W        W34441   9.456  17.161  11.574  0.0866 -0.2523  0.0637
18548W        W34442  10.869  17.620  16.041 -0.1521  0.1920 -0.0541
18549W        W34443  13.158  10.520   6.375  0.1270 -0.0091  0.1956
18550W        W34444   0.303  16.475   3.506 -0.2284 -0.0335  0.4132
18551W        W34445   8.982   6.507   4.764  0.0183  0.2198  0.1571
18552W        W34446  14.462  16.031   0.668 -0.0171 -0.2038  0.1175
18553W        W34447  16.774   8.614   0.769 -0.1816 -0.2634  0.0233
18554W        W34448   1.705   7.206   3.458 -0.0467  0.1189  0.1712
18555W        W34449   3.479   0.093   3.570  0.2266 -0.0727 -0.0599
18556W        W34450  16.197   8.030  14.238 -0.1384 -0.1454 -0.1688
18557W        W34451   1.541   5.833   5.093 -0.2627  0.1264  0.0968
18558W        W34452   7.660   2.400   0.020 -0.0685 -0.1379  0.0649
18559W        W34453  17.132   4.046   4.423  0.1031  0.0276 -0.0543
18560W        W34454   3.283  15.812  16.132  0.2585  0.1986  0.0548
18561W        W34455  18.193   5.714  12.092  0.3775 -0.3113 -0.0543
18562W        W34456  10.047  12.536  11.611  0.1163 -0.0699  0.1362
18563W        W34457   3.586  15.533   4.764  0.0272  0.0170 -0.2892
18564W        W34458   8.129  17.410   2.993 -0.0186 -0.3928  0.3305
18565W        W34459  13.439   7.155  14.653  0.2146  0.1304 -0.0887
18566W        W34460   3.168  12.101   2.744  0.0218  0.2522 -0.0191
18567W        W34461   5.688   0.964  12.721 -0.0577  0.0629 -0.1013
18568W        W34462   7.683   5.200   1.824  0.0280  0.3016 -0.0233
18569W        W34463   2.981   9.233  15.802  0.0032  0.2903  0.1932
18570W        W34464   7.371   9.055   4.857  0.0791  0.1346 -0.2018
18571W        W34465   0.718  11.380  13.985 -0.0747 -0.3379  0.0162
18572W        W34466  17.407   2.721   4.601 -0.2343  0.0370 -0.1340
18573W        W34467   8.518  18.078   1.098  0.2569 -0.1723  0.0135
18574W        W34468   6.579   3.445   3.146  0.0016 -0.0153  0.1083
18575W        W34469   7.790  18.076  15.106 -0.1260 -0.0865 -0.0541
18576W        W34470   1.007   5.913   0.594 -0.1401 -0.2771  0.1777
18577W        W34471  15.910   0.108   0.207 -0.0028  0.0062  0.1814
18578W        W34472  17.951   5.189  15.858  0.1271  0.2878 -0.1101
18579W        W34473   6.070   2.878  11.126  0.0582 -0.0352  0.0766
18580W        W34474  11.238  15.770   5.064  0.2121  0.0104  0.2167
18581W        W34475  13.990   9.138   0.032 -0.0995 -0.1738  0.1767
18582W        W34476  16.283   2.814  11.806 -0.1348  0.1875  0.0186
18583W        W34477  14.649   4.372  11.865 -0.2210  0.3459  0.2028
18584W        W34478   5.528   3.778  11.355 -0.1913  0.0726  0.1540
18585W        W34479  10.048   9.612  15.306 -0.2377  0.1630 -0.2619
18586W        W34480  12.276  12.339   6.351  0.0932 -0.0802  0.2322
18587W        W34481  16.172   0.592  13.163  0.0408  0.2372  0.0907
18588W        W34482   4.594   6.889  12.565 -0.1843 -0.1254  0.0333
18589W        W34483   6.073   2.699  13.252  0.0366 -0.1618  0.0442
18590W        W34484  16.800   4.755  14.602 -0.2870 -0.2893 -0.2087
18591W        W34485   9.171   3.720  14.197 -0.1065  0.1864  0.0828
18592W        W34486   5.487  18.069  11.497  0.2059 -0.1312  0.4506
18593W        W34487   9.546   7.032   5.774  0.0870 -0.1967 -0.0747
18594W        W34488  10.155  12.935   1.896  0.2434 -0.4708 -0.0110
18595W        W34489   6.210   9.196   4.902  0.2175 -0.2549 -0.0642
18596W        W34490  13.231   7.653   3.069 -0.1339  0.0136  0.4892
18597W        W34491   9.452  14.514   1.508 -0.2045 -0.0228 -0.1620
18598W        W34492  17.342   1.532   5.017  0.0949 -0.0829 -0.1720
18599W        W34493  16.966  10.668   1.879  0.1617 -0.1314  0.2917
18600W        W34494   6.428  13.515  11.883  0.1420  0.2831  0.0388
18601W        W34495   3.741   7.269   2.432  0.0036 -0.1885 -0.0236
18602W        W34496  14.593  15.815  14.617  0.1163 -0.0562 -0.3058
18603W        W34497   3.328   5.603  14.041 -0.1354 -0.0756 -0.0420
18604W        W34498  16.934  16.683  12.806 -0.1128 -0.0184  0.0727
18605W        W34499  16.588   2.933  16.402  0.2168 -0.2507  0.0666
18606W        W34500   3.315   3.165  13.754 -0.2016  0.1296 -0.2043
18607W        W34501   7.937   3.610   3.969  0.1339  0.0453  0.0530
18608W        W34502  16.558   1.527   4.832  0.0743 -0.0538 -0.0560
18609W        W34503  15.352   0.381   3.640  0.0899  0.3957  0.0519
18610W        W34504  15.341   4.734   0.607 -0.1447 -0.0208  0.0402
18611W        W34505  16.904  11.962  13.399  0.4573 -0.0619 -0.1184
18612W        W34506   4.321  14.228   5.178 -0.0464  0.0632 -0.2056
18613W        W34507  17.283   1.133   1.335  0.1374  0.3169 -0.0963
18614W        W34508   8.272   7.747  14.672  0.0523  0.3704 -0.2626
18615W        W34509   8.652  15.915   4.389 -0.3289 -0.2644  0.1141
18616W        W34510   8.242   5.315   4.901  0.0240  0.1650  0.0527
18617W        W34511  10.355   1.302   0.660 -0.2596  0.0138 -0.3963
18618W        W34512   7.458   7.849   2.959  0.2479 -0.0668 -0.1706
18619W        W34513   3.430  14.582  11.506  0.1761  0.2573  0.2808
18620W        W34514  10.623   0.385  10.985  0.2237 -0.1099 -0.1151
18621W        W34515   6.949   0.328   0.949 -0.1653 -0.3386 -0.1340
18622W        W34516  15.612   2.456   5.067  0.1550 -0.0234 -0.3065
18623W        W34517   6.785   3.343  13.159  0.0245 -0.1284  0.1588
18624W        W34518   7.471  17.631   3.162 -0.0631 -0.1102 -0.3904
18625W        W34519   0.959  16.331   1.672  0.1011  0.0214  0.1016
18626W        W34520   0.587   3.912  15.373 -0.0851  0.0152 -0.0797
18627W        W34521  10.661   8.128  15.386  0.2198 -0.2359  0.0292
18628W        W34522  12.602   5.068  10.490 -0.0462  0.1022 -0.1281
18629W        W34523   6.619   6.776   4.882  0.0925 -0.1844  0.1796
18630W        W34524   1.814  12.011  14.577 -0.2159  0.0531  0.2821
18631W        W34525   5.011   7.809   0.109  0.1556 -0.0799 -0.2597
18632W        W34526  10.023  13.877  13.858  0.0164 -0.5384 -0.4464
18633W        W34527  12.396   0.326  15.789 -0.0014  0.3149 -0.0021
18634W        W34528   3.724   0.799  14.846  0.0521 -0.0843  0.1222
18635W        W34529   0.053   1.558   5.333 -0.3152  0.1476  0.2831
18636W        W34530  12.911   8.687  12.575 -0.2160 -0.4206  0.0359
18637W        W34531  10.252  11.647  13.583 -0.1094  0.0429  0.0498
18638W        W34532   6.891   4.551  15.088  0.1425 -0.0072 -0.0553
18639W        W34533  14.298  15.441  12.839  0.4518 -0.1767 -0.0038
18640W        W34534   0.817  10.009  13.057 -0.1674  0.0069 -0.1401
18641W        W34535   4.862   3.353  12.316 -0.0853 -0.0535  0.0521
18642W        W34536  12.491   8.073  15.611 -0.0447 -0.0204 -0.0636
18643W        W34537   5.752  18.036   2.492 -0.0328 -0.1365  0.2187
18644W        W34538  11.999  11.779  15.300  0.2164  0.0097 -0.1213
18645W        W34539  11.800   6.952  13.731  0.0511 -0.0668 -0.0760
18646W        W34540   1.644   7.983   2.624  0.3279 -0.0056  0.2232
18647W        W34541   8.413   3.730  12.862  0.1173 -0.2245 -0.2134
18648W        W34542   9.739   5.240   3.764  0.2274  0.0265 -0.3817
18649W        W34543   9.451  10.391  12.459  0.2395  0.1332  0.0393
18650W        W34544   3.588   3.499  11.558  0.1217  0.0274  0.0608
18651W        W34545  16.963   0.936  12.830 -0.0731  0.0188  0.3910
18652W        W34546   9.280  11.320   1.429  0.0774 -0.0031 -0.2101
18653W        W34547  14.239  12.132  15.645 -0.0407  0.2486 -0.2795
18654W        W34548   9.751   0.291  16.169 -0.0898  0.0029 -0.3469
18655W        W34549   9.679  17.231  15.382 -0.3478 -0.4278 -0.0533
18656W        W34550   0.696  16.644  13.322  0.1848 -0.0371 -0.2100
18657W        W34551   4.498  11.875   3.467 -0.0263 -0.1395  0.3154
18658W        W34552  13.689   2.210   4.762  0.2345 -0.3937  0.1231
18659W        W34553   6.274   0.841   5.539  0.2604 -0.2850  0.3491
18660W        W34554   3.792   1.200  12.254 -0.3977  0.4648 -0.3243
18661W        W34555   4.997   1.592   1.357 -0.1247 -0.0612 -0.0323
18662W        W34556  14.507  13.899  14.423 -0.0921 -0.0739 -0.1455
18663W        W34557  15.621  10.351   4.744  0.1128  0.0148  0.1189
18664W        W34558  16.090   3.392  14.329 -0.1279  0.1771 -0.3456
18665W        W34559  14.545  16.451  16.230 -0.3344 -0.2709 -0.1004
18666W        W34560   5.867   1.258   4.129 -0.0986  0.2091 -0.0860
18667W        W34561   7.694   5.411   5.783 -0.0535 -0.0066  0.0804
18668W        W34562  17.477  13.089   3.490 -0.0643  0.0455  0.1764
18669W        W34563  14.194  16.560  13.240  0.1070  0.0225 -0.1496
18670W        W34564  12.666  11.307   4.353 -0.0796 -0.0208  0.0138
18671W        W34565   2.404   0.071  14.710  0.0682  0.0075 -0.0112
18672W        W34566   7.462   1.503  14.520 -0.0384 -0.0372  0.1822
18673W        W34567   4.413  11.774   1.586  0.1570  0.0332 -0.0871
18674W        W34568  15.648  11.681  16.311 -0.0241 -0.1471 -0.1164
18675W        W34569  17.137   7.135   2.634  0.0934  0.2967  0.1559
18676W        W34570  14.062  17.948  11.940 -0.2347  0.0192  0.2285
18677W        W34571   2.016   8.034   4.297 -0.5129 -0.2120  0.3104
18678W        W34572  11.784   4.906   2.704 -0.0765  0.3781 -0.0929
18679W        W34573  11.677  17.025   1.816 -0.2205  0.0406  0.2491
18680W        W34574   4.363   5.814  12.127 -0.2948  0.0558 -0.0775
18681W        W34575  10.662  16.517   3.331  0.1377  0.0460 -0.0493
18682W        W34576  14.072   3.454  11.687 -0.0889  0.2802 -0.1269
18683W        W34577   0.164  16.229  12.012 -0.1016 -0.5032 -0.0540
18684W        W34578   4.603   1.242   4.271  0.0150 -0.2196  0.1639
18685W        W34579  17.392   9.769   5.708  0.1573  0.0319 -0.5424
18686W        W34580   3.838   8.802  11.344  0.0290 -0.0624  0.3153
18687W        W34581  17.277  10.480   0.023 -0.1248 -0.0501  0.1641
18688W        W34582   6.820  17.922   1.240  0.0633 -0.1394 -0.0532
18689W        W34583   1.772  12.123   1.338 -0.1872  0.1127 -0.2313
18690W        W34584  10.168  17.958   2.586 -0.3104  0.4467  0.2690
18691W        W34585  10.471   7.362   4.759 -0.0454 -0.1592  0.1030
18692W        W34586   2.238   3.201   1.766 -0.1524 -0.1079 -0.3307
18693W        W34587   1.010  13.476  13.989 -0.0753  0.0191 -0.1247
18694W        W34588   7.634  16.521  13.822 -0.0494 -0.0827 -0.1065
18695W        W34589   5.277   4.125   3.001  0.0541  0.2900  0.0674
18696W        W34590   9.575   5.533   4.121  0.2352  0.0222 -0.1747
18697W        W34591   1.308  10.871  15.738  0.3406 -0.2397 -0.1072
18698W        W34592   4.860   4.645   4.376 -0.0270 -0.0301  0.2007
18699W        W34593   6.838  16.375  13.365 -0.1993 -0.3537  0.0110
18700W        W34594   9.139  11.615   0.626  0.1751  0.0938 -0.1404
18701W        W34595   7.346   7.339  15.696  0.0360 -0.0526 -0.1685
18702W        W34596   7.791   6.005   2.566  0.0797 -0.5597  0.0367
18703W        W34597  14.435  10.165  11.919  0.1396  0.1482  0.0299
18704W        W34598  16.669  12.017   0.769  0.0206 -0.0318  0.2519
18705W        W34599  17.120   7.000  12.496  0.0850  0.3669  0.0612
18706W        W34600  13.653   9.623  12.193 -0.0286 -0.0129  0.1582
18707W        W34601  15.968   1.821  14.354  0.3987 -0.0006  0.1730
18708W        W34602  17.149  15.726  11.105 -0.0182 -0.2156 -0.1965
18709W        W34603  12.464  10.071  16.300 -0.4068  0.0649 -0.0120
18710W        W34604   0.761   3.211  11.388  0.0863  0.0146 -0.2552
18711W        W34605   9.370   8.043   2.143 -0.0888 -0.0398  0.1592
18712W        W34606  16.938   0.213   2.442  0.1631 -0.2067  0.2171
18713W        W34607   2.103   1.820   4.716 -0.1643  0.0689  0.1252
18714W        W34608  15.344  16.501  13.779  0.1804 -0.1697  0.3008
18715W        W34609  10.571  14.110   3.156  0.0118  0.1310  0.1168
18716W        W34610  15.705   7.606   4.232 -0.1543 -0.1755  0.0761
18717W        W34611   4.380  18.061   2.192 -0.2996  0.2185 -0.3273
18718W        W34612   0.997   7.242  14.661 -0.0060  0.0598  0.1951
18719W        W34613  13.892  17.273   4.918 -0.0032  0.0309  0.1541
18720W        W34614  15.542   9.048  11.901 -0.1194  0.0445 -0.1731
18721W        W34615  11.189   1.301  14.382 -0.0296  0.0638 -0.1586
18722W        W34616   2.727   9.230  16.213  0.1432 -0.1433 -0.0877
18723W        W34617   1.602   8.704   3.172  0.3045  0.0465  0.1594
18724W        W34618   2.757  13.723   0.477  0.0018 -0.0720 -0.2080
18725W        W34619  14.224   7.164   5.856 -0.0705  0.3802  0.0103
18726W        W34620  12.242  15.672   0.555 -0.2705 -0.1377  0.0233
18727W        W34621  10.404   9.565   1.579  0.0891 -0.1326 -0.3778
18728W        W34622   5.278  13.866  15.775  0.2952  0.4882  0.3629
18729W        W34623  15.579  17.225  15.778 -0.1676 -0.1112 -0.1190
18730W        W34624  13.995   1.266   3.536  0.3173  0.0019 -0.3108
18731W        W34625   1.027  12.067  11.605  0.0060  0.1868  0.0023
18732W        W34626   7.228  12.825  13.076  0.1282  0.2574 -0.2743
18733W        W34627   6.205  15.566   5.278  0.1475  0.2195  0.1675
18734W        W34628  13.945   7.433  13.720  0.2656  0.1183  0.0134
18735W        W34629  16.588  15.325   3.602 -0.0426 -0.4054 -0.3444
18736W        W34630  15.656  13.152  14.429 -0.0480 -0.0480 -0.0286
18737W        W34631   8.778   9.497  15.217  0.0404 -0.0350 -0.5112
18738W        W34632  12.055  17.979   1.844  0.2654  0.1620 -0.0516
18739W        W34633  15.429   5.217  14.869 -0.3581 -0.0346  0.0651
18740W        W34634   6.213   9.395  13.947  0.0872 -0.0029 -0.0213
18741W        W34635  10.633  14.841   0.496 -0.1549 -0.1093  0.4281
18742W        W34636   4.857  10.788   4.926 -0.2861  0.5705 -0.3657
18743W        W34637  10.136   7.095  14.044  0.1086 -0.1683 -0.0586
18744W        W34638  13.042   9.095  12.859 -0.0763 -0.0873 -0.0980
18745W        W34639  14.247   1.614  11.834 -0.3426  0.1772  0.1683
18746W        W34640   8.434  13.647   4.969  0.0358 -0.2210  0.2361
18747W        W34641  13.047  16.692   3.535  0.0048  0.1519  0.3018
18748W        W34642   0.581   1.153   1.432 -0.2196 -0.0459 -0.3082
18749W        W34643  17.301   4.804  11.910  0.4000 -0.1506 -0.0250
18750W        W34644   2.062   8.038  14.320  0.4476  0.3131  0.1181
18751W        W34645  14.540   2.588   3.084 -0.2835  0.2046 -0.0952
18752W        W34646   3.524   8.117  13.345  0.2892  0.3285 -0.0284
18753W        W34647  16.793   1.984  15.372 -0.1404  0.0779  0.1393
18754W        W34648  14.867   9.177  12.983 -0.0838  0.2558 -0.0025
18755W        W34649  15.628  11.703   3.423 -0.0563 -0.1879  0.1331
18756W        W34650   6.772   5.281  11.248 -0.0659  0.1067  0.1324
18757W        W34651   7.293  15.356   0.004  0.2432 -0.0620 -0.2306
18758W        W34652  17.863  11.253   3.530 -0.1291  0.1571  0.0965
18759W        W34653  11.801  14.677  15.980 -0.0395 -0.3837  0.4557
18760W        W34654   6.594   7.503  15.213 -0.0125 -0.0244  0.0055
18761W        W34655  16.454   5.209   2.682  0.1978 -0.0508 -0.0915
18762W        W34656   4.120   1.986   1.657 -0.0834  0.0089 -0.4027
18763W        W34657  11.716  11.437   4.174 -0.2002 -0.2864  0.1322
18764W        W34658  11.352   4.930  15.574  0.1904 -0.2937 -0.1057
18765W        W34659  17.093  18.007  12.425 -0.1655  0.1285 -0.0057
18766W        W34660  15.160  10.141  15.120 -0.1220  0.1028  0.1029
18767W        W34661   4.171  12.642   1.696  0.0040 -0.0208  0.0720
18768W        W34662   3.079  11.193  12.356 -0.3267 -0.2733 -0.0565
18769W        W34663   2.825   5.725  10.912 -0.0464 -0.2569 -0.2280
18770W        W34664   7.886   5.265  14.251 -0.2684  0.2485 -0.1076
18771W        W34665  14.781  16.116  11.563 -0.0186  0.0589  0.0072
18772W        W34666  17.182   7.336  14.561 -0.1892 -0.0150 -0.0274
18773W        W34667  11.780  15.720  12.632 -0.2535  0.0578 -0.1002
18774W        W34668   0.273   9.720   0.872  0.1325  0.0030  0.0044
18775W        W34669   8.483   0.382   2.987  0.1052 -0.0191  0.0345
18776W        W34670  11.693  12.128   2.673 -0.5901  0.0470  0.0164
18777W        W34671   2.954  11.561  14.044 -0.0978  0.0454  0.4127
18778W        W34672   2.323  17.463  15.021  0.0053 -0.1373  0.0876
18779W        W34673   7.648   9.149  11.377 -0.1684 -0.1457 -0.1238
18780W        W34674  15.146  10.026  13.240 -0.0239  0.0908 -0.2402
18781W        W34675  13.369   8.303  15.728 -0.0089 -0.2078  0.0118
18782W        W34676  17.294   7.043   1.217 -0.1216  0.1357 -0.0890
18783W        W34677   0.393  18.219  12.002 -0.0329 -0.0995  0.1820
18784W        W34678  15.942   3.250   4.579  0.2099 -0.0426 -0.0254
18785W        W34679  15.540   8.654   3.175 -0.0871  0.1461 -0.3488
18786W        W34680  16.360  10.186   4.741  0.2191  0.3329 -0.0888
18787W        W34681  11.431   4.276  10.152 -0.1497 -0.2422 -0.1018
18788W        W34682  14.754  11.835   0.547 -0.1226  0.2252 -0.0490
18789W        W34683   8.970   4.287  14.717 -0.1401  0.1583 -0.1419
18790W        W34684   0.682   4.695   0.582  0.0656  0.1088 -0.1787
18791W        W34685   3.006  14.383  12.981  0.5206 -0.0434  0.1875
18792W        W34686   3.233   9.667   1.718 -0.0466 -0.0313  0.0668
18793W        W34687   2.402  17.189   1.968 -0.0766 -0.0128 -0.1739
18794W        W34688   8.833   7.297  11.278 -0.1001 -0.2309 -0.1798
18795W        W34689   4.307   4.565  12.107 -0.4133  0.3918 -0.0517
18796W        W34690   7.419   6.461  10.739 -0.0607  0.1494 -0.2852
18797W        W34691   3.208   5.522   1.524  0.1322 -0.3383  0.1289
18798W        W34692   0.634   7.874   3.435 -0.0951 -0.1632 -0.1430
18799W        W34693  15.533   9.157   2.484  0.4050 -0.1482 -0.0841
18800W        W34694  13.351   2.695  11.933  0.1452  0.1586 -0.2249
18801W        W34695   8.772   0.067   5.126  0.1889  0.4222  0.2765
18802W        W34696  14.892   5.626   4.904  0.1345 -0.0091 -0.0221
18803W        W34697   9.137  15.808   0.495  0.0092  0.4610 -0.3196
18804W        W34698  10.265  15.135  16.107  0.0896 -0.2794 -0.1784
18805W        W34699   0.112   1.056   4.285 -0.3088  0.0049  0.3358
18806W        W34700   9.236  17.975  13.343  0.0237 -0.3647  0.1944
18807W        W34701   8.144   4.297   5.055  0.0514 -0.0120  0.2213
18808W        W34702  16.962   3.644   5.318  0.0315 -0.1449  0.3834
18809W        W34703   7.891   6.547   4.102  0.0770  0.1091 -0.0895
18810W        W34704   1.376   2.288   2.955 -0.0620  0.1627  0.4340
18811W        W34705   6.754   1.552  14.993 -0.0203  0.2646  0.1428
18812W        W34706  15.888  10.822   2.577 -0.0519 -0.1897  0.2656
18813W        W34707  11.100  11.771   5.374  0.0027  0.1012 -0.1976
18814W        W34708  13.603  14.910  13.683 -0.0180  0.0587 -0.0158
18815W        W34709  11.247   9.239  14.516 -0.1958 -0.1980  0.2969
18816W        W34710   6.228  18.132  15.441 -0.0951  0.0672 -0.0557
18817W        W34711   3.128   5.910  10.076  0.1460 -0.0002  0.1818
18818W        W34712  18.012  13.607  14.972 -0.0214 -0.1875 -0.0115
18819W        W34713  14.650  13.976  12.012 -0.2912 -0.0743  0.0032
18820W        W34714   3.539   8.035   5.512 -0.1063 -0.2322 -0.0851
18821W        W34715  14.303   7.678   3.520 -0.2062  0.1633  0.0270
18822W        W34716   6.763   4.567  13.761  0.0775  0.0789  0.2871
18823W        W34717   4.136   7.844  16.318 -0.0643 -0.0903 -0.2268
18824W        W34718   6.748   5.555   4.609 -0.3307  0.0310 -0.1660
18825W        W34719  15.913  14.092  14.383 -0.1689 -0.2235 -0.3282
18826W        W34720  16.926   1.479   1.315  0.0404  0.1214  0.2672
18827W        W34721   0.462   5.535  12.460  0.0458 -0.0274  0.1619
18828W        W34722   0.303   2.459  12.819 -0.1560 -0.0323 -0.0188
18829W        W34723  14.013   4.342  12.384 -0.0592 -0.0354 -0.4139
18830W        W34724   2.567   3.690  14.856 -0.1776 -0.2788  0.0814
18831W        W34725  11.651  11.890   3.858  0.0330 -0.1998 -0.0909
18832W        W34726   4.998   7.140  15.591 -0.0119 -0.4667  0.2611
18833W        W34727   1.463   6.795   3.668  0.1416 -0.1405 -0.0188
18834W        W34728  16.049   3.291   5.151  0.0005 -0.2064 -0.2364
18835W        W34729   4.672   9.939  14.077 -0.1680 -0.1459  0.1281
18836W        W34730  13.363  11.082   3.110 -0.1877 -0.0070 -0.1158
18837W        W34731  13.772  12.291  12.412 -0.0130 -0.3602  0.1528
18838W        W34732  14.411  14.637   0.022  0.4117  0.2050  0.1197
18839W        W34733  12.233   8.768  10.626  0.1012  0.1796  0.0325
18840W        W34734   7.071  15.802   0.029 -0.0895 -0.1314  0.0827
18841W        W34735  15.180   4.209   2.581  0.0892  0.2905 -0.2841
18842W        W34736   1.082  13.828   0.137 -0.0506  0.1474 -0.0190
18843W        W34737   3.033  11.060   2.134 -0.2856  0.0758 -0.5713
18844W        W34738  14.431  11.958  16.052  0.4135  0.0986  0.3100
18845W        W34739  14.721   0.411  14.853 -0.0776 -0.0147  0.1007
18846W        W34740   4.414   0.141   0.769  0.1003 -0.1708 -0.0318
18847W        W34741  11.470   4.586   0.977 -0.2112 -0.1112  0.1532
18848W        W34742  13.003   0.435   0.556  0.1952 -0.1063 -0.2103
18849W        W34743   5.108   8.912   3.906  0.1169 -0.0831 -0.1392
18850W        W34744  13.828   4.280   0.770 -0.0856  0.1408  0.3017
18851W        W34745  17.835  14.585  12.500  0.1088 -0.2278 -0.3167
18852W        W34746  17.509  18.124  15.587 -0.2428  0.1142  0.0875
18853W        W34747  14.561  12.565  11.958 -0.0282 -0.0526 -0.2334
18854W        W34748   3.567   4.273   2.789  0.0456  0.0360 -0.3522
18855W        W34749  14.461  12.996  14.748 -0.1825  0.0723  0.3217
18856W        W34750   7.072  15.964  13.498 -0.0533  0.2185  0.2048
18857W        W34751   9.764  12.984   0.443 -0.1592 -0.1345  0.0071
18858W        W34752   7.699  12.146  12.452  0.0790  0.1189  0.0894
18859W        W34753   6.901   6.533   1.142 -0.1602 -0.1145  0.2135
18860W        W34754   0.834   9.509  14.632 -0.1797 -0.0425 -0.3299
18861W        W34755   4.969  14.563   2.142 -0.0053 -0.2042 -0.1155
18862W        W34756   2.266   3.337   0.782 -0.1522 -0.0902 -0.0551
18863W        W34757   5.476   8.530   5.006 -0.1040 -0.2174  0.0545
18864W        W34758   5.755   4.139   4.641  0.2333  0.0253  0.1554
18865W        W34759  15.317  14.466  12.380 -0.1943 -0.2439 -0.3436
18866W        W34760  17.125   6.672   5.029  0.1895 -0.0696  0.1458
18867W        W34761   2.420   7.880  12.820  0.1467  0.0326 -0.0008
18868W        W34762   1.477   5.681   3.061  0.0686  0.0175  0.1061
18869W        W34763   4.931  12.573  13.353  0.0230  0.1281  0.1599
18870W        W34764   2.637   1.935  14.200  0.0292  0.0957 -0.0185
18871W        W34765   4.833  11.703  16.302 -0.0129 -0.1555 -0.0032
18872W        W34766  10.082   4.364  13.207 -0.3565  0.3519  0.0438
18873W        W34767   1.810  17.584  12.029  0.0523 -0.0077 -0.0086
18874W        W34768  17.033   0.582   0.650 -0.2498  0.0466  0.1507
18875W        W34769   8.982   9.630   1.783  0.2199 -0.1386 -0.1432
18876W        W34770   2.176  10.493   4.933 -0.3965  0.2049 -0.1990
18877W        W34771   9.016  11.233   3.960  0.1050  0.0198  0.0489
18878W        W34772  14.798   4.125  13.097  0.0919  0.1480  0.2830
18879W        W34773  14.378   9.937   1.254  0.3280  0.2056  0.2094
18880W        W34774  17.300   2.501   1.396  0.2008 -0.0892 -0.0113
18881W        W34775   7.261   2.505   3.244  0.0008 -0.2584  0.1900
18882W        W34776   6.865  11.931  14.304 -0.1374 -0.4075 -0.1413
18883W        W34777   4.416   2.948   3.514  0.0171 -0.1993 -0.0334
18884W        W34778   4.792   0.924  11.746  0.3776 -0.0550 -0.1246
18885W        W34779  10.877  17.462  11.749  0.1011  0.3615  0.4646
18886W        W34780   6.413   2.320   0.109 -0.3015  0.0331  0.1858
18887W        W34781   4.381   2.894  15.203 -0.0100  0.3881  0.1889
18888W        W34782  16.333   9.098   1.463  0.0453 -0.1106 -0.0197
18889W        W34783   1.296   4.302   3.131 -0.1576 -0.0261 -0.1492
18890W        W34784   5.535   9.778  15.930 -0.0045 -0.0287 -0.0531
18891W        W34785  10.766  12.137   2.991 -0.1092 -0.1297 -0.2397
18892W        W34786   8.980   0.525   4.922 -0.2594 -0.4723  0.0009
18893W        W34787  14.349  12.313   0.071 -0.0143  0.0206 -0.0577
18894W        W34788   4.250  11.136  13.180  0.2164  0.1651 -0.1087
18895W        W34789   2.272  10.227  15.821  0.1597  0.1060 -0.1076
18896W        W34790   0.464  11.007   3.811 -0.1899 -0.2981  0.1265
18897W        W34791   5.618  12.418  16.382 -0.3702  0.0340 -0.3328
18898W        W34792  16.475   3.166  14.528 -0.0118  0.0403 -0.1157
18899W        W34793  10.591   1.535  12.753  0.1969  0.1465  0.1256
18900W        W34794   0.959  15.212   0.914  0.1442 -0.0060 -0.1767
18901W        W34795  10.342  13.381  12.485 -0.0155  0.0467 -0.0685
18902W        W34796   4.916  17.384  13.552  0.2704 -0.1479 -0.0120
18903W        W34797  13.400   1.573   2.635 -0.1758  0.1493  0.2273
18904W        W34798   0.102  13.094  16.413 -0.2163 -0.0150  0.1210
18905W        W34799   0.457  16.960   0.405 -0.0236 -0.3923 -0.1981
18906W        W34800  17.067   5.770  13.877  0.1497 -0.0283  0.1788
18907W        W34801  12.609  16.344  11.925  0.2598 -0.0421 -0.2640
18908W        W34802   9.665  13.355   0.878 -0.0085 -0.0121 -0.0575
18909W        W34803   3.558  17.971   2.754 -0.0765 -0.2207  0.0740
18910W        W34804  10.740   9.069  11.314  0.2433  0.2542 -0.1786
18911W        W34805   7.422   0.289   1.693  0.2948  0.1226 -0.1554
18912W        W34806   3.420   3.900   1.044  0.1032  0.1886 -0.1258
18913W        W34807  10.956  14.825   2.681  0.1199 -0.3810  0.0294
18914W        W34808  12.299  12.655  15.715  0.1735  0.0994 -0.1525
18915W        W34809  15.769   1.722  13.875  0.0288 -0.3953 -0.2981
18916W        W34810  11.519   5.055  15.130 -0.0026  0.1374 -0.0246
18917W        W34811   0.283  10.887   6.448 -0.0762  0.0324  0.2134
18918W        W34812  13.775   4.653  15.674 -0.1534  0.1843  0.1400
18919W        W34813   9.158  15.103  13.590  0.0244 -0.0992 -0.0781
18920W        W34814   3.961  11.666  14.918 -0.1504  0.1206 -0.1005
18921W        W34815   7.812   0.790  15.122 -0.0093 -0.0637 -0.2450
18922W        W34816  13.972  14.917   4.209  0.0271 -0.0366  0.1897
18923W        W34817   6.096  14.743   0.412  0.1176 -0.0683  0.0010
18924W        W34818   9.726  10.150   5.982  0.1797 -0.2180 -0.1568
18925W        W34819  15.642   2.154   1.206  0.1286  0.1120 -0.0388
18926W        W34820  13.748  17.717   2.072 -0.0853 -0.1319  0.0498
18927W        W34821   1.442   1.692   3.851 -0.1022 -0.2649 -0.2272
18928W        W34822   0.734  17.615  14.443 -0.1566  0.2055  0.1109
18929W        W34823   3.703  11.360  12.797  0.1100 -0.0159 -0.1674
18930W        W34824   2.968  13.463  14.074  0.4034 -0.1595 -0.3970
18931W        W34825   3.105   9.019   1.088  0.1438 -0.2593  0.1776
18932W        W34826  15.174   3.205   4.585 -0.0053 -0.0822 -0.0457
18933W        W34827   0.110   4.827   2.820  0.0066 -0.1120 -0.0699
18934W        W34828  12.143  12.929  14.561  0.3058 -0.2926  0.0239
18935W        W34829   0.098  11.358   3.633  0.3782 -0.2570  0.0787
18936W        W34830   1.617   7.976   0.623 -0.1425 -0.2814  0.0465
18937W        W34831  10.903   7.440   4.505 -0.1543 -0.1759  0.0423
18938W        W34832   8.761  13.998  14.997 -0.2897  0.1086 -0.0538
18939W        W34833   2.279  10.330   2.653  0.1120 -0.0321 -0.1837
18940W        W34834  15.733   1.390  12.715  0.2974  0.2111 -0.1303
18941W        W34835  15.502  12.943  16.203 -0.1127  0.1404 -0.0232
18942W        W34836   5.235   6.420   4.295 -0.1828  0.1087 -0.0379
18943W        W34837  14.738  10.036   0.311 -0.0839 -0.0829  0.0402
18944W        W34838  15.104  14.036   1.189  0.0518 -0.0319  0.2783
18945W        W34839  17.021   5.509   3.511 -0.1664 -0.2927  0.1297
18946W        W34840   1.520  14.539   6.275 -0.1026  0.2306  0.1555
18947W        W34841  13.966   2.815  12.138 -0.2641  0.4147  0.0235
18948W        W34842  14.613  17.192  12.370 -0.2744 -0.0141  0.0702
18949W        W34843  10.681   5.785  16.256  0.0087  0.1660 -0.3462
18950W        W34844   1.697  12.899  14.925 -0.0740 -0.2217 -0.3816
18951W        W34845  15.315  16.032  14.550 -0.1697  0.2172 -0.1650
18952W        W34846  16.514  16.961  12.665  0.0486  0.2271  0.3339
18953W        W34847   7.562   5.597   0.847 -0.2567 -0.0514  0.0062
18954W        W34848  12.645   9.170  14.241 -0.0706  0.4054  0.3970
18955W        W34849   9.400  15.605  13.600  0.1143 -0.0754 -0.1078
18956W        W34850   5.575   9.640  12.084  0.0734 -0.1173  0.0099
18957W        W34851  16.345  16.631  12.306 -0.0779 -0.1311 -0.2494
18958W        W34852   0.009   4.664   3.865 -0.1424 -0.0362 -0.2728
18959W        W34853   5.557   2.566   1.927  0.0018  0.0993 -0.1504
18960W        W34854  13.431   4.811  12.077 -0.0439  0.3797 -0.2139
18961W        W34855  14.225   7.526  11.906  0.2419  0.4083 -0.0754
18962W        W34856  11.866  13.009   5.242 -0.4358  0.1572 -0.0273
18963W        W34857   4.026  16.593  15.288 -0.2035 -0.2519 -0.2419
18964W        W34858   4.473  17.389  13.819  0.3287  0.1929 -0.0305
18965W        W34859  16.895   2.819   4.821 -0.6059 -0.2161  0.0386
18966W        W34860   2.483   0.676  11.395  0.1877 -0.1900 -0.1274
18967W        W34861  15.993   7.693   0.164 -0.2670  0.1897 -0.0205
18968W        W34862  11.250  12.313   1.244  0.3199 -0.2772 -0.0789
18969W        W34863   6.887  13.347   1.457 -0.0684  0.1324 -0.0198
18970W        W34864  17.938   6.696  13.749  0.3568  0.1712 -0.1738
18971W        W34865  10.090  18.085  13.458  0.1882 -0.2259 -0.1515
18972W        W34866   5.800  13.988   3.847  0.2300 -0.0894  0.0366
18973W        W34867   9.220   3.570  13.366 -0.3120  0.1288 -0.1070
18974W        W34868  10.246   9.166   0.308 -0.1608  0.3238 -0.0067
18975W        W34869   6.497   7.887   4.234  0.0111  0.1128  0.2895
18976W        W34870  17.184  12.701   2.395 -0.0036  0.1136 -0.0851
18977W        W34871  17.844  14.520   3.936  0.3823  0.1154  0.1030
18978W        W34872   3.011   3.643  15.096 -0.0546 -0.0064 -0.1605
18979W        W34873  15.551   8.411   4.697 -0.2172 -0.0981 -0.4015
18980W        W34874   7.333   4.334  15.962  0.1202 -0.2499  0.1028
18981W        W34875  13.100  17.751   0.275  0.0469 -0.2448  0.0688
18982W        W34876   7.484  11.045   4.431 -0.1171 -0.2655  0.2838
18983W        W34877  12.372   5.880  15.116  0.0286 -0.0034  0.1940
18984W        W34878   2.343  10.849   0.625 -0.3695  0.2644  0.3671
18985W        W34879  14.232   6.258  16.104  0.2358 -0.2053  0.0108
18986W        W34880   8.952   9.150  11.876  0.0706 -0.1757  0.0145
18987W        W34881  11.501   0.488  13.109 -0.0734  0.0296 -0.2747
18988W        W34882  18.117   2.490  15.462  0.0674 -0.0066 -0.1426
18989W        W34883   5.357   4.124  13.903 -0.2790 -0.0034 -0.2023
18990W        W34884   9.695   3.058   4.523  0.1737 -0.2440 -0.1578
18991W        W34885   9.582   5.687   1.711 -0.2326  0.2759 -0.0918
18992W        W34886  11.657   2.952  11.626 -0.3296  0.1329 -0.1147
18993W        W34887  10.447   4.045   1.345 -0.2138  0.0354  0.4255
18994W        W34888   1.834   7.485   0.648 -0.3831  0.0216  0.0709
18995W        W34889  10.397   3.043  11.756 -0.0497 -0.0392  0.1830
18996W        W34890  16.361   0.248  10.907 -0.2508 -0.0439  0.2056
18997W        W34891   9.840  14.259   1.224 -0.0611 -0.0875  0.0033
18998W        W34892   5.658   2.746   0.770  0.0539 -0.3873 -0.0491
18999W        W34893  12.096  16.909   5.502  0.0779  0.0038 -0.0944
19000W        W34894  16.898   2.427  15.632  0.2192  0.0824 -0.0195
19001W        W34895  11.412  17.795   4.386 -0.0929  0.0770  0.0438
19002W        W34896  11.654   8.992  11.160  0.1639 -0.0241  0.0820
19003W        W34897   1.993   4.821  12.514 -0.2082 -0.1714  0.1472
19004W        W34898   1.958   4.861  15.094  0.2024 -0.0231 -0.0402
19005W        W34899   9.915   1.924   5.123  0.1391 -0.0918 -0.0436
19006W        W34900  15.421  16.604  16.057  0.3063  0.0791 -0.1648
19007W        W34901   3.066  10.229  13.457 -0.0390 -0.1905 -0.0694
19008W        W34902   4.860   8.706  13.813 -0.1318 -0.4059  0.0532
19009W        W34903  14.157  17.929   5.244 -0.0001 -0.0221  0.2216
19010W        W34904   2.842  13.664   2.518  0.4361 -0.1892  0.5031
19011W        W34905  15.369   9.447   4.289  0.3138 -0.1986  0.2348
19012W        W34906  17.914  16.063  14.056 -0.2996  0.5699  0.0637
19013W        W34907  16.217  11.948  16.065  0.1592  0.0087  0.0074
19014W        W34908   6.428   3.066  13.385 -0.0130  0.1925  0.1038
19015W        W34909  15.127  10.397   4.634  0.3888 -0.3172 -0.4754
19016W        W34910  17.953   6.332  11.665  0.1494 -0.0092  0.0462
19017W        W34911  14.980   5.762   0.475 -0.0002 -0.0538 -0.1026
19018W        W34912  13.987   1.982  12.277 -0.1704 -0.1655  0.0436
19019W        W34913   4.909   4.156   4.427 -0.0371 -0.1944  0.0279
19020W        W34914  16.110  11.791   2.637 -0.0888  0.0029  0.1296
19021W        W34915  15.398   6.946  12.960  0.0026  0.0200  0.0931
19022W        W34916   2.404  15.367   1.863  0.2278  0.0309  0.0474
19023W        W34917   6.289  11.051  16.156  0.1383 -0.1057 -0.0406
19024W        W34918  11.375  12.353  11.191  0.0684  0.2418 -0.3065
19025W        W34919   7.662   6.149   2.088  0.1870 -0.3606  0.1162
19026W        W34920  13.216   8.586   0.917  0.0903 -0.0305  0.0013
19027W        W34921   1.581  11.117   0.146  0.1004  0.2696  0.1940
19028W        W34922  13.941   3.432   0.904  0.0211  0.0802  0.0998
19029W        W34923  11.339   3.638  15.522 -0.1827 -0.0679  0.1043
19030W        W34924   5.099   9.424   1.638  0.2291  0.2195 -0.0490
19031W        W34925  12.136  13.330   2.629 -0.0461  0.0787  0.3529
19032W        W34926   7.517   4.125  13.323 -0.1466  0.0080  0.0283
19033W        W34927   5.009  16.942  15.483  0.1433 -0.2002  0.3079
19034W        W34928  11.202   6.108  14.567  0.3342 -0.2119  0.0244
19035W        W34929  13.868  10.097   0.097  0.1410  0.0293  0.1544
19036W        W34930   8.347  13.446   5.551  0.0755 -0.1812 -0.4710
19037W        W34931   1.720  17.055  12.534  0.1177 -0.0202 -0.1253
19038W        W34932   1.158   9.797   0.319  0.1196 -0.0710  0.0276
19039W        W34933   3.760   9.332  15.062 -0.3919  0.0235  0.0901
19040W        W34934   4.206  11.331   2.734  0.0519  0.0806  0.0559
19041W        W34935  18.141  17.029   2.468 -0.0885  0.0826 -0.4675
19042W        W34936   7.561   9.888   5.087  0.1000  0.0039 -0.1002
19043W        W34937  17.928  10.554   2.816 -0.1275  0.0445 -0.0013
19044W        W34938   5.364  13.267  15.447  0.1235 -0.0631 -0.3883
19045W        W34939   6.197   3.617   2.278  0.1314  0.1491  0.1567
19046W        W34940   3.084   4.356  11.347 -0.1671 -0.0549  0.2115
19047W        W34941  10.964  10.727  13.188 -0.0563  0.2559  0.2751
19048W        W34942   3.798   2.221  12.347  0.0246  0.0531 -0.0511
19049W        W34943   4.108   8.606   0.943 -0.2364 -0.0959 -0.2731
19050W        W34944  11.206  16.958   4.784 -0.1408  0.1975  0.2526
19051W        W34945   9.147   4.884   5.935 -0.0219  0.1277 -0.1043
19052W        W34946  11.501   0.562  15.666 -0.1813 -0.1410 -0.0224
19053W        W34947   6.529   7.972  12.868  0.0622 -0.2998  0.0582
19054W        W34948   2.958   5.651  13.643  0.3854  0.1961 -0.0818
19055W        W34949   6.090   8.911  14.154 -0.2516  0.0903 -0.0220
19056W        W34950  11.121   1.585   3.886 -0.1931 -0.0985  0.3814
19057W        W34951  15.415   4.438   1.501  0.0123  0.0244 -0.1340
19058W        W34952   5.275   8.639  15.143 -0.1379  0.1952  0.0720
19059W        W34953  10.322   6.648  13.798 -0.1259 -0.0486  0.0658
19060W        W34954   8.696   2.363   4.282 -0.1288  0.0770 -0.3167
19061W        W34955   2.614   2.751  15.386 -0.3509  0.0529 -0.0482
19062W        W34956   7.420   6.541  16.461  0.0979  0.3671 -0.0858
19063W        W34957   8.095  17.991   0.858 -0.0897  0.1795 -0.1895
19064W        W34958   5.906  10.425  13.710  0.0160 -0.4781 -0.3093
19065W        W34959  17.361  14.966   0.242 -0.1758 -0.1057  0.0588
19066W        W34960   9.675  10.832   4.806  0.1715 -0.1607 -0.1836
19067W        W34961   8.848   9.508   1.204 -0.2263  0.0841  0.0223
19068W        W34962  14.013  11.960  16.444 -0.1043 -0.3890 -0.1374
19069W        W34963  16.572   9.837  13.368 -0.3471  0.1719 -0.4014
19070W        W34964   3.994   7.435   3.099 -0.0584 -0.0168  0.3974
19071W        W34965  10.364  11.659  13.073  0.0676 -0.1164 -0.1944
19072W        W34966   4.248  14.847  15.621 -0.0287 -0.0597  0.0833
19073W        W34967   2.838   1.366  14.002  0.0642 -0.1676  0.0959
19074W        W34968   9.095  10.094   0.465 -0.2609  0.3281  0.1295
19075W        W34969   4.174   2.863  14.279 -0.0621 -0.0757  0.0656
19076W        W34970   6.041  14.635   5.194  0.2014 -0.2971  0.1773
19077W        W34971  16.048  10.435  16.306  0.3745  0.0239  0.3432
19078W        W34972  10.028  11.643  11.832  0.0163  0.0471 -0.4938
19079W        W34973   9.515   5.611  13.584  0.1311  0.2320 -0.1943
19080W        W34974  12.922  16.224  10.640  0.1709  0.0142  0.0443
19081W        W34975   6.880   1.514   4.692  0.1461 -0.1431 -0.0043
19082W        W34976   9.862   4.443  14.266 -0.3479  0.2187  0.2623
19083W        W34977   6.055   9.613   3.325  0.1620  0.1354  0.3734
19084W        W34978  15.661   5.330  13.400 -0.0994 -0.0239 -0.0839
19085W        W34979   9.501  11.451  13.056  0.1164 -0.0070  0.0049
19086W        W34980   2.088   8.923   2.873 -0.0160 -0.0614 -0.2422
19087W        W34981  16.087   8.435   3.564  0.0040 -0.1726 -0.2788
19088W        W34982   1.314  17.442   5.134 -0.0322  0.0704 -0.2768
19089W        W34983  17.785   6.719  16.304 -0.2134  0.0875 -0.1309
19090W        W34984   1.390  18.113  14.919 -0.1203  0.1505  0.0938
19091W        W34985   2.153  15.957   2.147  0.2721 -0.0721  0.2889
19092W        W34986   8.535   5.740  14.820 -0.1225 -0.1132 -0.0206
19093W        W34987   6.927   4.214   5.120 -0.0758 -0.1906 -0.2360
19094W        W34988  12.907   0.207  13.333  0.1830  0.2404 -0.3152
19095W        W34989   2.131   2.003  13.823 -0.1875  0.0348 -0.1702
19096W        W34990   6.444  16.604  14.370 -0.2009 -0.0796 -0.2279
19097W        W34991   4.525   6.149   4.721 -0.1394  0.2388 -0.3154
19098W        W34992   8.660  10.421  15.262 -0.3629 -0.0053  0.2609
19099W        W34993  13.576  11.302   4.470  0.3551 -0.2005 -0.1212
19100W        W34994  16.410  17.701  16.346 -0.1597 -0.0663 -0.1713
19101W        W34995  13.200   3.502   3.376  0.3080 -0.0190 -0.1322
19102W        W34996   2.431   5.785   4.969  0.0563 -0.1884  0.0108
19103W        W34997   5.205   4.398   2.613 -0.3552 -0.1875  0.1700
19104W        W34998  15.553   8.608   1.342 -0.1111  0.1902  0.0685
19105W        W34999  12.623  13.057  12.548  0.0517  0.0859 -0.3156
19106W        W35000   9.681   7.626  10.985  0.2206  0.0806 -0.2917
19107W        W35001  12.818   2.536   1.832 -0.1466 -0.3837 -0.0697
19108W        W35002   5.310  17.470   1.278  0.0611 -0.0420  0.1699
19109W        W35003   5.763  10.359   3.287 -0.1441 -0.1231 -0.0055
19110W        W35004  10.784  12.582   3.817 -0.0486 -0.0619  0.0179
19111W        W35005   8.282  16.759   0.951  0.1366 -0.3496 -0.1397
19112W        W35006  14.617   3.513  10.938 -0.0728  0.2368 -0.2210
19113W        W35007  17.802   9.991  13.509 -0.1268 -0.3215  0.3079
19114W        W35008   4.434  12.443  12.023  0.2101  0.1912 -0.2373
19115W        W35009  13.240  17.578  12.885  0.1906 -0.2285  0.0291
19116W        W35010  17.632   7.025   6.322  0.0004 -0.2305  0.4631
19117W        W35011   2.524  11.897   0.453  0.0601  0.1674 -0.4720
19118W        W35012   1.654  14.718  11.832 -0.2213  0.2492 -0.0421
19119W        W35013   6.641  10.453   4.560 -0.0150 -0.2940 -0.1731
19120W        W35014   6.402   4.934   0.589 -0.0726 -0.0391  0.0216
19121W        W35015  14.993  17.991  12.645 -0.3097  0.1346  0.0113
19122W        W35016  16.959  15.200  15.902  0.4223  0.1582 -0.1386
19123W        W35017  10.290   8.295  15.730 -0.1008 -0.2284  0.2525
19124W        W35018  12.578  14.921  14.151  0.1595  0.0286  0.0631
19125W        W35019  16.346   8.672   5.690  0.0958  0.1148 -0.0918
19126W        W35020   0.105  14.098   4.763  0.1907  0.0375  0.0279
19127W        W35021  12.388  14.227   6.399 -0.0083 -0.4017 -0.1326
19128W        W35022  17.594  16.734  11.490  0.0518  0.0535 -0.3436
19129W        W35023   5.538  16.673  13.245 -0.0725 -0.0181 -0.1023
19130W        W35024  10.819   0.272  11.914 -0.2573  0.2733  0.1016
19131W        W35025   2.409  14.183   0.960  0.0798  0.0271  0.1225
19132W        W35026  14.070   5.153   4.667 -0.0325  0.1246 -0.0338
19133W        W35027   5.447   4.225   5.159  0.2915 -0.2164  0.1018
19134W        W35028   5.234   2.962   1.168 -0.0445 -0.1350 -0.1435
19135W        W35029  17.973  11.417  15.420 -0.1828  0.0705  0.0505
19136W        W35030   3.939  13.512  14.827  0.1204 -0.1373 -0.3111
19137W        W35031  11.668  17.913  11.419 -0.2512 -0.1009 -0.2031
19138W        W35032  12.808  13.471   4.484 -0.2775  0.0858  0.1303
19139W        W35033   0.153  15.378  12.888  0.0351 -0.1926 -0.5938
19140W        W35034  11.112  17.107   2.160 -0.2932  0.0824  0.1466
19141W        W35035  12.982  16.788  13.993  0.2609 -0.1706 -0.2535
19142W        W35036   1.654   7.109  12.760  0.2677  0.0246 -0.1840
19143W        W35037   6.072   3.119   4.013  0.0862  0.2185  0.0792
19144W        W35038   8.658   2.815  12.002  0.0305  0.1948 -0.0933
19145W        W35039   2.175   9.652   1.457 -0.1471  0.3332  0.1931
19146W        W35040  14.276  13.519   4.186  0.0988  0.1536 -0.0063
19147W        W35041  17.862  13.129  14.917  0.2571 -0.0846  0.0398
19148W        W35042  15.168  15.045   1.808 -0.2716 -0.4841 -0.0709
19149W        W35043   2.549  10.449  12.707 -0.0118  0.2210 -0.4199
19150W        W35044   8.470   2.127   0.060 -0.0471  0.2547  0.2075
19151W        W35045  12.286  17.732   6.144 -0.3479 -0.0952 -0.0053
19152W        W35046   2.830   6.914  15.645  0.1876  0.0279 -0.0707
19153W        W35047  12.174   5.923  11.948 -0.1274  0.0930  0.1833
19154W        W35048   1.052   3.887  12.632 -0.0351  0.0196 -0.2547
19155W        W35049  11.341   6.118  14.074 -0.2048  0.1530 -0.1424
19156W        W35050   5.957  16.412  13.158 -0.0910 -0.0528 -0.2138
19157W        W35051  10.504   5.570  13.069 -0.2385  0.0822 -0.4320
19158W        W35052  10.344   4.351   3.088 -0.3290  0.3835  0.4144
19159W        W35053   0.308  10.612  13.742  0.1309 -0.1073 -0.5864
19160W        W35054   4.304   7.748  12.369 -0.2741 -0.0753  0.0014
19161W        W35055   0.975   8.604  16.162 -0.0030  0.1028 -0.0097
19162W        W35056   7.999   6.851   2.707 -0.0993  0.2423  0.1769
19163W        W35057   8.070  14.823  11.321  0.2015 -0.2859 -0.0141
19164W        W35058   6.841   6.983   5.673  0.2446  0.4341  0.1338
19165W        W35059  11.671   4.470   2.976 -0.3167 -0.2366 -0.2154
19166W        W35060  12.754  11.476  10.511  0.2205  0.0853 -0.0581
19167W        W35061   7.233   0.069  12.465  0.0972  0.1113 -0.1096
19168W        W35062   8.265  15.117   2.386  0.0561  0.0146 -0.1194
19169W        W35063  16.923  17.864   1.170  0.1152 -0.1918  0.2581
19170W        W35064  14.025  16.545  14.853 -0.0463 -0.1797  0.0093
19171W        W35065  17.603   7.084  13.816 -0.1210  0.1759 -0.2291
19172W        W35066   2.205  15.945   5.327 -0.0798 -0.2566 -0.0058
19173W        W35067   6.861  10.638   3.820  0.1189 -0.3384 -0.2659
19174W        W35068  16.400   0.190   1.775  0.2741  0.2230  0.0669
19175W        W35069  13.821   1.351   5.078  0.1919  0.0147  0.1329
19176W        W35070   7.671  10.717  14.180 -0.0111 -0.2136 -0.2323
19177W        W35071   2.602   6.824   2.591  0.3024  0.0312 -0.0725
19178W        W35072   4.660  11.860  12.802 -0.1374 -0.1040 -0.0230
19179W        W35073   8.296   6.825  15.863  0.2106 -0.1681 -0.1582
19180W        W35074   9.454   6.421   4.797  0.1025 -0.0445 -0.2419
19181W        W35075  16.518   3.973   3.426 -0.3409  0.0630  0.0606
19182W        W35076  17.190  15.540  15.544 -0.0556 -0.1160 -0.0756
19183W        W35077  13.473  13.021  13.663 -0.2172  0.1742  0.0833
19184W        W35078   3.647   6.851   1.492 -0.0413 -0.2872 -0.3231
19185W        W35079  15.732  12.112   5.440  0.0838  0.0846  0.3384
19186W        W35080   4.840  14.029  11.410  0.1645 -0.1247 -0.4139
19187W        W35081   1.152  10.852  14.241  0.1063  0.0783  0.0809
19188W        W35082  17.522   4.486  12.875  0.0280 -0.0244  0.0449
19189W        W35083   8.254   6.764   4.586 -0.2079  0.3254 -0.3970
19190W        W35084   6.657   7.687   3.279  0.1106  0.1579  0.1840
19191W        W35085  11.095  16.937   4.046  0.0727 -0.0323  0.1685
19192W        W35086  17.565   7.251  12.430  0.0135  0.0322 -0.3356
19193W        W35087  12.676   8.159  14.371  0.1744  0.1378  0.2453
19194W        W35088   4.927   6.645   4.606 -0.1140 -0.0321 -0.1220
19195W        W35089   5.406  10.195   4.825 -0.1338  0.1932 -0.2512
19196W        W35090  15.465  13.796   5.447 -0.1056 -0.4164 -0.2467
19197W        W35091   1.305  14.634  12.828 -0.1161  0.0234 -0.0389
19198W        W35092   3.790  15.688  15.928  0.0540 -0.0495 -0.2924
19199W        W35093  15.846   8.650   0.900 -0.1292 -0.3813  0.0083
19200W        W35094  13.276  16.502   5.957 -0.0349 -0.0495 -0.0303
19201W        W35095  12.810   5.253   4.449 -0.2437  0.0204  0.0090
19202W        W35096  15.454  17.459  14.541  0.1450  0.2375 -0.0154
19203W        W35097  17.475  10.002   3.232 -0.2618  0.1680 -0.0641
19204W        W35098   8.017   5.431   2.595 -0.1717 -0.0230 -0.0139
19205W        W35099  12.299  16.584  12.754 -0.2165  0.0360  0.2231
19206W        W35100   0.549  10.762   1.821 -0.2949 -0.0374  0.1053
19207W        W35101   5.970   7.255  14.736 -0.2582 -0.0487  0.1767
19208W        W35102  14.574  13.333  14.374  0.1694  0.0563 -0.2911
19209W        W35103  14.473  16.838  12.727 -0.0491 -0.0951 -0.3442
19210W        W35104   2.577  15.270  15.015  0.1670 -0.1418 -0.2229
19211W        W35105  18.215   3.983   1.779 -0.0521 -0.0642  0.1715
19212W        W35106  13.407  14.517   4.193 -0.0267  0.0686 -0.3145
19213W        W35107   6.641  13.261   2.958  0.0261 -0.0266 -0.1690
19214W        W35108  15.042   8.870  14.629  0.1381  0.0530  0.1697
19215W        W35109  12.155   0.682   0.917 -0.4498 -0.1842  0.2031
19216W        W35110   8.328  12.331   2.484  0.0218  0.3008 -0.1804
19217W        W35111  15.255   9.794  13.691 -0.3249 -0.0716  0.2054
19218W        W35112   9.665   3.028   5.084 -0.1232  0.1958 -0.3388
19219W        W35113   8.201   7.614  16.272 -0.0695  0.4595 -0.0160
19220W        W35114  14.326  11.125  13.981  0.1403 -0.2846 -0.2988
19221W        W35115   6.677   5.765  13.004 -0.0173  0.3024  0.0469
19222W        W35116   8.708   0.901   1.630  0.3376  0.0002 -0.0245
19223W        W35117  11.613  16.736  11.707  0.4392  0.2029 -0.1227
19224W        W35118  17.527  17.438   1.747 -0.1367 -0.2259 -0.1016
19225W        W35119   2.861   7.527  16.298  0.1880 -0.1714  0.1499
19226W        W35120   8.053   6.393  13.476  0.1701 -0.1972  0.1673
19227W        W35121   3.409  11.685   2.674 -0.4581 -0.0157 -0.2968
19228W        W35122  10.199  17.977   3.618  0.3220  0.0882  0.3495
19229W        W35123  17.273   7.488  10.956 -0.1035 -0.1024 -0.1717
19230W        W35124   6.755  12.329  13.812 -0.1820  0.2376  0.2401
19231W        W35125   1.267  13.407   4.228 -0.1719  0.0163 -0.2841
19232W        W35126  17.920   9.703   3.196 -0.0018 -0.0031  0.0241
19233W        W35127  16.137   5.477  14.768  0.1892 -0.1348 -0.1036
19234W        W35128   4.816   7.937  11.690 -0.4198  0.1674  0.2444
19235W        W35129   2.506  17.273  14.498  0.1296  0.0018 -0.1068
19236W        W35130   7.883   1.673   2.624 -0.0277  0.0958  0.4068
19237W        W35131   7.357   1.267   4.929  0.2283  0.2323 -0.0241
19238W        W35132  17.494  10.643   2.007  0.2838 -0.2152  0.1207
19239W        W35133   8.694   3.622  11.908  0.0194  0.2998  0.1783
19240W        W35134   6.566   5.606   5.258 -0.1820 -0.2395 -0.2125
19241W        W35135  17.485  13.078   2.082 -0.2598 -0.0479 -0.2106
19242W        W35136   8.687   8.164  12.976 -0.2293 -0.0112 -0.1001
19243W        W35137   8.258   1.767   5.824 -0.0865  0.1215 -0.0351
19244W        W35138   6.563  11.966   5.282  0.0614 -0.2909  0.0075
19245W        W35139   3.206  15.188   4.387  0.1259  0.0950 -0.0262
19246W        W35140   8.688   9.274   0.796 -0.1075  0.0446  0.0350
19247W        W35141  17.763  13.270  12.699 -0.3803 -0.2726  0.0465
19248W        W35142  10.232   8.846  12.468 -0.2040 -0.0922  0.1466
19249W        W35143   1.714   6.611  14.094  0.0426 -0.0718 -0.0581
19250W        W35144   8.389  18.084   2.877  0.0289  0.0570 -0.1769
19251W        W35145  15.769  13.197   5.191 -0.4244 -0.2314  0.1383
19252W        W35146   7.748  14.939   1.936 -0.0638  0.2276  0.4116
19253W        W35147   5.322   0.110   2.256 -0.0629  0.0455 -0.0257
19254W        W35148   3.464   5.065  10.983 -0.2321  0.1281 -0.2916
19255W        W35149  10.763   1.971   5.612 -0.0669  0.0813  0.0583
19256W        W35150   0.674  17.396   0.584  0.0242  0.1988 -0.1681
19257W        W35151  12.885  12.549   0.337 -0.4117  0.3110  0.1339
19258W        W35152   5.828   8.513   2.484 -0.1223  0.0370  0.0206
19259W        W35153   2.569  17.082   6.069  0.2024 -0.0000  0.3143
19260W        W35154  13.394   0.895   0.084 -0.1738  0.2595  0.0079
19261W        W35155  11.792  17.281  16.305  0.1356  0.2780  0.1203
19262W        W35156  10.794   3.258  15.073 -0.1457  0.1061  0.2252
19263W        W35157  17.007  15.427  15.072  0.1270  0.4364 -0.0172
19264W        W35158   8.393   5.644   5.220 -0.1338 -0.4016 -0.0394
19265W        W35159   9.594  14.044   1.818  0.2813  0.1329  0.1755
19266W        W35160   3.634   4.768  13.765 -0.3768  0.0170  0.1448
19267W        W35161   0.557  14.302  16.014  0.2649 -0.1313  0.3204
19268W        W35162   6.835  17.116  16.176 -0.2681  0.0921  0.0220
19269W        W35163   3.903  18.013  15.119 -0.1058 -0.0558  0.1493
19270W        W35164  13.697  12.045  14.311 -0.3473  0.0201 -0.0700
19271W        W35165   8.253  16.479  12.084 -0.1004  0.1372  0.1539
19272W        W35166   2.237   2.778   2.589 -0.0108 -0.1378 -0.0030
19273W        W35167   7.945  13.392  12.014 -0.2062 -0.1764 -0.0091
19274W        W35168   6.701  10.859  16.275  0.0576  0.0567  0.0172
19275W        W35169   6.080  14.900  15.020  0.0188  0.0930 -0.2681
19276W        W35170  11.001   9.064  13.127  0.0008  0.0941 -0.0525
19277W        W35171  10.964   7.997   0.980 -0.0633  0.0778 -0.0363
19278W        W35172   3.367   8.156   3.731  0.0383 -0.3234  0.1640
19279W        W35173  11.576   1.456   5.064 -0.1945 -0.1003  0.0699
19280W        W35174   7.708   4.430   4.668 -0.1583 -0.2043 -0.1033
19281W        W35175  12.531   7.220  15.697 -0.0475 -0.1374  0.0013
19282W        W35176  11.355   3.244   4.104 -0.0198 -0.0656  0.0730
19283W        W35177   8.083   0.397   3.260  0.2329  0.1302  0.1000
19284W        W35178   3.691  12.006   4.067  0.3196  0.3011  0.1379
19285W        W35179   2.258  17.825   3.476  0.1063 -0.3822  0.0138
19286W        W35180   0.967   1.881  14.812  0.1880  0.1079  0.0039
19287W        W35181   7.719   9.492  16.089 -0.1120  0.1151 -0.1006
19288W        W35182   8.544  11.166  13.256  0.1330  0.3221 -0.0225
19289W        W35183  13.120  17.553   4.614  0.0835  0.1069  0.0352
19290W        W35184  11.996   3.172  14.547  0.0964  0.0565  0.1709
19291W        W35185   0.930  10.572   4.532  0.4002 -0.1719 -0.0139
19292W        W35186   3.162  11.403   1.619  0.1997  0.1207 -0.2262
19293W        W35187  14.924  11.499  13.495 -0.0735  0.1660  0.3609
19294W        W35188  18.226  14.173   1.361 -0.1200 -0.0443 -0.0152
19295W        W35189  15.151   6.493  11.779  0.1732 -0.0785  0.0425
19296W        W35190   9.008  16.636  16.273 -0.0273 -0.1492 -0.1060
19297W        W35191  11.855   9.059  12.902  0.0971  0.1016 -0.1696
19298W        W35192  13.392   6.784  16.156 -0.0351  0.2718  0.1995
19299W        W35193  14.110   4.600   1.085 -0.0207 -0.3104  0.0217
19300W        W35194   8.078   9.821  16.344  0.1590 -0.1224 -0.0002
19301W        W35195  12.307  16.480   0.859 -0.2247 -0.0124 -0.3252
19302W        W35196   9.360   1.139   0.043  0.2654 -0.0795  0.3192
19303W        W35197   4.316   7.049   3.091 -0.2000 -0.3005 -0.2924
19304W        W35198  18.102   4.857  14.902 -0.0363  0.2077 -0.1971
19305W        W35199  16.139   9.636  13.366 -0.1678 -0.2442 -0.2768
19306W        W35200   8.808   7.730   0.506  0.2335 -0.2175 -0.0988
19307W        W35201  15.608  16.649   1.944  0.1866  0.0591  0.1608
19308W        W35202   2.460  13.162  11.821  0.2885 -0.1953  0.1297
19309W        W35203   8.853   7.821  11.312 -0.2436  0.3277  0.0245
19310W        W35204   1.953   2.961   5.518  0.2222  0.1675  0.1515
19311W        W35205  12.065  11.496   1.441 -0.2430 -0.1890 -0.0956
19312W        W35206   7.616  13.319  11.567 -0.1584 -0.1224  0.1805
19313W        W35207   9.652   0.563  11.047  0.0489  0.2225  0.1031
19314W        W35208   0.914   3.736   4.759 -0.1745  0.1284  0.1699
19315W        W35209   0.437  10.040   4.559 -0.0242  0.1519 -0.3477
19316W        W35210  13.266  13.004  10.800  0.0407 -0.0280 -0.1295
19317W        W35211   2.939   2.223   1.188 -0.0127 -0.1536 -0.1303
19318W        W35212  15.159  14.329  13.382 -0.2396  0.2152 -0.0069
19319W        W35213  17.005  18.090  13.447 -0.3219  0.2056  0.1786
19320W        W35214   5.260  10.613  11.712  0.0877  0.3855 -0.0881
19321W        W35215  17.147  16.481   0.648 -0.0998 -0.0011 -0.1501
19322W        W35216  13.375  10.049   0.749  0.1090 -0.1825  0.0417
19323W        W35217   9.128  18.215   0.536 -0.0164 -0.0431 -0.1272
19324W        W35218  17.440  16.512   1.081 -0.0091  0.0590  0.1898
19325W        W35219  12.639  15.289  11.310 -0.1273 -0.0946 -0.1542
19326W        W35220   8.318   6.693   3.554  0.0480 -0.0383 -0.0379
19327W        W35221  12.032  10.000  11.897 -0.0402  0.1036 -0.7121
19328W        W35222  15.932  18.163   5.688 -0.0505 -0.2516 -0.0552
19329W        W35223   3.502   7.134   4.598 -0.3650  0.2100  0.1387
19330W        W35224   0.565  11.834  13.608 -0.0031 -0.3014 -0.0825
19331W        W35225   2.687  12.252   2.850  0.1144 -0.2683 -0.1821
19332W        W35226   2.867   8.568   5.874  0.0805  0.0019 -0.0420
19333W        W35227   3.721   2.512   4.169  0.0376 -0.2676 -0.1952
19334W        W35228   4.935   1.700  13.829 -0.3915  0.0063  0.1190
19335W        W35229  16.559   1.480   0.904 -0.1963 -0.0110  0.0591
19336W        W35230   7.283   9.350  14.023  0.0022 -0.5720 -0.0119
19337W        W35231   8.379   0.534   4.321  0.1720 -0.0832  0.1051
19338W        W35232  16.565   0.665   1.821  0.0882  0.3813 -0.0493
19339W        W35233   3.458   6.283  11.375  0.0117  0.1381  0.0063
19340W        W35234   4.505   3.356  15.364 -0.1181  0.0470 -0.1994
19341W        W35235   6.554   4.595  10.480 -0.0840  0.1479 -0.1849
19342W        W35236  14.467  16.239   2.537 -0.2817 -0.0569 -0.2446
19343W        W35237   3.955   1.715  12.905 -0.0604  0.1401 -0.1658
19344W        W35238  11.044  11.363   1.702 -0.0450 -0.0795  0.2589
19345W        W35239   4.216  12.977   3.416 -0.0722  0.0544  0.0817
19346W        W35240  10.021  16.742  13.184  0.0084 -0.2485 -0.1081
19347W        W35241   2.891  15.537   1.403 -0.0573 -0.1255 -0.0322
19348W        W35242   9.821   4.806  15.119  0.1796  0.0282 -0.1064
19349W        W35243  15.540   6.988  12.481  0.1341 -0.0502 -0.2680
19350W        W35244  12.288  12.466  11.508 -0.0319  0.1520 -0.1198
19351W        W35245  12.796  15.262   2.381  0.0078 -0.1814 -0.0816
19352W        W35246  10.566  12.038   1.491  0.0571  0.0816  0.2765
19353W        W35247   4.206  14.308  16.374  0.2090 -0.0799 -0.2740
19354W        W35248   7.587   1.042   5.288  0.0120  0.1193 -0.5213
19355W        W35249   0.429   5.570   4.837  0.1324  0.0766  0.1255
19356W        W35250   8.552   4.519   4.811 -0.0694  0.3339  0.1382
19357W        W35251  16.183   8.238  15.119  0.3010  0.2224 -0.0593
19358W        W35252   7.649   1.337  12.758 -0.0051  0.2547 -0.3481
19359W        W35253  12.896   7.798   1.134  0.1073 -0.1260  0.0055
19360W        W35254  17.882   2.629   2.246 -0.1335 -0.2917  0.1658
19361W        W35255  17.921  11.718   2.209 -0.1921 -0.2186  0.1769
19362W        W35256  17.027   2.522   2.185 -0.2587  0.0510  0.0441
19363W        W35257  10.593   3.508  13.554  0.1221  0.0716  0.0743
19364W        W35258   7.239   1.772  14.893  0.0264  0.0829  0.0144
19365W        W35259  10.636  10.669  12.273 -0.2041  0.1615  0.1121
19366W        W35260  11.998  14.893   0.516 -0.2174  0.0097 -0.0382
19367W        W35261   2.041   2.773   4.745 -0.0600 -0.1219 -0.0891
19368W        W35262  15.851   1.648  16.099 -0.0263  0.3166 -0.1948
19369W        W35263   6.983  14.705  11.905  0.1567  0.2792  0.3517
19370W        W35264  15.787   9.692  13.746 -0.0456 -0.1865 -0.0892
19371W        W35265  10.573   0.388   0.850  0.2987 -0.3490 -0.1564
19372W        W35266   1.942   0.957  16.165  0.3476 -0.1615 -0.1942
19373W        W35267  10.628  12.911  14.860  0.0314 -0.0607  0.2756
19374W        W35268   2.769  15.589   0.842  0.1389  0.0694  0.0802
19375W        W35269  10.378  17.017  11.757  0.0007  0.0008 -0.0285
19376W        W35270   9.060  14.065  13.697 -0.2693  0.0879 -0.0879
19377W        W35271  18.011   3.370   6.073 -0.1051 -0.0762  0.2607
19378W        W35272   6.029   1.061  14.613  0.3913  0.0434 -0.3516
19379W        W35273   7.435   4.968   1.469 -0.0923  0.2408  0.1252
19380W        W35274   5.455  12.693   5.958  0.0730  0.0244  0.3549
19381W        W35275   5.886  11.821   3.999  0.0499  0.4062  0.1875
19382W        W35276   2.298   8.684  16.052  0.2724 -0.1724 -0.1828
19383W        W35277   9.451   3.445   0.523 -0.0338 -0.0477 -0.0856
19384W        W35278   0.276   0.115   0.473 -0.0175 -0.1619  0.0128
19385W        W35279  10.629  14.262  15.273 -0.2111  0.3459  0.2006
19386W        W35280  12.100  10.127   3.575 -0.0566 -0.3574  0.1053
19387W        W35281   2.299  14.647  12.363 -0.1500  0.2140  0.2866
19388W        W35282  18.059  16.403   0.511 -0.1684  0.1100 -0.1337
19389W        W35283  15.628   0.835   3.814 -0.0064  0.1007  0.1945
19390W        W35284   4.444   9.750  13.682 -0.0709 -0.0345 -0.2957
19391W        W35285  13.773   0.466  15.122  0.0595  0.1169 -0.2101
19392W        W35286  12.291   3.674  11.989  0.0274 -0.1068  0.2664
19393W        W35287  10.628   4.618  16.097 -0.1411  0.0776 -0.1218
19394W        W35288   3.062   6.200  15.120 -0.0576 -0.0722 -0.1176
19395W        W35289   0.320  11.279  16.084 -0.2835 -0.3099 -0.2586
19396W        W35290   9.140   0.340   1.321 -0.0667 -0.2125  0.1869
19397W        W35291   4.782  15.362  14.308  0.0905 -0.0780  0.2174
19398W        W35292   8.297   7.693   0.691 -0.0988 -0.0541  0.0129
19399W        W35293  10.050  12.596  13.581  0.1415 -0.0331  0.0107
19400W        W35294   2.445  13.311   1.762 -0.2758  0.2831  0.1139
19401W        W35295   2.424   8.935  11.680  0.3343  0.1667  0.2340
19402W        W35296   6.608  17.059  15.587 -0.0189 -0.0338 -0.0201
19403W        W35297  12.438   4.323   1.120  0.4144  0.0244 -0.0901
19404W        W35298  10.141  11.004   5.094 -0.1314  0.0042  0.0522
19405W        W35299  13.489  13.935   4.183  0.1297  0.3587  0.0789
19406W        W35300  11.177  16.205  12.542 -0.0024  0.0646 -0.0448
19407W        W35301   9.409   2.877  15.871  0.2547  0.2733  0.1696
19408W        W35302  15.253   0.183  16.018  0.1679 -0.1916  0.0450
19409W        W35303   0.765  13.535  13.509 -0.0963  0.0639 -0.0215
19410W        W35304  14.721   3.533   4.203 -0.1309  0.0664 -0.0550
19411W        W35305   1.076  10.087   2.215 -0.0636 -0.1817 -0.0598
19412W        W35306   5.814   2.145   4.547 -0.1739  0.2891 -0.2230
19413W        W35307  11.726   6.880  11.765 -0.0486  0.1233  0.2639
19414W        W35308  12.158   6.747   4.251  0.0185  0.2701 -0.3308
19415W        W35309   9.305  16.161  13.707  0.0196  0.0445 -0.0750
19416W        W35310   8.475   9.718   0.632  0.0931  0.2198 -0.1049
19417W        W35311  12.066   1.906  12.728  0.0723  0.1395  0.3401
19418W        W35312   8.561   1.449   0.644 -0.3914 -0.3105 -0.2223
19419W        W35313   8.837   8.703  13.634  0.1178 -0.0272  0.0315
19420W        W35314   3.666  11.736  11.984  0.1345 -0.1301 -0.1603
19421W        W35315  17.480   7.172  15.046 -0.2621  0.1405  0.1850
19422W        W35316   7.771   6.966  15.050 -0.1847 -0.1075 -0.0742
19423W        W35317  13.416   8.865  14.530 -0.2777 -0.1553  0.0078
19424W        W35318   7.538   0.276   2.763  0.1738  0.2906  0.3972
19425W        W35319   5.008  12.507   3.285  0.0584 -0.0550  0.0657
19426W        W35320  12.109  10.625   2.658  0.0794  0.1947 -0.0249
19427W        W35321  10.841  11.752  13.299  0.2522  0.1221  0.0377
19428W        W35322  13.391  10.289   2.058  0.2538 -0.0383 -0.0750
19429W        W35323   9.871   7.569   0.100  0.3070 -0.0410 -0.0246
19430W        W35324   1.120  15.021  13.068 -0.3203 -0.1298 -0.0597
19431W        W35325  14.386  15.244   2.858  0.0396  0.3019 -0.3760
19432W        W35326  12.847   9.518   0.585 -0.0401 -0.0884 -0.2350
19433W        W35327   5.793   9.394  14.926 -0.0234 -0.0627  0.1867
19434W        W35328  17.842   4.127  12.099  0.0657 -0.2829  0.0224
19435W        W35329  15.817   5.036   4.773 -0.0809  0.0674 -0.0963
19436W        W35330   3.605  18.168  14.329  0.0923 -0.0315 -0.2752
19437W        W35331  17.211   3.159  13.533 -0.0021  0.0690  0.2629
19438W        W35332  12.968   1.117  16.418 -0.0610 -0.0223 -0.1139
19439W        W35333  13.481  14.671  16.059  0.0080 -0.2039 -0.1492
19440W        W35334  11.648   2.666   0.573 -0.2637 -0.0803  0.0099
19441W        W35335   4.667   9.431   3.348 -0.3688 -0.1851  0.0948
19442W        W35336  13.214   3.295  13.573 -0.2345 -0.3320  0.1274
19443W        W35337   9.722  10.029  14.861 -0.0561 -0.2200 -0.2840
19444W        W35338   0.011  15.353  11.730 -0.1225 -0.1873 -0.0035
19445W        W35339  15.640   6.378   3.610  0.1277 -0.1197  0.1053
19446W        W35340   0.903  13.379  11.796  0.0366 -0.0466  0.1284
19447W        W35341   3.952  16.198   1.697 -0.1530  0.1373 -0.1328
19448W        W35342  13.868   5.680  16.004  0.0003 -0.0101  0.1857
19449W        W35343   8.100   6.216  11.570 -0.1430 -0.0253  0.1652
19450W        W35344  10.074   7.122   0.123  0.2887 -0.0163 -0.1101
19451W        W35345   2.873   7.961   1.180 -0.0959  0.2937  0.3798
19452W        W35346  10.088   0.463   4.255 -0.3273  0.1102 -0.0272
19453W        W35347  10.650   9.364   0.072  0.1655 -0.0904  0.2389
19454W        W35348   4.391  15.110   0.034  0.1988 -0.0346 -0.1645
19455W        W35349  15.043   0.699  15.887 -0.1034  0.5745  0.4169
19456W        W35350   2.904  17.764  15.972  0.2462 -0.1983 -0.1027
19457W        W35351   9.773   0.163   5.136 -0.0761  0.0058  0.3086
19458W        W35352   5.096   1.051   3.361 -0.2146  0.0098  0.0961
19459W        W35353   1.315  17.351  11.887  0.1026  0.2377 -0.0737
19460W        W35354   3.280  13.845  16.069 -0.2942  0.2450  0.1279
19461W        W35355  12.851  16.601  12.584  0.1839  0.1316  0.0354
19462W        W35356  10.671   5.157   5.048  0.0469  0.1114 -0.1569
19463W        W35357   1.261  13.094  12.570  0.0093 -0.1246 -0.1789
19464W        W35358   2.591  14.191   5.387 -0.0222  0.1408 -0.1749
19465W        W35359   7.377   9.396   3.487 -0.2194 -0.2790  0.1071
19466W        W35360  17.922   4.011   0.027 -0.0209  0.5830 -0.5007
19467W        W35361   4.472  13.009  15.256 -0.1637 -0.1638 -0.0587
19468W        W35362  11.621   8.159   4.767  0.1305  0.3031 -0.2061
19469W        W35363  15.879  15.060  12.505 -0.2063  0.1229  0.2304
19470W        W35364   1.912  12.412  12.692 -0.2218 -0.1237  0.0264
19471W        W35365   5.806  16.092  12.449  0.1134  0.1536 -0.0843
19472W        W35366  16.552  15.539   1.090  0.4000 -0.1841  0.1873
19473W        W35367   7.948  12.241   0.198 -0.1330  0.1246  0.0045
19474W        W35368   8.902  17.572  16.243  0.0402 -0.1275 -0.0989
19475W        W35369   1.736   7.566  14.329 -0.0736 -0.0658 -0.0599
19476W        W35370  10.007   6.434  13.153 -0.0767 -0.0049  0.0950
19477W        W35371   3.838   7.107   4.156  0.0090  0.5484 -0.3061
19478W        W35372  16.462  11.495   0.942  0.2038  0.0452  0.0668
19479W        W35373  12.427   3.417   2.197  0.0012  0.1093  0.3305
19480W        W35374   5.558   2.491  12.468  0.0874  0.0383  0.0159
19481W        W35375   2.510  11.079  15.768 -0.0700  0.0566 -0.0697
19482W        W35376  17.160   0.784   3.403 -0.1980 -0.1922 -0.1790
19483W        W35377   7.522   6.888   2.862 -0.1175  0.0086  0.1102
19484W        W35378  10.637   5.844   4.207 -0.2715  0.2805  0.2411
19485W        W35379   6.032   6.326  14.919 -0.1346 -0.2558 -0.1330
19486W        W35380   8.575  11.516   5.273  0.1175 -0.0820  0.2021
19487W        W35381  16.030   9.873   2.428 -0.0736  0.1783  0.0478
19488W        W35382   8.102  14.231  12.448 -0.2160  0.3569  0.1126
19489W        W35383   9.539   6.581  14.819  0.1248  0.1827 -0.0503
19490W        W35384  10.166  14.551  12.027 -0.2091 -0.0749  0.2724
19491W        W35385   1.627   6.435  15.781  0.1297 -0.0221  0.2534
19492W        W35386  12.569   2.081  14.750 -0.0463 -0.1021 -0.2190
19493W        W35387  17.804  14.462  14.485 -0.2493  0.2398 -0.0702
19494W        W35388   3.686   5.396  11.844 -0.1591  0.3935  0.0171
19495W        W35389  14.940  18.134   5.647 -0.2849 -0.5303  0.0017
19496W        W35390   6.986  14.485   0.853  0.2806  0.0468  0.1913
19497W        W35391   7.585   5.548  13.922  0.0918 -0.0143 -0.4253
19498W        W35392  13.678  13.052  12.857 -0.0604 -0.0264 -0.0523
19499W        W35393   7.093   8.984   3.517 -0.0728  0.2130  0.1181
19500W        W35394  18.208   3.790   3.150 -0.4633  0.0382  0.2172
19501W        W35395   3.613  11.241   2.786 -0.1464  0.0717 -0.1495
19502W        W35396   6.646   4.075  13.770  0.0653  0.1391  0.2756
19503W        W35397  12.917   7.224   4.923  0.0766 -0.2502 -0.2041
19504W        W35398   0.269   6.480   2.565  0.0563 -0.0557 -0.3330
19505W        W35399  17.658  14.875   1.933 -0.0314  0.0663 -0.2454
19506W        W35400  15.521   4.832  12.569 -0.2910  0.0383  0.2162
19507W        W35401   7.435   5.236   3.067 -0.1951  0.2003 -0.0076
19508W        W35402   5.042   2.378  13.281  0.0315  0.0369  0.2043
19509W        W35403   5.496  10.089  12.345  0.1214 -0.2164  0.0190
19510W        W35404  18.025   2.767   3.382 -0.1573 -0.1699  0.0655
19511W        W35405  12.227  11.852  13.176  0.1591  0.0312  0.0316
19512W        W35406   0.639  13.999  13.289  0.2607 -0.0185 -0.3651
19513W        W35407   3.718   4.630   1.317  0.1590 -0.2779 -0.1821
19514W        W35408   3.411  15.863   5.186  0.0030 -0.1430  0.1150
19515W        W35409   6.154   4.055  15.637 -0.4321 -0.2307 -0.3863
19516W        W35410   5.777   8.080   2.275 -0.2693 -0.1694  0.2647
19517W        W35411  18.202   5.460  14.233 -0.1132  0.0529  0.2038
19518W        W35412  16.771   6.981   1.148 -0.1513  0.0297 -0.2410
19519W        W35413   1.187  15.300  14.807 -0.3266 -0.1961 -0.0821
19520W        W35414  11.351  15.186  15.259 -0.5104 -0.1246  0.1882
19521W        W35415  18.102   6.279   5.208 -0.0299  0.0230 -0.0128
19522W        W35416   6.346   2.577   6.302  0.3419 -0.1169  0.0117
19523W        W35417   4.264  10.198   5.494  0.1704  0.3535  0.0492
19524W        W35418  15.997  11.776  12.593  0.2037  0.2393  0.0952
19525W        W35419   3.695   3.039  11.747  0.3068  0.2274  0.1575
19526W        W35420  14.700   6.128   0.618  0.2687  0.1878  0.1871
19527W        W35421   5.883  14.347   2.914  0.1118 -0.0113  0.2193
19528W        W35422  14.267  13.639   3.627 -0.0055 -0.3589 -0.0636
19529W        W35423   6.843   0.576   3.027  0.1704 -0.0130 -0.2213
19530W        W35424  15.183   9.391  16.266  0.1528 -0.4335 -0.1367
19531W        W35425   9.259  13.793   3.140 -0.2040 -0.2968 -0.1377
19532W        W35426   9.093   4.021   3.246 -0.0024 -0.0601  0.0574
19533W        W35427   7.245   6.495  15.939  0.0156  0.0100  0.0534
19534W        W35428   1.737  17.729   3.583  0.1554  0.0362  0.0416
19535W        W35429   2.936   7.149  12.385  0.2280 -0.1245  0.1685
19536W        W35430  12.394   3.755   2.873  0.3218  0.0501  0.0618
19537W        W35431   6.992   8.232   5.652  0.3646 -0.0832 -0.1457
19538W        W35432  17.162   3.417   3.046  0.3596 -0.0519 -0.0529
19539W        W35433   2.191   5.671  12.040 -0.1603 -0.0339 -0.0106
19540W        W35434   9.221   5.200   4.256 -0.1216  0.0235 -0.1747
19541W        W35435  13.620   3.232   0.554 -0.1195 -0.1167 -0.1857
19542W        W35436   3.342   6.398   1.772 -0.1093 -0.2425 -0.0028
19543W        W35437   4.512   9.309  13.940 -0.0681 -0.1420 -0.0111
19544W        W35438   3.860   5.861  11.938  0.0263  0.4429 -0.0911
19545W        W35439  14.234  13.232   1.280 -0.1775 -0.0492 -0.3285
19546W        W35440   9.709  14.150  15.258  0.3120  0.0099 -0.0539
19547W        W35441  17.191  15.315  13.758  0.0611  0.0009  0.1246
19548W        W35442   1.281  12.389  11.928 -0.1842 -0.0674  0.3688
19549W        W35443   1.138   5.403   0.467  0.0019 -0.0408 -0.2057
19550W        W35444   3.322   0.811   2.666 -0.4359 -0.3182  0.0439
19551W        W35445   4.772   2.727   1.233 -0.1897  0.0321  0.0541
19552W        W35446  17.223  14.060   1.704  0.1864 -0.1322  0.0701
19553W        W35447  11.905   6.672  12.767  0.2646 -0.1373  0.0681
19554W        W35448  14.118   6.633   4.070  0.0772 -0.1249  0.0996
19555W        W35449  10.638   0.166   3.254  0.1977 -0.3441 -0.1064
19556W        W35450  13.362  13.177   5.326  0.3261 -0.4433 -0.1640
19557W        W35451   5.170  10.754   6.091  0.2578 -0.0732 -0.3297
19558W        W35452  18.051  12.180   1.187 -0.0560  0.1463 -0.3614
19559W        W35453  11.554  11.978   0.375  0.1105  0.0911  0.3734
19560W        W35454  13.357   7.555  12.892 -0.1174 -0.0971  0.0461
19561W        W35455   5.843  12.594   3.575  0.3389  0.3929 -0.0350
19562W        W35456  14.214   8.908   2.178 -0.0541  0.1876 -0.1641
19563W        W35457   6.122  17.816  15.827  0.1561 -0.3273  0.3480
19564W        W35458   8.705  14.596   3.288 -0.0224 -0.0930 -0.1105
19565W        W35459  16.223  17.806  14.437 -0.0158 -0.0243 -0.0083
19566W        W35460  16.716  14.997  14.553 -0.1473  0.2368 -0.2375
19567W        W35461   6.583  14.263   1.692 -0.1036 -0.2206  0.2772
19568W        W35462   6.500   4.129  15.070 -0.1845 -0.0618  0.0427
19569W        W35463   4.843  15.013   3.025  0.1527 -0.1997 -0.6123
19570W        W35464   1.756  13.018  12.799 -0.4859 -0.2534 -0.1088
19571W        W35465  17.737   4.699  16.059  0.2746  0.0320  0.1673
19572W        W35466  14.091   4.759  11.388  0.5593  0.0847 -0.2991
19573W        W35467  13.034   1.614  14.339 -0.0529 -0.2460  0.4493
19574W        W35468  13.711   6.053   2.154  0.1002  0.2934 -0.0979
19575W        W35469  18.093  12.063  12.516  0.2168  0.3080  0.0982
19576W        W35470   2.544  15.690  15.780 -0.0126 -0.1691  0.0779
19577W        W35471  15.308  15.576   2.641  0.1359  0.0316 -0.3448
19578W        W35472  13.636  12.259  14.776 -0.0072 -0.0208  0.0318
19579W        W35473   3.142  14.254  16.311 -0.0234  0.0468  0.3709
19580W        W35474   1.520  10.354  13.713  0.0967  0.1081 -0.0921
19581W        W35475  12.899  14.747   2.702  0.3361  0.1803 -0.0421
19582W        W35476   5.727   3.767  14.388 -0.2314  0.0710 -0.1913
19583W        W35477   4.652  13.740  12.353  0.0926 -0.0152  0.0582
19584W        W35478  11.250  16.466  16.414  0.2976 -0.1957 -0.5242
19585W        W35479   1.105   4.490   0.810 -0.0668  0.1715 -0.3379
19586W        W35480  14.715   4.359   3.783 -0.0332  0.1639 -0.3047
19587W        W35481   4.452  12.513   4.558  0.1972 -0.2294  0.2879
19588W        W35482   2.059   6.489   5.297 -0.1204  0.0281 -0.1482
19589W        W35483   2.875   5.853   5.554 -0.1377 -0.2486 -0.0623
19590W        W35484   5.004   7.199   4.833 -0.0336  0.2590 -0.1719
19591W        W35485  17.013   8.687   1.941 -0.1006 -0.0994  0.1992
19592W        W35486  11.803   4.330  14.031  0.0243  0.6107  0.0137
19593W        W35487   3.035  12.471  14.899  0.0077  0.1927  0.0454
19594W        W35488  18.088   4.892   0.080 -0.0492 -0.2451  0.1180
19595W        W35489  13.436   0.247  12.696  0.0614 -0.2039 -0.0032
19596W        W35490   5.646   8.019   4.936  0.2441  0.1753  0.1978
19597W        W35491   0.815  14.678   0.945  0.1765 -0.2135  0.1564
19598W        W35492   8.311   9.703   5.949 -0.1829  0.0459  0.3193
19599W        W35493  16.468   5.051  14.921  0.3104 -0.0424  0.0209
19600W        W35494   5.235  16.015   5.512 -0.3344  0.1380 -0.0965
19601W        W35495   5.021   2.729   4.466 -0.1387  0.0450 -0.0375
19602W        W35496   7.035   4.553   4.335  0.0277 -0.1966  0.4005
19603W        W35497  10.536   9.191   0.753 -0.0961 -0.0410  0.2733
19604W        W35498  16.097  16.011   1.856  0.1248  0.0898 -0.1239
19605W        W35499   2.644   5.762  13.273  0.2309  0.0199  0.0302
19606W        W35500  11.085   6.847   5.160  0.1643 -0.3712 -0.0094
19607W        W35501  12.727  12.862  15.880  0.1772 -0.2421  0.0828
19608W        W35502  12.270   0.601   2.078  0.0093  0.2430 -0.1162
19609W        W35503   8.744   9.192  10.256  0.1359  0.0757  0.1510
19610W        W35504  14.722   7.456  13.970  0.1473 -0.0811 -0.0156
19611W        W35505  16.705   6.615   3.824 -0.0888  0.0945 -0.1476
19612W        W35506  16.093   8.121   1.150  0.0834  0.0444 -0.2225
19613W        W35507   8.108   2.936  12.790  0.0870  0.0293  0.0063
19614W        W35508  10.238  13.717   4.970  0.2151 -0.1833 -0.1074
19615W        W35509   2.401   8.406   5.742  0.1792  0.1507 -0.1499
19616W        W35510  15.417   5.945  12.912 -0.0187 -0.1741 -0.0449
19617W        W35511  16.166  11.464  13.022 -0.2022 -0.1489 -0.1784
19618W        W35512  10.144   9.669   4.755  0.0771  0.1250  0.0802
19619W        W35513  14.749   7.930  12.756  0.1567 -0.2276  0.1873
19620W        W35514  16.854  13.049   5.959 -0.3125  0.1763  0.2542
19621W        W35515   5.703   6.723   0.804  0.1344  0.0974  0.4062
19622W        W35516   1.859   6.038  15.764  0.1351  0.3275  0.1011
19623W        W35517   5.438  18.207  16.043 -0.1449 -0.2201 -0.0769
19624W        W35518  13.295   0.706   5.081  0.0414  0.2089  0.1618
19625W        W35519  13.397  15.676  12.716  0.1964  0.2060  0.3682
19626W        W35520   3.562   8.752  12.207 -0.0095 -0.0700  0.1335
19627W        W35521   5.613   3.196   4.245  0.0136 -0.1959  0.2432
19628W        W35522   3.221   5.668  13.199  0.1565 -0.2745 -0.1590
19629W        W35523   8.706   0.076  15.777  0.2432 -0.0053  0.1032
19630W        W35524   8.130   6.679  12.973 -0.0790 -0.1990  0.1810
19631W        W35525   3.097  11.888   0.025 -0.0498 -0.0064 -0.0615
19632W        W35526   9.552  14.721  11.387 -0.1009  0.2266  0.1499
19633W        W35527   0.207   2.873   3.101 -0.1430 -0.0017 -0.0028
19634W        W35528  14.277  15.525   1.789 -0.1181  0.0371  0.4734
19635W        W35529   2.153   4.482  13.242  0.0700 -0.3668 -0.1368
19636W        W35530   0.472  14.968  13.703  0.1399 -0.1938  0.0210
19637W        W35531   6.507   1.060  14.439 -0.0901  0.0466 -0.1888
19638W        W35532   4.154   7.285  13.284 -0.0163  0.1230  0.0688
19639W        W35533   9.967  12.908  12.216  0.2685 -0.1360  0.1202
19640W        W35534  11.270  17.009  15.763 -0.3394  0.1141 -0.2302
19641W        W35535   3.299   6.488  14.216 -0.0466  0.0172 -0.1521
19642W        W35536   7.922   5.875  13.651 -0.0642  0.3011  0.1805
19643W        W35537  11.836  17.527   4.209 -0.0107 -0.0080  0.1971
19644W        W35538   2.272  10.908   2.755  0.1863  0.0882 -0.2258
19645W        W35539   5.724  16.926   0.650  0.2237 -0.1407 -0.1816
19646W        W35540   5.361   1.582   6.195 -0.2719 -0.2530 -0.0863
19647W        W35541  10.475   3.149   2.348  0.1650  0.2487  0.2058
19648W        W35542   4.505   8.011  11.050 -0.0281 -0.0681 -0.4001
19649W        W35543  10.564  13.209   5.473  0.1632 -0.0300 -0.1127
19650W        W35544  16.419  11.863  13.389 -0.0410 -0.0129 -0.0035
19651W        W35545   5.229  11.284   2.791 -0.2552  0.0018 -0.0406
19652W        W35546   4.448   7.569   1.790 -0.0688 -0.3697  0.0952
19653W        W35547   4.901   9.439   2.668 -0.2088  0.0367 -0.1553
19654W        W35548   7.901  10.060   4.770  0.1062  0.1539 -0.1529
19655W        W35549   0.033   3.526   0.521  0.1706 -0.2399  0.4159
19656W        W35550  12.839   8.210   1.874 -0.0722  0.1901 -0.0540
19657W        W35551   9.149   2.654   4.193  0.2242  0.2049 -0.1492
19658W        W35552  10.142   3.316  16.225 -0.3380 -0.3483 -0.1263
19659W        W35553  17.793  16.749   4.872  0.3163  0.0477  0.3966
19660W        W35554  17.779   5.117   2.908  0.1193  0.1712  0.0526
19661W        W35555   6.039   8.975   2.161 -0.0448 -0.3576  0.0019
19662W        W35556  15.024   8.189   3.783 -0.0492 -0.0846 -0.1815
19663W        W35557  12.651   8.614  14.681 -0.0996  0.4146 -0.0164
19664W        W35558   8.551  10.223   4.673 -0.2364  0.4336 -0.1656
19665W        W35559   8.919   0.927  11.530 -0.1431  0.2200 -0.5008
19666W        W35560   5.903   5.460  14.520  0.0776  0.0844 -0.2949
19667W        W35561   4.066   6.704   5.050 -0.0553  0.0901  0.0803
19668W        W35562   9.313  17.657  13.742 -0.1589 -0.2444 -0.0701
19669W        W35563   7.572  15.330  16.012 -0.2874 -0.0120  0.0349
19670W        W35564  15.889  18.195  15.751  0.2730 -0.0107 -0.0221
19671W        W35565  11.043   6.113   4.057 -0.0888 -0.3403  0.2626
19672W        W35566  11.408  12.936  14.419  0.3597  0.0443  0.2665
19673W        W35567  17.105  14.508   3.515  0.1479  0.0940  0.2484
19674W        W35568   4.078  17.871   4.032  0.0517 -0.3470 -0.1456
19675W        W35569   9.665   4.007   1.794  0.1026 -0.1298 -0.0832
19676W        W35570  14.536   3.577  12.993 -0.1295 -0.1130  0.0656
19677W        W35571   4.834   7.989   5.389  0.0156  0.0611  0.0186
19678W        W35572  13.054   4.436   3.927  0.0929 -0.1815  0.1537
19679W        W35573  11.568   6.046   1.783 -0.1813 -0.2390 -0.1502
19680W        W35574   2.322   0.651  15.054  0.1427 -0.1493 -0.0673
19681W        W35575   6.120   0.312   3.524  0.1057  0.4466  0.0705
19682W        W35576   8.595   5.205  14.806  0.1285  0.1087 -0.0641
19683W        W35577   8.183  10.182   4.292  0.0547 -0.0535 -0.1082
19684W        W35578   8.446  15.773  13.502  0.1632  0.2337  0.0221
19685W        W35579  10.024   3.585   1.725  0.2818 -0.0979 -0.1520
19686W        W35580  14.071  12.063  15.168 -0.0805 -0.1406  0.0338
19687W        W35581  17.824   0.304  14.182 -0.1100  0.2152  0.2374
19688W        W35582   6.588  14.562  12.379  0.0320 -0.0958  0.2258
19689W        W35583  16.480  14.671   4.477  0.3424  0.3247 -0.1073
19690W        W35584  15.119   7.518   1.755  0.0471  0.3047 -0.5534
19691W        W35585  17.239   5.438  12.620 -0.0069  0.0926  0.4681
19692W        W35586  12.429   8.836   3.616  0.0806 -0.1617  0.1656
19693W        W35587   8.547   9.952   0.085  0.1316 -0.2948 -0.2607
19694W        W35588  16.531  13.926   1.139  0.1280 -0.0257 -0.0216
19695W        W35589   3.314  12.725  12.392 -0.1029 -0.2108 -0.0054
19696W        W35590   1.092  11.003  16.372  0.3495  0.0057  0.3885
19697W        W35591  14.630   9.812  14.475  0.1775  0.3542  0.3661
19698W        W35592   3.052  16.610   1.986  0.1484  0.3577 -0.0213
19699W        W35593   7.316  13.491  12.056  0.2659  0.0563  0.1331
19700W        W35594   9.071  14.775   1.075  0.0542  0.0628 -0.0465
19701W        W35595   9.428  17.732   5.671  0.3696 -0.0182 -0.2287
19702W        W35596   0.932  16.546   5.698  0.0878  0.1699  0.1047
19703W        W35597  15.921  16.272   2.342 -0.0481  0.1199  0.5462
19704W        W35598  14.667   3.095  14.674 -0.0342 -0.0640 -0.1883
19705W        W35599   8.614  12.644   2.038 -0.0561 -0.0558 -0.1790
19706W        W35600   9.564   3.633   1.485  0.1258  0.0346  0.1080
19707W        W35601  10.373   6.837   2.909 -0.0301 -0.0971 -0.2784
19708W        W35602   5.096   6.110  14.808 -0.0577 -0.1411  0.2064
19709W        W35603  10.682  17.835  15.490 -0.3753 -0.0538  0.4104
19710W        W35604   1.662   2.166  13.672 -0.3243  0.0293  0.4132
19711W        W35605  13.505  12.566   1.255  0.0653  0.0641  0.0434
19712W        W35606  18.117  12.414  13.174 -0.1987  0.0738 -0.2512
19713W        W35607   3.413  17.793  12.817  0.4287 -0.1404 -0.0373
19714W        W35608   0.034   5.168  15.434 -0.2222  0.2557 -0.2876
19715W        W35609   5.501  17.804   4.512 -0.1974  0.0003  0.1133
19716W        W35610  10.176  10.360  16.375 -0.1382  0.1260 -0.0154
19717W        W35611   5.999  14.289   4.779 -0.0511  0.0554  0.1639
19718W        W35612  14.229   0.172   4.432 -0.2678 -0.2789  0.1146
19719W        W35613  11.012   6.759   1.766 -0.4050 -0.2087  0.2632
19720W        W35614  14.070   5.489  14.894  0.0141  0.2713 -0.0060
19721W        W35615  14.974   8.252  13.975  0.0939  0.1400 -0.2735
19722W        W35616  13.152   7.808   4.336 -0.0652 -0.1835 -0.0435
19723W        W35617  16.394  12.227   5.823 -0.0529  0.0090 -0.0989
19724W        W35618  13.366   9.037  13.744 -0.1985  0.2495 -0.0549
19725W        W35619   8.725   3.116  16.187 -0.0553 -0.1844 -0.2431
19726W        W35620   4.830  14.679  14.554  0.1099 -0.1346 -0.0190
19727W        W35621   8.478  13.081  15.158 -0.0409  0.2850 -0.0910
19728W        W35622  13.996  14.216   5.741  0.2936  0.0221  0.1600
19729W        W35623   0.489  13.316   1.163  0.1752  0.2421 -0.3825
19730W        W35624  17.736  12.683   2.188 -0.4918  0.2737 -0.0042
19731W        W35625   7.850   5.152   0.645  0.0592  0.1515  0.0830
19732W        W35626   1.554  17.126   1.542 -0.1148  0.1428 -0.0538
19733W        W35627   2.956   0.801  16.423  0.1004  0.1870 -0.0196
19734W        W35628  16.262  16.508   2.651  0.0529 -0.3014 -0.2746
19735W        W35629   5.231  10.329  13.637  0.2232  0.0605  0.0226
19736W        W35630   1.392   8.503  14.356  0.2339  0.3303 -0.1422
19737W        W35631   9.847  17.712   2.837  0.1973  0.1128 -0.2378
19738W        W35632   6.200   7.329   2.183  0.1134 -0.1389 -0.1391
19739W        W35633   9.045  11.941  11.482  0.1439  0.0296 -0.1403
19740W        W35634   6.524  13.550   0.128  0.0018  0.1538  0.1271
19741W        W35635   6.002   6.995  13.415  0.1732  0.0078  0.3101
19742W        W35636  10.633   9.732  11.798  0.2148  0.1013  0.1687
19743W        W35637   8.318   4.859   0.783 -0.0398 -0.0510  0.1381
19744W        W35638   1.557   8.035   2.023  0.1899  0.0516  0.1700
19745W        W35639   8.607   2.762   2.424 -0.1600 -0.1725 -0.3835
19746W        W35640  16.488   4.032   5.428 -0.2978 -0.1584  0.0726
19747W        W35641   9.620   8.843  14.184 -0.0561 -0.0139  0.0203
19748W        W35642  10.972   8.562   4.893 -0.1485 -0.1014 -0.3807
19749W        W35643   9.068  14.114   0.046 -0.2112 -0.4099  0.2180
19750W        W35644  16.838   0.738   2.546 -0.2091 -0.2158 -0.0416
19751W        W35645  13.997   9.260  12.211 -0.0983 -0.2821  0.1018
19752W        W35646   4.387   2.529  11.173  0.0300 -0.0940 -0.2154
19753W        W35647   6.518   7.896  14.364 -0.0426  0.0409  0.0693
19754W        W35648   5.175   8.030   1.462 -0.0057  0.0827 -0.3237
19755W        W35649   9.298  15.923   4.827  0.1263 -0.0244  0.3445
19756W        W35650   8.370  14.280  14.969 -0.1176  0.1942 -0.1920
19757W        W35651  16.638   7.929  15.925 -0.0835  0.1846 -0.2178
19758W        W35652  17.801   5.724   5.836  0.0669 -0.1452  0.0097
19759W        W35653   7.174  13.889   0.915 -0.1159  0.1555 -0.2812
19760W        W35654  15.018   2.165   5.421  0.2968 -0.0890 -0.1195
19761W        W35655   9.776   8.403   4.498 -0.0387 -0.2461 -0.1804
19762W        W35656   9.343   0.377  14.773 -0.4098 -0.2084 -0.0020
19763W        W35657  17.156  11.006  12.100  0.3544 -0.0920  0.3825
19764W        W35658   5.753  12.184  12.344 -0.1183 -0.0729 -0.2326
19765W        W35659  13.278   1.465   1.129 -0.0623  0.1431  0.0379
19766W        W35660  15.215   2.713  11.398 -0.1325  0.2518 -0.1842
19767W        W35661  17.280   9.986  16.339  0.0476  0.0865  0.1347
19768W        W35662   6.662  15.602  12.137 -0.0279 -0.3331  0.2151
19769W        W35663  17.238   2.539   5.468 -0.1565 -0.1253 -0.2065
19770W        W35664   8.088  10.336  16.401  0.0856 -0.1000 -0.0639
19771W        W35665  14.881  12.525  13.473 -0.0674  0.0746 -0.2422
19772W        W35666  11.867   3.948   3.523  0.0341 -0.4597 -0.3238
19773W        W35667   5.461  13.303   3.816 -0.0565 -0.2658 -0.2136
19774W        W35668   2.696  14.491  12.610  0.2474 -0.0962 -0.2858
19775W        W35669  11.488   5.067   1.760  0.3042 -0.2783 -0.0403
19776W        W35670   5.941   7.480  15.920  0.0846  0.4589 -0.0606
19777W        W35671  16.629   1.225   2.618  0.1618 -0.1601  0.0081
19778W        W35672   6.231   6.569   2.677  0.3825 -0.3038  0.3568
19779W        W35673  11.745   5.211  15.584 -0.0766  0.0527 -0.6095
19780W        W35674  11.321   9.468  11.771  0.0907  0.1411 -0.0320
19781W        W35675   2.409   0.531  14.484  0.0492 -0.0106  0.0759
19782W        W35676  12.099  11.709  12.197  0.1627  0.0204  0.1747
19783W        W35677  17.134   0.297  12.523  0.0523  0.1312 -0.1241
19784W        W35678   8.901  13.636   2.755  0.1307 -0.4039  0.0028
19785W        W35679   1.084   4.704   2.888  0.0507 -0.0032 -0.1159
19786W        W35680  13.149  11.540   3.011  0.2223 -0.0355 -0.1099
19787W        W35681  11.381  13.975  16.258  0.2329 -0.5524 -0.1774
19788W        W35682   4.990   0.929   5.049  0.0762  0.2611  0.1267
19789W        W35683   3.895  12.683   0.636 -0.1528 -0.2746 -0.0852
19790W        W35684   9.091   7.597   5.381  0.3024  0.2035 -0.0638
19791W        W35685   3.296  16.676   3.497 -0.0522 -0.1077  0.2134
19792W        W35686  14.985  13.318   3.221 -0.1331 -0.0622 -0.4144
19793W        W35687  16.841   7.235   1.978 -0.1677 -0.0236  0.1012
19794W        W35688  10.544   5.602   4.757  0.0413  0.0347 -0.2039
19795W        W35689  10.478  17.316   0.405 -0.1688  0.3411 -0.0165
19796W        W35690  16.147   2.970   1.944 -0.2376 -0.2334  0.0159
19797W        W35691  13.217  13.332   2.290 -0.0405  0.0040  0.0975
19798W        W35692  14.706  15.165  12.655 -0.0341 -0.0090  0.0803
19799W        W35693  10.756   0.544   4.966  0.0070 -0.3832  0.2020
19800W        W35694  17.582  11.219   5.289  0.3717 -0.0241  0.0459
19801W        W35695  13.813  15.719  13.124  0.0651 -0.2704  0.1567
19802W        W35696   3.704   0.365   2.590  0.2092  0.2074 -0.0298
19803W        W35697   4.467   4.446   0.863 -0.0837  0.1328  0.0381
19804W        W35698   0.351  11.671  12.270  0.0950 -0.3203  0.3300
19805W        W35699   3.226   0.728   0.426 -0.2981  0.0269  0.1155
19806W        W35700   3.918   1.233   1.852  0.1001  0.1383  0.1424
19807W        W35701   3.777   9.622  11.793 -0.1140  0.1195  0.0157
19808W        W35702  13.717   5.471   5.390  0.0851  0.0794 -0.0182
19809W        W35703  15.836   4.499   2.149  0.0950  0.1874  0.0507
19810W        W35704   8.662  16.487   2.503  0.2217 -0.1779 -0.0555
19811W        W35705   3.408   1.946   1.101 -0.2337  0.1044  0.0463
19812W        W35706  10.078   7.782  13.178  0.2821  0.0518  0.1095
19813W        W35707   6.809   5.164   5.287 -0.0180 -0.0203 -0.3483
19814W        W35708   7.156  14.236   0.382  0.0097 -0.0460  0.1033
19815W        W35709   6.753  14.157  12.635 -0.0216  0.0275  0.1650
19816W        W35710  13.514   2.546   0.066 -0.0765 -0.1690 -0.1018
19817W        W35711   4.264   0.512  15.784 -0.0497  0.2906  0.0381
19818W        W35712   3.758   9.135   4.094  0.0039  0.1692  0.3039
19819W        W35713   6.273  12.373   3.371  0.1439 -0.2586 -0.0754
19820W        W35714  13.888   0.430  14.105 -0.4701 -0.2688  0.1514
19821W        W35715  14.520  15.601   3.381 -0.2506  0.0409 -0.0213
19822W        W35716  15.272   2.213   3.684 -0.0323 -0.0172  0.2582
19823W        W35717   1.609  12.924   3.817 -0.1176 -0.0503  0.1849
19824W        W35718   5.669  16.253  15.485  0.0702  0.0519  0.0994
19825W        W35719   5.521   1.154  13.148  0.1186 -0.0291 -0.0325
19826W        W35720   9.748  13.201  14.170 -0.1402 -0.0450  0.1794
19827W        W35721  14.607  15.855  15.229  0.0211 -0.0974 -0.2675
19828W        W35722   6.515  11.624   1.007  0.0740  0.0366 -0.0290
19829W        W35723  15.039   5.784  13.170  0.0344 -0.1857  0.1178
19830W        W35724   9.168  14.453   5.808 -0.1047  0.2415  0.0117
19831W        W35725   2.272   6.754  11.486  0.1853  0.0728 -0.6003
19832W        W35726   4.587   7.528  11.415 -0.0046  0.2584  0.3197
19833W        W35727  15.884   0.975  12.929  0.1069  0.1083  0.1456
19834W        W35728   7.016   3.479  11.731  0.2007 -0.1723  0.0580
19835W        W35729  11.295   5.026   4.229  0.1113  0.1157 -0.2027
19836W        W35730  10.279   2.105   5.406 -0.0697  0.0136 -0.1967
19837W        W35731   9.583  10.667   0.190 -0.0058  0.2090 -0.0645
19838W        W35732   8.076  17.682  12.484 -0.0211 -0.0355  0.1422
19839W        W35733   1.878  14.776   2.619 -0.1422  0.2172  0.1088
19840W        W35734  14.481   3.076   5.147  0.3336 -0.0579 -0.0094
19841W        W35735   6.582   1.741   1.186  0.0528 -0.2542  0.3072
19842W        W35736  11.734  16.574   4.714  0.1230 -0.2426  0.1958
19843W        W35737   7.826  12.120   5.217  0.2208 -0.0883  0.0356
19844W        W35738   1.247   1.560  15.706 -0.3853 -0.0449  0.0822
19845W        W35739   4.004  11.399  11.886  0.1441  0.1057  0.1213
19846W        W35740  15.530   7.768   1.382 -0.1515  0.2047 -0.1497
19847W        W35741   7.547   5.918  16.428 -0.4342 -0.1158  0.0915
19848W        W35742  17.393  17.161   0.149 -0.0761 -0.2721  0.3863
19849W        W35743   6.420  16.278   2.349  0.1208 -0.1751 -0.2207
19850W        W35744   5.276  13.056   0.436  0.0788  0.1375  0.0515
19851W        W35745  12.866  12.972   5.210 -0.0580  0.0374  0.2265
19852W        W35746   2.856   7.528   3.849  0.1326 -0.1541 -0.1793
19853W        W35747  12.451   9.470  15.213 -0.2343  0.3336 -0.1919
19854W        W35748  14.957  10.621   0.054  0.0047 -0.2207 -0.1478
19855W        W35749   3.725   4.147   1.402 -0.1605  0.1744 -0.2452
19856W        W35750  12.935   8.413  13.951  0.1507  0.2100  0.1392
19857W        W35751   4.213   1.554  14.740 -0.1712 -0.2822  0.1906
19858W        W35752  15.575   5.960  14.028  0.0173 -0.0050 -0.2442
19859W        W35753   1.362   4.085  13.654 -0.0883 -0.2724 -0.3650
19860W        W35754  14.325   0.888   6.119  0.3306  0.2876 -0.2917
19861W        W35755  18.224   9.030   5.857 -0.2934  0.0107 -0.1511
19862W        W35756   6.088   6.105   4.011  0.0319  0.1037 -0.1240
19863W        W35757   4.722   5.110  15.090 -0.2258  0.1407 -0.4082
19864W        W35758  11.449  13.328   5.122 -0.2184 -0.0531 -0.4553
19865W        W35759  16.853  16.273  12.396  0.2373 -0.0542  0.1227
19866W        W35760   4.004   6.282   0.094 -0.1499  0.1258 -0.1004
19867W        W35761  15.880   1.185   3.663  0.0989 -0.1204 -0.4041
19868W        W35762   4.106   1.591   4.397  0.0153  0.1307 -0.0838
19869W        W35763   8.095  12.712  16.029 -0.2084 -0.2873 -0.1619
19870W        W35764   5.108   3.591  15.839 -0.0768  0.1692  0.0203
19871W        W35765  17.937   9.256   0.369  0.0258 -0.1090 -0.2425
19872W        W35766   9.056  14.044   1.052 -0.3255 -0.3772 -0.1932
19873W        W35767  11.007   1.033   3.627 -0.0325  0.0617  0.2245
19874W        W35768  17.487   7.651  14.805  0.1687  0.4779  0.0657
19875W        W35769  17.495   4.602  14.516  0.1445 -0.4829 -0.1786
19876W        W35770  17.244   3.266  16.241  0.2869  0.0030 -0.0475
19877W        W35771   5.753  13.445   6.309  0.0835 -0.0061 -0.1118
19878W        W35772  17.543  10.603  15.161 -0.3668  0.1037 -0.2271
19879W        W35773  12.646  13.637  11.467 -0.3017 -0.0734  0.2220
19880W        W35774  15.453   5.935  15.170 -0.1810 -0.0111  0.2263
19881W        W35775  11.413   1.471  15.694 -0.5434 -0.1601  0.1446
19882W        W35776  11.933  16.196  16.115  0.0950  0.1253 -0.0134
19883W        W35777   5.939   0.935   4.555  0.3071 -0.1491  0.0724
19884W        W35778   3.919   2.806   4.530 -0.3055 -0.1160  0.2547
19885W        W35779  11.616  10.885  14.353  0.0053 -0.1642 -0.1032
19886W        W35780  12.029  14.377   3.811 -0.0838 -0.0510  0.2608
19887W        W35781  10.368   6.355   5.416 -0.2106  0.1716  0.2444
19888W        W35782   7.673  13.550  14.720  0.0112 -0.1934 -0.0122
19889W        W35783   6.738   5.287  12.920 -0.3997  0.1614 -0.2138
19890W        W35784   6.927   4.961  12.554 -0.2664 -0.3408 -0.0222
19891W        W35785   5.802  11.353   3.633  0.3458  0.2133 -0.1314
19892W        W35786   7.062  11.814   4.464 -0.4170  0.0359 -0.1316
19893W        W35787   5.919   8.625   3.876 -0.5176  0.1870 -0.3146
19894W        W35788   6.884   2.081   2.443  0.1912 -0.1381 -0.0306
19895W        W35789  10.411  16.254  13.792 -0.2762  0.2562 -0.0084
19896W        W35790   8.943   7.752  12.813 -0.3570  0.0429 -0.0342
19897W        W35791   5.849   6.782  12.997 -0.1782 -0.1159 -0.2165
19898W        W35792  11.183   5.800  11.510 -0.0867 -0.3976 -0.1851
19899W        W35793  15.932   7.086  11.124 -0.1150  0.0027 -0.0743
19900W        W35794   7.959  12.208   6.226  0.0941  0.0646 -0.2756
19901W        W35795  16.412   2.202  14.978 -0.3172 -0.0582 -0.2612
19902W        W35796  10.237   0.858  14.446  0.1489  0.2460 -0.1188
19903W        W35797   0.005  10.034   2.910 -0.0261  0.0646 -0.1250
19904W        W35798   4.404   1.866   3.518  0.2019  0.0332  0.3384
19905W        W35799  11.620   3.574   2.858 -0.1525  0.0959  0.0776
19906W        W35800   1.581   6.324   6.115 -0.0652 -0.0079 -0.0520
19907W        W35801   1.373   2.118   0.012 -0.1853 -0.0499 -0.2385
19908W        W35802   6.178  14.344   1.300  0.1242 -0.2675 -0.1149
19909W        W35803   9.973  14.426   2.664  0.0099 -0.0921 -0.1250
19910W        W35804   3.861   7.717  12.030 -0.0975 -0.1617 -0.3136
19911W        W35805   9.299   8.441  12.115 -0.0687 -0.1378  0.1693
19912W        W35806  13.669   5.528   3.337  0.1557  0.0911 -0.0230
19913W        W35807   9.480  12.916   3.650  0.1026  0.0850 -0.0655
19914W        W35808  17.712   4.864  15.532 -0.3115  0.0697  0.2947
19915W        W35809   7.782  14.837   0.300 -0.1641  0.0858 -0.0018
19916W        W35810   0.949  15.222   3.090 -0.1743  0.1606 -0.1305
19917W        W35811   2.363   2.159   5.041 -0.1977  0.0483 -0.0115
19918W        W35812   8.632  15.960  14.006 -0.0274 -0.2546 -0.0898
19919W        W35813  12.397   7.297  11.720  0.0354  0.1091  0.0252
19920W        W35814   6.016  12.091  13.670  0.1911  0.3183  0.1856
19921W        W35815   7.150   5.067   4.114 -0.2428 -0.1183 -0.2724
19922W        W35816   8.131  14.532  15.829 -0.2473 -0.2658  0.0574
19923W        W35817  11.708   1.275  11.887 -0.0560  0.0783 -0.1656
19924W        W35818  10.930   5.883  13.885 -0.4496  0.0321 -0.1958
19925W        W35819   5.686   8.445  15.476  0.0554  0.0996 -0.0117
19926W        W35820  12.355   4.923  15.056  0.4102 -0.1753 -0.0174
19927W        W35821  14.893  10.834  15.628  0.2809 -0.0310 -0.0288
19928W        W35822  11.619   9.150  16.396  0.1167  0.1054 -0.2151
19929W        W35823   8.545   0.467  13.400 -0.0421  0.0601 -0.4547
19930W        W35824  14.361  11.564  14.423  0.0325  0.1420  0.0390
19931W        W35825   0.034   0.653   3.312  0.2069  0.1911 -0.0626
19932W        W35826   0.147  15.143   2.317  0.0944  0.3281  0.0369
19933W        W35827  18.187  11.296   2.393  0.1475 -0.2314 -0.0290
19934W        W35828   4.714  16.234  13.244  0.0534  0.0006  0.0804
19935W        W35829  16.040  16.849   3.230  0.1373 -0.0653  0.1571
19936W        W35830   4.571   4.886   3.870 -0.0871 -0.1215  0.4818
19937W        W35831  17.174   0.575   4.594  0.3503 -0.0887  0.0136
19938W        W35832   7.317  14.510  14.959  0.2048 -0.2372  0.1498
19939W        W35833  10.170  15.883  13.910  0.1629 -0.0360  0.3848
19940W        W35834  17.129  17.437   3.309 -0.0691  0.0171 -0.0646
19941W        W35835  10.576  11.048  11.525 -0.0361 -0.3831  0.0157
19942W        W35836   6.166  17.961   2.177  0.0591  0.0416  0.3160
19943W        W35837   1.086   3.790   1.516  0.4614  0.0409 -0.1444
19944W        W35838   7.931   1.746  14.046  0.4744  0.0896  0.0184
19945W        W35839  15.628   0.177  11.205 -0.3394  0.2918 -0.1853
19946W        W35840   9.737  12.118  15.116 -0.2819  0.0144 -0.1354
19947W        W35841   0.235   3.358   1.379 -0.2300  0.2192 -0.1776
19948W        W35842   1.048   2.157   3.320 -0.1530  0.1000 -0.0875
19949W        W35843   5.838   0.152   2.093 -0.3780  0.0244 -0.0772
19950W        W35844  10.857  14.169   5.329 -0.0367 -0.0114 -0.0161
19951W        W35845  11.278  16.440  15.452 -0.2943  0.2937  0.1649
19952W        W35846  12.412  13.861  14.203  0.5454 -0.0460  0.2061
19953W        W35847   2.945   4.962  14.734 -0.2428  0.1147 -0.4573
19954W        W35848   4.623  17.295  14.683  0.4318 -0.0765  0.0323
19955W        W35849  11.218   3.290   2.727  0.0429 -0.0170  0.2370
19956W        W35850   3.435   0.677  15.259  0.5849  0.1876  0.1210
19957W        W35851   7.286  15.988  16.049  0.3456 -0.2618 -0.1503
19958W        W35852   3.514  11.084  16.137  0.0357  0.1653  0.0029
19959W        W35853   4.070   6.617   1.415 -0.0840 -0.4213  0.0096
19960W        W35854   4.819  11.398   1.827 -0.0391 -0.1828  0.1222
19961W        W35855  10.879   7.260   0.532 -0.0169 -0.2342 -0.0718
19962W        W35856  16.349   1.240  13.051 -0.0793 -0.2223  0.0557
19963W        W35857   5.779   6.229   5.138  0.1186 -0.0439 -0.1111
19964W        W35858  12.076   0.576  13.172  0.1870 -0.0723 -0.1039
19965W        W35859  16.103   3.162   1.223  0.0671 -0.2310 -0.1953
19966W        W35860   1.921  17.093   5.751 -0.1428 -0.1783  0.1178
19967W        W35861   3.506  10.449  16.154  0.1050  0.0325 -0.2247
19968W        W35862   1.416   6.948   4.185  0.4475 -0.1372  0.0100
19969W        W35863  17.306  17.390   4.683 -0.2292  0.0249 -0.0960
19970W        W35864   6.010   7.022   4.175 -0.1499  0.0564 -0.3186
19971W        W35865   3.618   2.438  13.270 -0.0814  0.1354 -0.1354
19972W        W35866  11.290   0.782   4.972  0.0914  0.0004 -0.0726
19973W        W35867   2.660  10.228  16.245  0.1463 -0.1025 -0.1465
19974W        W35868  16.766  16.232   4.408  0.1770  0.0977  0.1633
19975W        W35869  15.634  12.822   5.454 -0.3042  0.1188 -0.1762
19976W        W35870   3.183  16.639   5.725  0.0237  0.1240  0.0373
19977W        W35871   7.450   0.822   2.593  0.0987  0.0138 -0.3494
19978W        W35872   6.913  17.781   3.163  0.0022 -0.2299  0.1025
19979W        W35873  15.009  11.303  15.761  0.1017 -0.1040 -0.1499
19980W        W35874  14.145   7.884   6.319 -0.0823 -0.1606 -0.1340
19981W        W35875  13.697  12.653  11.537 -0.1893 -0.0411  0.0129
19982W        W35876   9.476   9.786   0.675  0.1158 -0.3490  0.1112
19983W        W35877  11.576   1.870   2.920 -0.0094  0.0581 -0.1456
19984W        W35878   8.406   9.447   2.431  0.2441  0.1354  0.3706
19985W        W35879   9.271  18.196  13.822  0.1903 -0.2122 -0.4276
19986W        W35880   8.939   8.338   0.335 -0.1655 -0.1290  0.1855
19987W        W35881  13.370  16.199   5.459  0.1578 -0.0574  0.2073
19988W        W35882   2.806   8.805   3.486  0.3701  0.0278 -0.1865
19989W        W35883   1.691   0.614  11.784  0.0624 -0.1796  0.2080
19990W        W35884   8.382  13.702   3.368 -0.0907  0.2029 -0.0009
19991W        W35885  16.310  12.674   2.411  0.0150  0.0199  0.2161
19992W        W35886   1.828   3.584  14.263  0.0038  0.1826 -0.1695
19993W        W35887  11.443   7.881  12.155 -0.1654 -0.0985  0.1198
19994W        W35888   0.717   6.519  15.222  0.1533  0.2432  0.0603
19995W        W35889   9.161  11.257  16.137 -0.0312  0.0927 -0.1104
19996W        W35890  15.491   6.958   3.009  0.2201  0.0222  0.5512
19997W        W35891   3.776   7.995  12.859 -0.2565 -0.0220 -0.0889
19998W        W35892   1.889   0.178   2.134 -0.0338  0.0262  0.1298
19999W        W35893  14.058  10.094  14.678  0.2266 -0.2943 -0.0178
20000W        W35894  14.511   2.551   3.739 -0.0176 -0.3611 -0.1417
20001W        W35895  11.418   2.488  11.828  0.1479  0.0078  0.0462
20002W        W35896  13.932  16.167   3.815  0.0966 -0.0600  0.0643
20003W        W35897  15.330   0.939   4.887  0.0622  0.0116  0.1056
20004W        W35898   9.585   0.509   1.156 -0.0094  0.2759 -0.3632
20005W        W35899   8.966  11.928  16.231  0.0361 -0.0973 -0.1028
20006W        W35900   3.421   2.097   4.377 -0.2318 -0.2137 -0.1276
20007W        W35901  14.190   4.036   2.307 -0.0212 -0.0105  0.0198
20008W        W35902  14.258   9.917   4.287 -0.1925  0.0467  0.1241
20009W        W35903   4.537  16.962  11.557 -0.1045 -0.1016  0.0071
20010W        W35904   2.538   2.057   4.592  0.0765  0.4147 -0.1582
20011W        W35905  13.505  17.679   0.557  0.1423 -0.0948 -0.0077
20012W        W35906   6.446   2.986   5.049  0.0976 -0.2670 -0.1881
20013W        W35907   6.544   2.625   4.592 -0.2770  0.2670 -0.0341
20014W        W35908   7.920   0.801   3.563  0.1160  0.2008 -0.2214
20015W        W35909   1.219  15.080   5.377 -0.1198 -0.3227  0.0198
20016W        W35910  16.441   0.001   0.749 -0.4759  0.0191 -0.0055
20017W        W35911   0.406   5.747  11.935  0.2982 -0.2524  0.0388
20018W        W35912  15.108  14.170   2.247  0.1955 -0.0164  0.1970
20019W        W35913   0.294   0.328  13.416 -0.3855 -0.0372  0.1379
20020W        W35914  13.352  11.868   0.909 -0.2481  0.0490  0.0187
20021W        W35915   9.759  11.683  16.301 -0.3684  0.0475  0.0492
20022W        W35916   8.309   8.423  16.179 -0.0321  0.1060 -0.0424
20023W        W35917  10.765   9.809  16.324 -0.1746  0.2412  0.0167
20024W        W35918   5.070  15.597   6.144  0.1967 -0.0578 -0.0407
20025W        W35919   5.474   6.894   2.995 -0.1187 -0.2214  0.3526
20026W        W35920   3.783  13.878   3.597 -0.2010  0.1877 -0.0092
20027W        W35921  15.495  17.989  11.423  0.1915  0.0276  0.1470
20028W        W35922  16.376   4.173  14.663  0.0414 -0.3101 -0.0503
20029W        W35923   9.676  16.913   4.101  0.0363 -0.0090 -0.1003
20030W        W35924   3.305   0.767  13.344  0.1806  0.1810 -0.0726
20031W        W35925  12.285   6.878  13.337  0.0184 -0.4923  0.1165
20032W        W35926   6.651  15.419   3.393 -0.0632 -0.4527  0.0691
20033W        W35927  16.399   2.374  16.329  0.0253 -0.1010 -0.3424
20034W        W35928   1.740   1.647   5.023  0.0605 -0.0558  0.2219
20035W        W35929   5.586   3.192  15.628 -0.0470 -0.0439  0.0187
20036W        W35930  12.471  17.980  14.966  0.1027  0.3950 -0.2373
20037W        W35931   4.486   8.358   1.192 -0.0310 -0.0570  0.0262
20038W        W35932   6.485   1.991  12.566 -0.0462 -0.1864 -0.2853
20039W        W35933  14.151   6.591  15.637 -0.0178  0.0513  0.1435
20040W        W35934  12.604   7.392   2.484  0.1380  0.0043  0.2112
20041W        W35935   6.888   3.664  12.739 -0.0861  0.0742 -0.0044
20042W        W35936  11.946   3.497   0.002 -0.1027 -0.1712  0.1370
20043W        W35937   6.044   6.917   3.013 -0.2927 -0.0929  0.0730
20044W        W35938  11.954   1.120   5.088 -0.0753  0.2181 -0.2248
20045W        W35939   5.502  14.637   5.259  0.1729  0.2498  0.2112
20046W        W35940   9.984   0.510   1.507 -0.1797  0.1683  0.2083
20047W        W35941   9.027  15.033   4.448  0.0198 -0.0856 -0.1806
20048W        W35942  11.758  11.476  16.420  0.1594 -0.0064  0.1292
20049W        W35943  16.863  14.044  11.494 -0.2608 -0.0643  0.0348
20050W        W35944   4.884  18.141   3.066  0.2152 -0.0972 -0.0533
20051W        W35945   8.358  16.885   0.334  0.0074  0.0709  0.0506
20052W        W35946   3.747  16.607   3.700  0.2396  0.1457 -0.0897
20053W        W35947   8.417  12.462  11.250  0.0520 -0.0955  0.1117
20054W        W35948   5.065  11.534  15.762 -0.1549  0.0449  0.0585
20055W        W35949   7.310  16.287  12.418  0.0140 -0.0706  0.0458
20056W        W35950   8.869  13.813  13.224 -0.2196 -0.0374  0.0752
20057W        W35951   6.080   1.276   0.043  0.0661  0.1585  0.2202
20058W        W35952  14.252   7.778   2.528  0.0460  0.4002 -0.0201
20059W        W35953   3.426   3.449   2.596 -0.0923 -0.0228 -0.0122
20060W        W35954   4.486  10.759  14.893 -0.0129  0.0667  0.0596
20061W        W35955   1.987  10.806   4.063 -0.2610 -0.1562  0.1639
20062W        W35956   6.168   2.896   0.685 -0.0912  0.0388 -0.1186
20063W        W35957   6.858   7.492  12.935 -0.1273  0.0167  0.1895
20064W        W35958  17.989   0.963   2.063 -0.0869 -0.0308 -0.2324
20065W        W35959   3.186   7.409  11.976 -0.4440 -0.0197 -0.0438
20066W        W35960  15.365   4.958   4.853  0.0811  0.0820 -0.1524
20067W        W35961   4.750  12.892   0.959 -0.2265  0.3714 -0.1842
20068W        W35962   9.448  12.678   5.225 -0.4220 -0.0901 -0.0983
20069W        W35963   2.177   0.333   2.633  0.3994 -0.1486 -0.0359
20070W        W35964   8.039  16.647   5.522 -0.1101  0.1465 -0.2168
20071W        W35965  12.790  15.953  15.576 -0.1616 -0.1455 -0.0993
20072W        W35966  11.287   3.044   5.351 -0.1845  0.3084 -0.1855
20073W        W35967  12.589   0.479  13.053  0.3175  0.1399 -0.2578
20074W        W35968   3.133  11.916  12.976  0.1261  0.3489 -0.0852
20075W        W35969  13.339   4.763  13.379 -0.0144  0.1137  0.0770
20076W        W35970   6.617  17.597  15.541 -0.0639  0.4858  0.1344
20077W        W35971   5.823   9.695  14.000 -0.1896 -0.2005 -0.2408
20078W        W35972  15.691  10.350   1.582  0.0739 -0.0375  0.0210
20079W        W35973  14.285  16.048  16.052 -0.1793 -0.1309  0.1221
20080W        W35974  13.151  11.324   6.187  0.1595  0.2852 -0.1203
20081W        W35975   3.044   4.149   1.888 -0.3333  0.1966  0.0187
20082W        W35976   9.121   5.890  16.461 -0.2428 -0.1089 -0.1381
20083W        W35977  12.113  11.246  14.023 -0.0551  0.1590  0.0064
20084W        W35978  15.646   8.639   3.711 -0.1018  0.0787 -0.0906
20085W        W35979  10.264   7.017  15.338  0.3419  0.1728  0.2508
20086W        W35980  14.150  11.048  14.446 -0.0965 -0.2187 -0.1908
20087W        W35981  16.342  13.031  13.779 -0.3624 -0.2421  0.1361
20088W        W35982  12.715   0.355   1.708  0.1227 -0.1321 -0.0564
20089W        W35983   7.654   3.621  13.493 -0.0928 -0.1362 -0.1979
20090W        W35984  17.674   2.485   3.199 -0.0718 -0.0252  0.3191
20091W        W35985  11.163   4.760   3.799 -0.0464 -0.1396 -0.1635
20092W        W35986  16.851  15.385   1.974 -0.2564  0.1465  0.4186
20093W        W35987   8.114  17.492  12.053  0.0047  0.1530 -0.0673
20094W        W35988  16.127  13.190  11.991  0.0833 -0.1759  0.0195
20095W        W35989   5.079   0.245  13.866  0.0835  0.1871 -0.2106
20096W        W35990   0.215   5.669   0.181 -0.3233 -0.1286  0.0117
20097W        W35991   4.771  17.761  15.627  0.1067  0.2026 -0.1029
20098W        W35992   5.799   1.556  13.496 -0.0087 -0.0822  0.2041
20099W        W35993   6.287   6.743   0.837  0.2024  0.2282  0.1781
20100W        W35994   6.424   6.444  11.753 -0.0975 -0.3854  0.1551
20101W        W35995  13.229   9.782  14.268  0.0156  0.1469  0.1400
20102W        W35996  14.689   6.038  14.404  0.1311  0.1548  0.1632
20103W        W35997   7.303   9.305   0.448  0.0543 -0.2402 -0.5161
20104W        W35998   7.863  13.442   1.262 -0.2044  0.0678 -0.1763
20105W        W35999  10.964  11.197   0.641 -0.0172  0.0668 -0.1184
20106W        W36000   6.572   1.673  15.473 -0.2134 -0.3585 -0.0377
20107W        W36001   8.652   2.867   6.212  0.0228  0.0268  0.2103
20108W        W36002  12.097  17.914   1.330  0.2868 -0.0373  0.1426
20109W        W36003   2.427  10.090   6.410 -0.0057  0.1927  0.0356
20110W        W36004  15.096   9.906   0.617 -0.3327  0.0044  0.1114
20111W        W36005   0.854   4.488  15.984 -0.2222  0.1336 -0.3137
20112W        W36006  17.811  15.017  11.779  0.3427  0.2749  0.1526
20113W        W36007   5.654   8.409  14.896  0.2127 -0.0568 -0.0047
20114W        W36008  16.068   1.562   3.395 -0.0269  0.2347  0.2671
20115W        W36009  13.560  16.051  11.736 -0.0987  0.0371  0.1360
20116W        W36010   1.830  12.497  14.723  0.2506  0.0977 -0.0945
20117W        W36011  13.643   4.437  14.601  0.3336 -0.1406  0.0694
20118W        W36012  11.088  14.142   4.834 -0.2990  0.2379 -0.0675
20119W        W36013   3.666   2.823   3.322 -0.3718  0.0810  0.0936
20120W        W36014  10.852   3.732   1.945  0.2640  0.1454  0.5445
20121W        W36015   4.538  13.847  11.805  0.3144 -0.3332  0.0915
20122W        W36016  10.020  10.621   3.438 -0.4045  0.1484 -0.0069
20123W        W36017   4.275   9.690   4.667 -0.0716 -0.0998 -0.1130
20124W        W36018  14.135   5.455   2.866 -0.0368  0.2495 -0.0488
20125W        W36019  16.070  14.444  11.660  0.2588 -0.0397  0.2169
20126W        W36020   0.850  13.011   5.510  0.0914  0.0335 -0.1092
20127W        W36021  12.480  12.981  11.343  0.0518 -0.2451 -0.0127
20128W        W36022   2.596   4.913  16.359  0.0056  0.2279 -0.2294
20129W        W36023   1.126   6.147   5.890 -0.2605  0.0646  0.1458
20130W        W36024   5.860  13.839   2.675  0.1702 -0.0586 -0.0595
20131W        W36025   9.963   8.710   2.114  0.0619 -0.0563 -0.3009
20132W        W36026   2.024   4.464   1.291  0.0025  0.0625  0.0015
20133W        W36027   2.791   3.580   0.039 -0.0194 -0.0797 -0.2068
20134W        W36028  16.136   3.534   4.240  0.0507  0.0763  0.3155
20135W        W36029  12.775   6.287   1.284  0.1315  0.1219 -0.4799
20136W        W36030  14.620   5.700  14.847  0.1068 -0.0110  0.0146
20137W        W36031   9.591  15.080   3.742  0.0560 -0.2280  0.4539
20138W        W36032   1.004   8.718   4.042 -0.1734  0.2718  0.2397
20139W        W36033   6.669   0.388  11.527  0.1190 -0.1543 -0.2701
20140W        W36034  11.024  16.758   5.212  0.1953 -0.3387  0.1513
20141W        W36035  16.351   1.478  11.404  0.0069 -0.2350 -0.0875
20142W        W36036  17.269  15.218   0.741  0.1086  0.1365  0.1883
20143W        W36037  12.217   3.107  16.269 -0.1006 -0.0884 -0.0053
20144W        W36038   6.921   1.347  14.421 -0.0129 -0.1904  0.1843
20145W        W36039   8.585   7.473   3.915  0.2492  0.4799 -0.2195
20146W        W36040   8.315   8.187   1.033 -0.1057 -0.0099 -0.0914
20147W        W36041   2.742  14.004  16.086 -0.3430  0.2310  0.1260
20148W        W36042  13.624  15.932   3.490  0.0456 -0.0322  0.2184
20149W        W36043  17.502  12.372   3.443  0.3362 -0.1956 -0.1590
20150W        W36044   7.174   3.918  15.686 -0.0094  0.2355  0.2931
20151W        W36045   4.522  12.660  10.745 -0.2085 -0.0548  0.0943
20152W        W36046   6.486   4.243   1.607 -0.0232 -0.1561 -0.1427
20153W        W36047  12.911   1.452   3.911  0.3099 -0.2084  0.0584
20154W        W36048  13.370   8.580   1.944 -0.1388 -0.2781 -0.1046
20155W        W36049  11.146   1.410   1.661  0.0615 -0.1295 -0.2643
20156W        W36050  13.731   9.104  15.246 -0.0239  0.0363 -0.0700
20157W        W36051   9.363  10.010  15.898 -0.0036 -0.2181 -0.0054
20158W        W36052   0.297   8.659   2.713  0.0894 -0.0761  0.0599
20159W        W36053  12.069   6.303  16.430 -0.1000  0.1154 -0.1211
20160W        W36054  14.770  12.769   3.920  0.0452  0.1444 -0.0108
20161W        W36055   8.631  17.262   0.886 -0.0150  0.2256  0.0606
20162W        W36056   0.728  17.406  13.517 -0.0951  0.1595  0.1994
20163W        W36057  14.904  10.738  15.100  0.1025  0.3693 -0.1488
20164W        W36058  11.297   7.759   4.231 -0.0426 -0.1973  0.0764
20165W        W36059  17.330   6.355  14.987 -0.1056 -0.1378  0.2112
20166W        W36060   4.764  12.072  14.846  0.0138  0.1274 -0.1599
20167W        W36061  13.852   6.693  13.536 -0.3336  0.2775  0.2814
20168W        W36062   0.684  15.644   4.319 -0.2476 -0.2367 -0.1731
20169W        W36063  13.042  11.721  11.786  0.2319 -0.0765  0.4100
20170W        W36064  10.383   7.927   2.240 -0.0349  0.0722  0.1571
20171W        W36065   7.525  12.128  13.895  0.0169 -0.0459  0.3402
20172W        W36066  17.993   8.006   5.882 -0.0113  0.1579  0.0339
20173W        W36067   1.998  10.712  12.584 -0.0529  0.1252 -0.3371
20174W        W36068  10.468   5.846   1.044 -0.1384 -0.0447  0.0333
20175W        W36069   1.591   8.058  14.469 -0.1894  0.2209  0.1041
20176W        W36070   4.268   9.711   5.367 -0.0275  0.2160 -0.0927
20177W        W36071   3.286  12.522   5.946  0.1165  0.0251  0.1430
20178W        W36072  12.212  11.213   3.987 -0.4030 -0.0724  0.1561
20179W        W36073  17.451   4.819   1.192 -0.0788 -0.2554 -0.0761
20180W        W36074  13.799   2.799  15.657 -0.0994  0.0089  0.3855
20181W        W36075  10.361   8.681  13.132  0.2531  0.2410 -0.2614
20182W        W36076  16.230  13.946   3.975 -0.3135 -0.1779 -0.1851
20183W        W36077  13.593  16.458  12.203 -0.0569  0.1037  0.0173
20184W        W36078  13.826  18.119  15.777 -0.1399 -0.0125 -0.0410
20185W        W36079   4.749   0.583  11.346  0.0470 -0.0709 -0.2957
20186W        W36080  10.770  10.218   2.235 -0.0607 -0.0967 -0.1073
20187W        W36081  12.707   0.649   3.224  0.1103  0.0634  0.1957
20188W        W36082   9.932   1.546   0.469  0.1607 -0.1388 -0.1094
20189W        W36083   3.835   3.638   3.961 -0.0170 -0.0824 -0.0889
20190W        W36084  13.082   5.090  13.053  0.2036  0.4315  0.2922
20191W        W36085  12.897  15.746  12.831  0.0670 -0.2112  0.0494
20192W        W36086   9.673   0.129  14.319 -0.0086 -0.0494 -0.4008
20193W        W36087  11.249   5.304  13.099 -0.1088 -0.0741 -0.2843
20194W        W36088   7.788   9.094   0.317  0.0484  0.0177  0.0201
20195W        W36089   8.542   7.892  13.377  0.0890 -0.2658 -0.2478
20196W        W36090   9.592   9.608   5.333  0.0920 -0.1853 -0.1315
20197W        W36091   8.155   4.816   3.470  0.0233 -0.1959 -0.0505
20198W        W36092  13.321  14.928   0.765  0.1509 -0.0608  0.2157
20199W        W36093   4.526   1.257   2.303 -0.0482  0.1429 -0.2080
20200W        W36094   3.485   1.944   2.369  0.0580  0.0725  0.0487
20201W        W36095   3.346  13.162  12.162  0.2434  0.0509 -0.0329
20202W        W36096  16.297   0.866   0.336 -0.2933  0.0637  0.0997
20203W        W36097  17.817  13.521   4.217  0.2577 -0.2716  0.1728
20204W        W36098  17.995   6.947   2.848  0.3275 -0.0534 -0.0592
20205W        W36099  11.308   2.616  13.739  0.1660  0.1782 -0.2491
20206W        W36100  12.832   0.606   0.079  0.2222 -0.0428 -0.3044
20207W        W36101   9.844  16.948   0.032 -0.1128 -0.0513 -0.2586
20208W        W36102  17.828   0.808   2.967 -0.0334 -0.1345  0.0491
20209W        W36103   3.117   1.803   3.573 -0.0821 -0.0554 -0.0036
20210W        W36104  14.677   6.224  11.733 -0.0839  0.0475  0.1930
20211W        W36105   9.626   8.336   3.088  0.1048  0.2596 -0.2854
20212W        W36106  10.846   3.550  15.420 -0.1675 -0.0859  0.3166
20213W        W36107   8.059   6.953  11.901  0.0725  0.0621 -0.1323
20214W        W36108   3.953  12.626   4.633 -0.0120 -0.2457 -0.3241
20215W        W36109  13.779   9.852   0.503 -0.2896  0.1634  0.2813
20216W        W36110   4.220  15.430   4.231  0.0390  0.1378  0.0142
20217W        W36111   8.885   6.600  14.202 -0.0484 -0.1145 -0.1317
20218W        W36112   2.812  13.424   3.342 -0.0401  0.0772  0.2010
20219W        W36113   5.183  13.398  16.440 -0.0250 -0.1611 -0.0912
20220W        W36114  15.841   8.262   0.079  0.0003  0.1261 -0.0970
20221W        W36115   3.962   4.993  10.897  0.0208  0.0243  0.0891
20222W        W36116   2.741  10.976   3.068 -0.0554  0.0190 -0.1427
20223W        W36117   2.156  12.120  14.892 -0.0505 -0.2038 -0.1147
20224W        W36118  11.478  16.542   2.832  0.0557  0.2553 -0.0761
20225W        W36119  11.071   7.499   1.168  0.0285 -0.1368 -0.1059
20226W        W36120   5.245  12.011   4.014  0.1967 -0.1995 -0.0860
20227W        W36121  13.525   3.990   1.587  0.5387  0.2855  0.1344
20228W        W36122   2.734   2.388  14.470 -0.2790  0.0693 -0.2427
20229W        W36123   8.955  12.002  12.009  0.0970 -0.2407  0.3516
20230W        W36124   1.902   1.602  12.516  0.4010 -0.0928 -0.1709
20231W        W36125   1.527  16.667   0.417  0.3100 -0.1703  0.1283
20232W        W36126   0.010  16.412   1.703 -0.4245  0.0619  0.1278
20233W        W36127   7.866   7.954   9.985  0.0449 -0.2435 -0.0046
20234W        W36128   1.786   9.979   1.336 -0.3771  0.1242 -0.2666
20235W        W36129   9.259   5.541  12.313  0.3367  0.0809  0.2025
20236W        W36130   4.597  12.443  14.029 -0.0043  0.2101 -0.2748
20237W        W36131  15.838  15.890  14.895 -0.1344  0.2628  0.1004
20238W        W36132  17.000   6.307  15.323  0.3352  0.0380 -0.4843
20239W        W36133  11.179   2.261   2.750  0.0450 -0.2836 -0.1050
20240W        W36134  13.196   2.781   2.312 -0.0741  0.1717  0.1039
20241W        W36135   5.347   8.601  14.093 -0.0823  0.0508  0.0370
20242W        W36136  12.452   8.263   5.279  0.1580 -0.0007  0.0818
20243W        W36137  13.074   0.618  12.277  0.0462  0.2657  0.1934
20244W        W36138  10.598  12.947   1.514  0.0788  0.4591  0.3399
20245W        W36139  10.999  14.744   5.341  0.2111  0.0690 -0.0525
20246W        W36140   7.291   3.591  10.108 -0.0500  0.0122 -0.1997
20247W        W36141  10.558   9.923   3.218  0.2713 -0.1661 -0.1896
20248W        W36142  16.319  17.853   0.370  0.2999 -0.2284 -0.0108
20249W        W36143  14.235   2.368  12.018 -0.3372  0.0878  0.3324
20250W        W36144   6.654  10.272  11.274  0.0267 -0.0715 -0.3093
20251W        W36145   2.894   6.984  11.880 -0.0469 -0.0651  0.1900
20252W        W36146   4.128   1.169   4.007  0.3178 -0.1106 -0.0356
20253W        W36147  17.774  12.864   5.839 -0.0260 -0.0323 -0.0717
20254W        W36148   8.732   2.744   0.091 -0.1723 -0.0570 -0.1450
20255W        W36149   4.522  12.662   2.628 -0.0696  0.0547  0.1979
20256W        W36150  16.177  10.795   3.227  0.0462 -0.3132  0.3242
20257W        W36151   6.412  10.620  11.514 -0.1644 -0.1290 -0.0712
20258W        W36152  17.718   4.489  11.046 -0.3182  0.0868  0.1445
20259W        W36153   9.794   3.109  12.027  0.1382  0.4067 -0.2253
20260W        W36154  14.935   2.607   4.000  0.0558  0.1227 -0.2810
20261W        W36155  16.566   8.530   3.660 -0.2573 -0.1026  0.2099
20262W        W36156   6.939   1.750   1.556  0.2829  0.0719 -0.2601
20263W        W36157  14.122  15.868  10.418  0.1137  0.2439 -0.0533
20264W        W36158   1.389   3.012  12.419 -0.1478 -0.2980 -0.1720
20265W        W36159  15.001   7.903  11.468 -0.1840 -0.4003 -0.2263
20266W        W36160  12.561   1.185  14.700  0.2102  0.1996 -0.3755
20267W        W36161   3.954   8.936   0.036 -0.1420 -0.0073  0.2479
20268W        W36162   5.550  13.723   0.219  0.0675  0.1473  0.0690
20269W        W36163   0.147   2.949  13.771  0.1975  0.0141  0.2441
20270W        W36164  17.293  14.715   0.970 -0.0265  0.0269 -0.2784
20271W        W36165   1.415   1.895   4.610  0.0985 -0.0839 -0.0383
20272W        W36166   6.552   8.413  11.479 -0.0156 -0.1880  0.2087
20273W        W36167  10.098  11.829   3.743  0.0641 -0.3749 -0.2888
20274W        W36168  15.459  16.311   0.646  0.0960  0.0506  0.1426
20275W        W36169   5.713  13.493   3.015  0.3857 -0.0570 -0.0793
20276W        W36170   8.875  11.168   3.469  0.2420 -0.2110  0.1138
20277W        W36171  14.601   6.545  12.685 -0.3454  0.2080 -0.0028
20278W        W36172   4.445  17.913  13.318 -0.1606  0.2041  0.0797
20279W        W36173   3.313  13.983  12.844 -0.1734 -0.1358 -0.0729
20280W        W36174   5.854   7.025   2.534 -0.2637  0.2740  0.1092
20281W        W36175   8.197   7.678  13.728  0.1685 -0.1017 -0.1197
20282W        W36176  10.355  18.060  12.057  0.2291 -0.2910 -0.0035
20283W        W36177  14.950   1.999   1.879  0.0954 -0.1263  0.2936
20284W        W36178   6.592  17.485   2.856 -0.5427  0.0642 -0.1065
20285W        W36179   7.372   6.600  11.247 -0.0853 -0.1572 -0.0504
20286W        W36180   1.207   2.629   0.674 -0.0047  0.1339  0.0137
20287W        W36181   6.070  12.544  16.419 -0.0842  0.0589 -0.1761
20288W        W36182   5.137   5.938  11.271  0.1997 -0.3911  0.0127
20289W        W36183  12.052   8.591  15.577 -0.1039 -0.2489 -0.0541
20290W        W36184  12.551   9.496  12.156 -0.1151  0.0310 -0.0866
20291W        W36185   1.740   9.465  14.444 -0.0570 -0.2622  0.2315
20292W        W36186  14.315  17.039   4.202 -0.1015 -0.1341 -0.1113
20293W        W36187  15.190   5.666  14.762 -0.0119 -0.0032 -0.0578
20294W        W36188   6.776   6.007  13.433 -0.0566 -0.0947 -0.0967
20295W        W36189  14.229   2.980  11.510  0.2824  0.0295 -0.0352
20296W        W36190  13.814   5.068  11.987  0.2807  0.1822 -0.3902
20297W        W36191  12.685  14.604  15.107  0.0271  0.2347  0.0773
20298W        W36192   1.207  11.380  15.609  0.0904  0.0043 -0.1610
20299W        W36193   6.780  12.884   0.509  0.0710  0.0571  0.1492
20300W        W36194   8.181  18.033   1.543 -0.0147 -0.0584  0.2087
20301W        W36195   4.417   2.326  15.832  0.1489  0.0493 -0.0358
20302W        W36196   3.561   1.521   2.585 -0.2710 -0.1959 -0.1116
20303W        W36197   0.913   3.716   3.835  0.2513  0.0792 -0.1096
20304W        W36198   1.432   8.411  11.800  0.3255  0.0593 -0.3403
20305W        W36199   0.545   4.225  16.324 -0.1526 -0.1453 -0.1574
20306W        W36200  10.567  13.893   1.589  0.1016 -0.0739 -0.1836
20307W        W36201  11.262   1.066  11.847 -0.1018  0.0359 -0.0208
20308W        W36202   0.789  15.655  16.336 -0.1345 -0.0152  0.0092
20309W        W36203   3.086   2.242  14.175 -0.1127 -0.1017  0.0219
20310W        W36204  12.450   5.603   5.546 -0.0571 -0.0246  0.2103
20311W        W36205  13.976   3.459  14.203  0.2248  0.2294  0.0239
20312W        W36206  16.841  11.711  14.857 -0.1455 -0.1335 -0.1219
20313W        W36207  12.494  17.054   0.315  0.3513 -0.3228  0.1152
20314W        W36208  10.233   6.891  13.236 -0.1132  0.0425 -0.1976
20315W        W36209  16.301   8.240   1.607  0.0527  0.2007 -0.0300
20316W        W36210   8.916   6.176  12.605  0.1879  0.0197 -0.0875
20317W        W36211  15.884   1.123   4.192 -0.1604 -0.0817 -0.2413
20318W        W36212   6.978  14.171  11.463  0.0237 -0.2057  0.0187
20319W        W36213  11.821   6.687   1.163  0.0816 -0.0690  0.0504
20320W        W36214   4.504   9.076   2.784  0.0744 -0.0538  0.0227
20321W        W36215   1.195   8.306   4.922  0.0743 -0.0738 -0.3553
20322W        W36216  15.980   1.930   0.042 -0.0504  0.0350  0.1900
20323W        W36217  10.010   3.998   3.528  0.1946  0.0819  0.1493
20324W        W36218  16.248   9.335  15.420 -0.0976 -0.1338 -0.1571
20325W        W36219   2.202  15.359   3.622  0.0672  0.0463  0.2409
20326W        W36220   5.095  10.886   1.064 -0.1818  0.0380  0.0727
20327W        W36221  15.288   6.983   1.816 -0.0992  0.0476  0.1743
20328W        W36222  11.220   8.618   9.677  0.0412 -0.0239  0.0346
20329W        W36223   6.134   4.016   1.968  0.0949 -0.2488  0.1726
20330W        W36224  17.009   6.675  10.572  0.1562  0.3679  0.1357
20331W        W36225  15.296   3.994  11.152 -0.1669  0.0206  0.0980
20332W        W36226   6.437   8.151   4.686 -0.0391 -0.1034 -0.1073
20333W        W36227   3.620  17.061   1.228  0.0598 -0.0140  0.2477
20334W        W36228   0.916   7.689  12.793  0.0434 -0.0451 -0.2545
20335W        W36229   6.065  10.660   0.011 -0.0684 -0.1501  0.1655
20336W        W36230   1.097   6.058   1.059 -0.0101  0.0295  0.3361
20337W        W36231   0.899   0.565   0.762  0.2277  0.3385  0.0958
20338W        W36232  13.065   4.330  15.048  0.4881 -0.0609 -0.0799
20339W        W36233  16.757   6.561   3.278  0.0325  0.2827 -0.3026
20340W        W36234  10.227  17.095   3.975 -0.2819  0.0448  0.0143
20341W        W36235   9.456  17.398   0.505  0.3034 -0.0516 -0.0710
20342W        W36236   2.841   6.356   5.691 -0.3417 -0.0593 -0.1953
20343W        W36237  17.512   9.640   2.891 -0.0573 -0.1217  0.0150
20344W        W36238  10.918   5.155   0.577  0.2469  0.0653 -0.1253
20345W        W36239   1.900   9.593  11.810 -0.2278  0.1678  0.3189
20346W        W36240   2.811   6.652  12.310 -0.2212 -0.0578 -0.3298
20347W        W36241   0.819   7.500  13.615 -0.1983  0.0645  0.2245
20348W        W36242  10.141  11.913   0.189  0.1017 -0.1201 -0.1675
20349W        W36243  12.162  10.328  10.209 -0.0916  0.1023 -0.2496
20350W        W36244  17.320   9.059  12.169 -0.1207  0.0330  0.0748
20351W        W36245   8.942  17.019  13.323  0.2878 -0.0688 -0.1874
20352W        W36246   2.408   4.384  15.245 -0.1675 -0.0225  0.0428
20353W        W36247  15.326  15.507  11.516  0.5428  0.0588 -0.0692
20354W        W36248   3.948   5.448  16.295 -0.0867  0.4952  0.0109
20355W        W36249   6.725  16.223   1.329 -0.1724 -0.0557 -0.2059
20356W        W36250  14.905   4.484   1.575 -0.3585 -0.0406 -0.2086
20357W        W36251   7.920   4.143   0.628 -0.2749  0.2285  0.0345
20358W        W36252   9.725  17.192   5.180  0.3336  0.0910  0.1060
20359W        W36253   0.301   7.384   5.238  0.3839  0.0385 -0.1033
20360W        W36254   5.806   0.993   1.864 -0.1508 -0.1885  0.1047
20361W        W36255   9.953  10.962   3.069 -0.0696  0.3176  0.0587
20362W        W36256   1.681   5.517  13.989 -0.3178 -0.1244  0.0162
20363W        W36257  10.568  16.980  14.357  0.4533 -0.2876  0.3366
20364W        W36258   3.093  10.974   3.921 -0.0277 -0.0465 -0.2227
20365W        W36259   3.542  16.248  13.169 -0.3053 -0.1122 -0.0723
20366W        W36260   0.450  17.194  14.643 -0.1996 -0.0518  0.1682
20367W        W36261  11.485   9.112  12.504  0.2582 -0.1471 -0.0267
20368W        W36262  14.944  15.974  14.926 -0.0277 -0.0356  0.0952
20369W        W36263  17.177  11.965   4.404 -0.2706  0.5351  0.1240
20370W        W36264  10.715   5.114  13.309 -0.1053  0.0659  0.3427
20371W        W36265  13.799   9.005  13.204 -0.4257  0.2635 -0.1793
20372W        W36266   8.115  11.371   0.804  0.0297  0.0340 -0.2211
20373W        W36267  17.259  12.431  12.888  0.2665 -0.2113 -0.0115
20374W        W36268   8.375   9.399   4.054  0.1460 -0.3823 -0.2775
20375W        W36269   4.398  16.054  12.912  0.0186  0.2386 -0.1880
20376W        W36270  14.113  11.980   5.065  0.2045 -0.3287 -0.0396
20377W        W36271  15.401   8.796  15.421 -0.1356 -0.4015 -0.2239
20378W        W36272  17.780  15.654   2.021  0.0325  0.3630 -0.2649
20379W        W36273   3.667  10.856  14.153  0.0896 -0.1362  0.0055
20380W        W36274  10.215   0.040  14.064 -0.1461  0.1587  0.2588
20381W        W36275  14.782   1.594  14.102  0.0111 -0.3390  0.1237
20382W        W36276  10.142  16.273  13.366  0.2636 -0.3521 -0.3207
20383W        W36277   0.326  15.264  14.293  0.0035  0.3099  0.2531
20384W        W36278  10.857  10.318   3.985 -0.0147 -0.0620  0.1646
20385W        W36279  12.924  13.464   5.318  0.0032  0.3422  0.0220
20386W        W36280   2.581  10.515   2.984 -0.2111 -0.0593 -0.1704
20387W        W36281  17.976  17.161  10.502  0.1178  0.0493  0.3010
20388W        W36282  11.050   0.335  12.873  0.0953  0.2057  0.0918
20389W        W36283   5.688  15.736   3.004 -0.3535 -0.0061 -0.3739
20390W        W36284   9.800   2.258  15.152 -0.0631  0.0176 -0.1257
20391W        W36285   8.546  12.204  15.557  0.1144  0.2145  0.0264
20392W        W36286   2.492   6.627   5.416 -0.2057 -0.2125 -0.0485
20393W        W36287  15.436  10.998  15.544 -0.1948 -0.1649 -0.1314
20394W        W36288   7.318  11.984  15.387  0.2432 -0.0865  0.0358
20395W        W36289   9.948   8.587  12.835 -0.0994  0.0205  0.0518
20396W        W36290  13.490  11.428   1.795  0.2019 -0.0534 -0.0280
20397W        W36291  10.121   9.811   2.262  0.1337  0.1028  0.0897
20398W        W36292   9.924   9.765  11.067  0.1717  0.2768  0.2324
20399W        W36293   8.388  14.746  13.314 -0.4392 -0.0652  0.0992
20400W        W36294  14.063   3.943  11.666  0.2083  0.2145 -0.1345
20401W        W36295  11.020   8.546   0.401 -0.0590  0.1123  0.1256
20402W        W36296  10.029   8.809   1.148  0.0300  0.0543  0.2123
20403W        W36297   9.598   4.627   3.106  0.0007 -0.4142 -0.0681
20404W        W36298  11.978  17.200   2.709 -0.2936 -0.0838  0.2138
20405W        W36299   2.645  11.509   5.089 -0.0157  0.4444 -0.2994
20406W        W36300  15.429  11.830  13.223 -0.0309  0.0108 -0.0971
20407W        W36301  17.142  16.560  14.343  0.1521 -0.0733  0.0107
20408W        W36302  18.125   9.865  14.777  0.1577  0.0784  0.2755
20409W        W36303   8.778  10.401   2.157 -0.0701  0.0067  0.0879
20410W        W36304   2.452  11.305  14.093 -0.0671 -0.1722  0.0065
20411W        W36305   9.524  12.416  14.478  0.1283  0.1621 -0.0093
20412W        W36306   4.072   2.999  14.770  0.1714  0.2563  0.1311
20413W        W36307   9.745   7.568  12.198  0.2229 -0.3028 -0.2332
20414W        W36308   8.032  10.006   3.806 -0.0888 -0.1155  0.1025
20415W        W36309   0.320   9.184  16.063  0.1014 -0.1382  0.1123
20416W        W36310   6.103  17.757   0.699 -0.1989 -0.2128 -0.0063
20417W        W36311   2.826   3.961   0.834  0.0293 -0.1369  0.2009
20418W        W36312   8.396   7.143  16.233  0.1749 -0.1488 -0.0693
20419W        W36313   3.147   9.070   2.676  0.1285 -0.3142 -0.1197
20420W        W36314  10.753   2.339   3.075  0.1697 -0.0513  0.0005
20421W        W36315   5.551   6.353   3.865 -0.1526  0.0783  0.1148
20422W        W36316  14.869   4.436   2.289 -0.3311  0.0813 -0.0296
20423W        W36317   6.440  16.164   4.013 -0.1044  0.2299 -0.1738
20424W        W36318   0.164   8.993  15.580 -0.1074  0.0219 -0.2273
20425W        W36319  12.197  17.089   1.720  0.1957  0.2546  0.0125
20426W        W36320   7.154  11.467  14.448  0.1892 -0.0996  0.2385
20427W        W36321  14.567  16.120   5.114  0.0066  0.0741 -0.0057
20428W        W36322  11.042  14.203  12.146 -0.1346  0.1190  0.1179
20429W        W36323   4.325   0.668   0.079 -0.0738 -0.2819  0.1658
20430W        W36324  14.095   8.630  13.010  0.3501  0.1330  0.1763
20431W        W36325  14.036  10.060  13.380  0.0225  0.0269 -0.1269
20432W        W36326   1.505   5.309  11.205  0.0378  0.1742 -0.0234
20433W        W36327   7.040   4.321   2.127  0.1390  0.0392 -0.4309
20434W        W36328   8.469  16.494   1.469 -0.1021 -0.0312  0.0198
20435W        W36329   8.560  13.459  11.879  0.1537 -0.2650  0.0710
20436W        W36330  16.246  15.075   2.323  0.1252 -0.0401  0.1882
20437W        W36331  13.105  17.740   5.114 -0.0198 -0.0717  0.1296
20438W        W36332   8.478  15.553   0.417 -0.1378  0.0196 -0.0809
20439W        W36333  16.098   3.443  12.611 -0.1098  0.1677  0.3387
20440W        W36334   1.499  11.152   5.301  0.5415 -0.2259 -0.0577
20441W        W36335   8.486   1.349  14.509 -0.3441  0.0706 -0.1649
20442W        W36336   5.521   0.822   4.167  0.0256 -0.1812 -0.0226
20443W        W36337   0.130   7.685   3.285  0.0142 -0.1636  0.1716
20444W        W36338  12.704  16.754   5.044 -0.0876 -0.1043  0.1151
20445W        W36339   1.922  14.710   0.280  0.0902  0.4178  0.0309
20446W        W36340   3.741   7.249  15.910  0.2350 -0.0454  0.1464
20447W        W36341   0.790  15.132  15.052 -0.3298  0.1848  0.1243
20448W        W36342   5.030  17.051  14.616 -0.2322 -0.0390 -0.2811
20449W        W36343   5.367  13.754   2.523 -0.0218  0.0543  0.0824
20450W        W36344  16.367   4.380   3.119  0.3237 -0.0229  0.1682
20451W        W36345   5.677  17.783   2.923  0.1526  0.1261  0.0599
20452W        W36346   0.432   0.990   0.295  0.1380 -0.3340 -0.2881
20453W        W36347  14.576   7.417  15.894  0.3072 -0.0418  0.0082
20454W        W36348   9.229   6.256   5.290  0.0798 -0.1021  0.2071
20455W        W36349   4.305  13.693   3.425  0.0320 -0.2665  0.3571
20456W        W36350   9.859  17.350  16.065 -0.4069  0.0108  0.2185
20457W        W36351  17.975   2.956  13.989  0.1667  0.1959  0.0122
20458W        W36352   2.866  10.308   2.397 -0.4482 -0.1165 -0.3384
20459W        W36353  17.279   7.128  15.477 -0.2011 -0.5144 -0.0997
20460W        W36354  14.232  17.544   3.311  0.0379 -0.2465 -0.0677
20461W        W36355  11.817  12.518   5.089 -0.1855  0.2812 -0.0052
20462W        W36356   7.451   4.187   3.759 -0.1156 -0.1116 -0.1461
20463W        W36357  16.985  12.516  13.492 -0.0026  0.1593  0.0480
20464W        W36358  10.068   9.952  13.951  0.2006  0.0365  0.2473
20465W        W36359  15.009   6.511  16.064  0.0481 -0.3587  0.2150
20466W        W36360   1.636  17.746   0.342  0.0584 -0.2744  0.1519
20467W        W36361  16.262  11.073  13.886  0.1723 -0.0640 -0.1953
20468W        W36362   1.947   1.443   2.834  0.0075  0.2017 -0.0340
20469W        W36363   8.192   7.188   3.633 -0.0927 -0.2015  0.0781
20470W        W36364   8.224  14.617  15.280  0.0191  0.0947  0.3076
20471W        W36365  10.543   0.507  15.256  0.0831 -0.1434 -0.1068
20472W        W36366  17.100  16.202  11.959  0.3007  0.1294  0.3082
20473W        W36367  15.916  12.295  12.604  0.2450  0.1425 -0.2055
20474W        W36368   5.884   3.011   5.208 -0.1888 -0.0517  0.1088
20475W        W36369  13.717  11.855   2.372  0.2503  0.0041 -0.0277
20476W        W36370  10.872   1.790  11.912  0.0171 -0.1066  0.1041
20477W        W36371   0.412   1.645   2.129 -0.0481  0.1512 -0.0910
20478W        W36372  13.942   1.310   4.015 -0.1245 -0.4616  0.1003
20479W        W36373  13.479   7.898   3.981 -0.3059 -0.2419 -0.2236
20480W        W36374  15.111  14.887   3.333 -0.0024 -0.2246 -0.0624
20481W        W36375   5.321  15.442  14.837  0.1703 -0.1400 -0.0370
20482W        W36376   4.562  10.447   5.118 -0.1383 -0.1583  0.1252
20483W        W36377  11.931  10.293  15.265 -0.3031 -0.2166 -0.0871
20484W        W36378  13.997   7.990  11.987  0.0989  0.0930  0.2300
20485W        W36379  11.490   0.301  12.497 -0.0332  0.2262  0.1486
20486W        W36380   6.212   4.877   4.560  0.1316 -0.2199  0.4238
20487W        W36381  12.938   1.565  13.853  0.3386  0.1713 -0.0772
20488W        W36382  18.151   8.180  15.252 -0.2705  0.3302  0.0265
20489W        W36383   9.152   3.779  11.988  0.0656 -0.0113 -0.1830
20490W        W36384   8.357  14.496   5.053 -0.0379  0.0708  0.1622
20491W        W36385   2.359   6.150  12.933 -0.3512 -0.0340  0.3013
20492W        W36386   7.876   8.103  14.848  0.1126  0.1006  0.1888
20493W        W36387  11.839  11.975  13.628 -0.1872 -0.3522  0.2597
20494W        W36388   7.701   7.378   4.710 -0.1261  0.1854 -0.1417
20495W        W36389   3.394  11.624  12.392  0.2084 -0.1525  0.2264
20496W        W36390  14.646  12.737   2.556 -0.0112  0.1395  0.2007
20497W        W36391   6.699  15.375   2.130 -0.0084 -0.1751  0.0861
20498W        W36392   9.782  10.047  11.468  0.2225  0.0688  0.2964
20499W        W36393   9.000   4.676  11.558 -0.1061  0.0127 -0.3591
20500W        W36394  14.981  17.662  13.145  0.3267  0.0674  0.0318
20501W        W36395  14.731   3.075  16.001  0.0426 -0.1712  0.0010
20502W        W36396  10.255   5.528  14.688  0.0286 -0.1838 -0.0804
20503W        W36397   4.998  10.322   1.255  0.0750 -0.3431 -0.1336
20504W        W36398   7.654  12.517   0.454  0.1201  0.0463  0.1549
20505W        W36399   3.052   9.703  13.387  0.0871  0.4011 -0.4863
20506W        W36400   4.820   0.908   2.132 -0.1732 -0.1441  0.0576
20507W        W36401  12.989   8.539   4.552 -0.0653 -0.0809  0.3038
20508W        W36402  17.913   4.646   3.009  0.2749 -0.3039  0.3624
20509W        W36403   3.251   6.458  15.608  0.2011 -0.0392 -0.1172
20510W        W36404   9.465  17.837  14.698  0.1382 -0.1150  0.1148
20511W        W36405  18.021   0.037   3.929 -0.1379 -0.2215 -0.1762
20512W        W36406  17.688  17.765  14.709  0.2783  0.0061  0.1530
20513W        W36407  14.340   9.704  13.579  0.3211 -0.2329  0.1032
20514W        W36408  11.547   8.712   3.996 -0.1132 -0.1376  0.3051
20515W        W36409  14.506   5.471   4.147 -0.1327 -0.1565 -0.1323
20516W        W36410  14.421  16.635   3.973  0.0714 -0.1108 -0.0521
20517W        W36411  11.734   8.975  12.055  0.2964  0.2232  0.2061
20518W        W36412   6.433  14.489   4.192  0.0870 -0.2969 -0.1486
20519W        W36413   6.833  10.211   3.618  0.1281  0.1227 -0.1549
20520W        W36414  11.305   9.030  15.012  0.0290  0.0527 -0.2932
20521W        W36415  12.308  14.337   4.246  0.0625  0.2302  0.0931
20522W        W36416   9.240   1.708   1.221 -0.0206 -0.0599 -0.0858
20523W        W36417   8.629   5.229   0.612 -0.0123  0.1965 -0.2148
20524W        W36418  12.399   9.685   4.750 -0.1388  0.0562 -0.0680
20525W        W36419  13.816   4.058  15.048 -0.0535  0.2877 -0.0901
20526W        W36420   3.648   6.838  13.367 -0.1985 -0.0070 -0.0148
20527W        W36421  10.384   1.935   4.739 -0.3572 -0.2742 -0.2645
20528W        W36422  10.796   1.631   0.122 -0.2354  0.0296  0.1807
20529W        W36423  14.284  17.346   2.006  0.0625 -0.0093  0.0305
20530W        W36424   3.148   8.348  14.276 -0.3045  0.0014 -0.1555
20531W        W36425   3.622  18.080   0.548 -0.2077  0.5378  0.0369
20532W        W36426   1.797   2.597  14.738 -0.2431 -0.2523 -0.5615
20533W        W36427   7.354   2.220   2.531  0.0836 -0.1086 -0.3678
20534W        W36428  13.114   7.019  12.232  0.0498  0.1556 -0.0854
20535W        W36429  12.602  15.938   4.619  0.0913  0.1586 -0.3048
20536W        W36430  16.155   2.612  13.916  0.0962  0.0158 -0.1048
20537W        W36431   7.960  11.115  14.004  0.0236  0.0017  0.3826
20538W        W36432  13.668   2.027  11.392  0.0601  0.1312  0.3890
20539W        W36433  15.792  14.354   0.034  0.1806 -0.2248 -0.0784
20540W        W36434   9.151   6.301   3.747  0.2867  0.1374  0.1472
20541W        W36435   6.861  18.083   3.595 -0.2076  0.0292  0.2650
20542W        W36436  16.029  16.527  11.990  0.1534  0.0523  0.1906
20543W        W36437   6.234  10.041  13.294  0.1451  0.3482 -0.1431
20544W        W36438  17.656  11.188   6.085  0.1270 -0.2011  0.2214
20545W        W36439   9.688   5.747  14.037 -0.2267  0.3083  0.1809
20546W        W36440  12.689   0.018  11.752 -0.0952  0.2272 -0.2136
20547W        W36441  13.499   4.945   1.671  0.0847 -0.1969  0.1766
20548W        W36442   1.859   8.461  14.166 -0.0773 -0.1446 -0.0744
20549W        W36443   0.076   2.917  14.548  0.0782  0.0708  0.1175
20550W        W36444   8.857   0.052  11.290 -0.0326 -0.2578 -0.1748
20551W        W36445   7.161  12.334  14.136  0.1497  0.0448 -0.0203
20552W        W36446   2.130  17.058  11.664 -0.2559 -0.0392 -0.0582
20553W        W36447  10.135   3.821  16.161 -0.2213  0.1629  0.3658
20554W        W36448   1.432   0.295   5.941  0.1209  0.1370  0.3074
20555W        W36449   7.852   6.968   5.359  0.1812 -0.0769  0.1271
20556W        W36450  17.239  14.818   4.593 -0.2457  0.0358 -0.2567
20557W        W36451  13.145   0.061  15.746 -0.0419  0.0563  0.0025
20558W        W36452  11.367   8.057  10.639 -0.2950  0.1632  0.0495
20559W        W36453  17.794  16.670   0.161 -0.1146  0.1561 -0.1299
20560W        W36454   0.255   6.787  14.379  0.2319 -0.1044 -0.0637
20561W        W36455   1.013  15.803   0.288  0.1072 -0.3575  0.1018
20562W        W36456  16.610  14.540  15.410  0.3176 -0.0452  0.0035
20563W        W36457   0.492   9.444  14.240  0.0537 -0.0083  0.0202
20564W        W36458  16.471   0.468   2.811  0.2971  0.1245  0.1180
20565W        W36459  11.587   4.715   5.181 -0.0422  0.2216  0.0839
20566W        W36460  14.284   4.510  15.519  0.0758 -0.0463  0.1622
20567W        W36461  13.344   5.622  12.933  0.1364 -0.0226 -0.2615
20568W        W36462   1.636  15.224  14.606  0.1680 -0.1252 -0.0192
20569W        W36463   0.882   7.600  11.879 -0.2895  0.1599 -0.1130
20570W        W36464  11.032  16.655   3.579 -0.1026  0.0566 -0.1485
20571W        W36465   5.405  10.164   4.352 -0.0033  0.0002  0.1008
20572W        W36466   0.475   4.848  15.641  0.2015 -0.4849  0.0148
20573W        W36467   3.755   8.904  12.661  0.2618  0.2926 -0.0657
20574W        W36468  12.565   8.621  13.741  0.0857 -0.3076 -0.2582
20575W        W36469   8.963   2.602   0.940  0.0626 -0.0937  0.0518
20576W        W36470  14.922   2.019   3.253  0.1904 -0.0143 -0.3794
20577W        W36471   0.605   9.526  12.912  0.1859  0.1221 -0.0414
20578W        W36472   6.408  11.025   3.259 -0.3009 -0.2735 -0.0461
20579W        W36473   7.836   9.951  11.900 -0.0036 -0.0790 -0.0038
20580W        W36474  16.492   3.721   2.357  0.1267  0.0428  0.1570
20581W        W36475  11.407  14.971   3.754 -0.2178 -0.1416  0.3488
20582W        W36476   3.422  16.803  11.315 -0.0133 -0.1974  0.1429
20583W        W36477  10.093  11.523   5.399 -0.1320  0.0963 -0.1544
20584W        W36478   9.082   1.371  16.155 -0.0322  0.1076  0.0616
20585W        W36479  16.998  12.281  16.185  0.3302  0.1581  0.0341
20586W        W36480   3.814  11.237  14.630 -0.0349 -0.1411  0.3457
20587W        W36481  16.394  10.236   3.054  0.0310 -0.0934  0.0726
20588W        W36482  17.824   7.021  15.670  0.0419  0.1420  0.0885
20589W        W36483  17.983  14.315   5.659  0.2475  0.2630  0.1809
20590W        W36484   6.186   1.792  13.687 -0.1044 -0.1269  0.3803
20591W        W36485   1.162   5.775   2.563 -0.2693  0.1747  0.1037
20592W        W36486  16.625   5.371  14.512  0.3424  0.2131  0.0132
20593W        W36487  14.819   7.862  13.684  0.1084  0.1126  0.3108
20594W        W36488   4.217   0.592   0.605 -0.0444 -0.2592  0.3805
20595W        W36489   8.292  14.053  15.381 -0.0895  0.1916 -0.0350
20596W        W36490   0.310   4.123   5.117  0.2054  0.0368  0.1445
20597W        W36491   1.892  17.920  11.452  0.1967  0.2165 -0.1687
20598W        W36492   6.223  16.986   0.072 -0.2147  0.1108  0.2540
20599W        W36493   3.982   7.647   2.636  0.1561  0.0551  0.0073
20600W        W36494  10.545   1.903   1.826  0.2310 -0.2064 -0.1131
20601W        W36495  11.442   5.543  11.147  0.1081  0.1995 -0.1797
20602W        W36496  18.038   4.160  11.235 -0.3435  0.1411  0.1691
20603W        W36497  10.224   5.093   3.705 -0.1592  0.1950  0.1183
20604W        W36498  15.213   5.129  13.361 -0.0485  0.4360 -0.2343
20605W        W36499   5.300   0.822   1.784 -0.0751 -0.3025  0.0640
20606W        W36500   6.611   3.879   0.103 -0.2409 -0.0984  0.0727
20607W        W36501  14.887   2.628   0.570  0.1399  0.1708  0.1762
20608W        W36502  14.913  14.865   2.171 -0.0363 -0.3595 -0.3294
20609W        W36503  13.853   1.779  14.531 -0.1042  0.0377 -0.3135
20610W        W36504   4.243   7.326   5.904  0.1030  0.0539 -0.1419
20611W        W36505   1.469   5.758   0.677 -0.1571  0.1193  0.0010
20612W        W36506   7.755   0.057  13.893 -0.1914 -0.1347  0.0230
20613W        W36507  15.701   3.075   2.118  0.0122 -0.0665  0.1885
20614W        W36508   8.797  13.536  12.792 -0.0664  0.2307  0.1013
20615W        W36509   9.476   9.559   3.758  0.1467 -0.1332  0.1576
20616W        W36510   7.492  17.670   2.163 -0.0700 -0.2216 -0.0440
20617W        W36511  14.439   2.998  11.959  0.3340 -0.0446 -0.0131
20618W        W36512  10.658  11.219  15.794 -0.1564  0.0155  0.1061
20619W        W36513  13.659   9.731   2.762  0.0674 -0.1689 -0.0752
20620W        W36514   8.835  17.395   3.979 -0.0649  0.1624  0.0064
20621W        W36515   2.107  15.812   3.786  0.1559  0.0142 -0.0845
20622W        W36516  14.816   3.131  13.149 -0.0081  0.0109 -0.1605
20623W        W36517   3.501   2.317   2.727 -0.2721  0.0621 -0.1345
20624W        W36518   9.552   5.115  12.351  0.2776  0.1737 -0.0174
20625W        W36519  17.799   4.651  11.965 -0.1327 -0.0653 -0.0593
20626W        W36520  13.654   1.891   5.184  0.3942  0.1026 -0.1702
20627W        W36521   6.353   7.068   2.647 -0.0182  0.0034 -0.2466
20628W        W36522   8.342  12.539   3.057  0.3124 -0.0204  0.0146
20629W        W36523  17.942  12.852   1.683  0.0733 -0.1086 -0.0488
20630W        W36524   2.825   1.124   0.924  0.1116  0.3294 -0.0596
20631W        W36525  10.962   5.679  13.007 -0.0552 -0.2401  0.2635
20632W        W36526   6.894   2.194   4.598  0.1878  0.2867 -0.0094
20633W        W36527  16.525   0.987   1.167 -0.0659  0.3418  0.0728
20634W        W36528  13.916  13.185   3.152 -0.3072  0.0374  0.1636
20635W        W36529  14.655   8.339  13.602 -0.0984 -0.1263  0.0781
20636W        W36530   6.640  17.946   2.056  0.1800 -0.1164 -0.1534
20637W        W36531  13.270   5.267  11.225  0.0940  0.1786 -0.4120
20638W        W36532   9.956   1.015  15.745 -0.3989 -0.1934  0.1758
20639W        W36533   0.926  15.604   2.730 -0.2626  0.1218  0.0371
20640W        W36534   7.291  11.632   3.550 -0.0461  0.1166 -0.1625
20641W        W36535  13.927   5.625  11.145 -0.3558 -0.0165 -0.0715
20642W        W36536   4.109  15.273   3.633  0.1712  0.3381  0.1321
20643W        W36537   4.849   3.145  15.730  0.0366  0.1080  0.2091
20644W        W36538  15.451  12.828   2.507 -0.0194  0.3193  0.1979
20645W        W36539   9.319   6.057  14.992 -0.0752  0.0741 -0.0708
20646W        W36540  17.243   5.703  15.364  0.2980  0.3343  0.1215
20647W        W36541  13.773   5.986   3.604  0.0224  0.0127  0.1553
20648W        W36542  16.914  14.666   1.382  0.1629  0.2718  0.1412
20649W        W36543  10.314   3.617   0.636  0.4038 -0.1179  0.2433
20650W        W36544   2.506  14.787   3.413 -0.0226 -0.0780 -0.3248
20651W        W36545   9.094   6.832   1.307 -0.0056  0.0180  0.0263
20652W        W36546   5.803   5.276   2.319 -0.1112  0.0951 -0.3882
20653W        W36547  16.336   7.968  14.716  0.0619 -0.1990 -0.2399
20654W        W36548  15.389  12.255  13.520  0.1274 -0.1032 -0.2198
20655W        W36549   4.130   3.696   4.896 -0.1422  0.2626 -0.0434
20656W        W36550   8.683   7.055   3.551 -0.0550  0.2784 -0.0651
20657W        W36551  17.372  13.839  13.011 -0.0310 -0.1526  0.1845
20658W        W36552  10.649  16.791   2.362  0.2162 -0.2260  0.1504
20659W        W36553   8.923   6.036  14.192 -0.2631 -0.0651  0.2506
20660W        W36554   7.565  15.718   0.223 -0.1179 -0.3609  0.3126
20661W        W36555   7.149   8.712   2.124  0.0722 -0.2357 -0.1541
20662W        W36556   3.712   5.981  12.893  0.0186  0.0692  0.2344
20663W        W36557   2.713   2.989   1.703  0.0388 -0.0818  0.0519
20664W        W36558   5.073   3.376  14.116  0.1661 -0.0388  0.0458
20665W        W36559   0.436   3.633  16.024 -0.2962  0.3497 -0.2681
20666W        W36560  17.124   3.690   1.943  0.3305  0.1583  0.1048
20667W        W36561   9.860   6.705  13.981  0.2260  0.0797  0.1375
20668W        W36562   8.074   2.336  15.311  0.0147 -0.5292 -0.3213
20669W        W36563  17.076   3.020   5.275  0.0578 -0.0450 -0.1165
20670W        W36564   0.082  13.951  12.962  0.1587 -0.3338  0.0558
20671W        W36565   1.831   2.503   2.910  0.1200 -0.2424  0.2447
20672W        W36566   0.848   7.591   4.637  0.1389  0.2587  0.0200
20673W        W36567  14.302  11.112   4.774 -0.0761  0.2432  0.0260
20674W        W36568  13.178  18.119   1.290  0.0636 -0.0606 -0.1152
20675W        W36569  14.670  16.165   1.199  0.0852 -0.0937 -0.4386
20676W        W36570   4.189   8.278   1.713  0.1757 -0.0661 -0.3691
20677W        W36571  11.281   6.341  15.893  0.1957  0.1943  0.1794
20678W        W36572  13.987   7.161  11.661  0.2356  0.2228  0.2725
20679W        W36573  15.460  11.324  13.955 -0.4836 -0.1205 -0.1650
20680W        W36574  17.759   0.443  12.852  0.2590  0.1367 -0.0859
20681W        W36575   6.413  15.477  13.062 -0.1174 -0.4101 -0.4637
20682W        W36576  13.682   6.354  12.650  0.4719  0.0253 -0.3324
20683W        W36577   5.245  15.827   0.597  0.3351  0.2920  0.0731
20684W        W36578   8.364   2.512  12.211  0.0365 -0.1449 -0.1496
20685W        W36579  15.596   2.494  15.534  0.3635 -0.0488 -0.2166
20686W        W36580   5.904   9.282  12.096 -0.0113  0.1667 -0.1890
20687W        W36581   1.875   4.177   0.244 -0.0836 -0.0690  0.1466
20688W        W36582   8.270   5.333   3.568 -0.4152 -0.2655  0.4409
20689W        W36583   8.294  10.441  13.482 -0.1865  0.0891 -0.0741
20690W        W36584  14.715  13.626   2.915  0.0513  0.3136  0.0170
20691W        W36585   3.250   2.622   3.034 -0.0532  0.1698  0.1071
20692W        W36586  13.067   3.791  11.671  0.2242  0.0379  0.1352
20693W        W36587   3.230  16.212  11.624  0.1002  0.1870  0.2627
20694W        W36588  15.780   3.668   3.436 -0.3036 -0.1880 -0.0730
20695W        W36589   2.837   3.570   2.942 -0.2187 -0.1670  0.2828
20696W        W36590   9.122  16.272   5.379 -0.1107  0.2493 -0.0644
20697W        W36591   8.230   6.829  13.491 -0.0446  0.0954  0.0660
20698W        W36592  16.010   0.614   3.603 -0.1986 -0.1617  0.1650
20699W        W36593   1.897   0.947  15.583  0.1383 -0.0497 -0.1592
20700W        W36594   6.787  16.600   2.450 -0.1164 -0.2543 -0.0467
20701W        W36595  17.252  12.946  12.951 -0.0002  0.0006  0.1970
20702W        W36596   7.835  17.066   2.145 -0.3283  0.0139  0.1580
20703W        W36597  11.880   7.999  13.233 -0.2349  0.0068  0.1961
20704W        W36598   9.736   1.075   0.471 -0.0251 -0.3827 -0.0391
20705W        W36599  10.228   4.998  14.828  0.1254 -0.2497  0.1321
20706W        W36600   0.428  16.502   5.634 -0.0579  0.0782 -0.0841
20707W        W36601   0.515  10.415  14.718  0.0827  0.2871 -0.0683
20708W        W36602   0.647   5.550  14.965  0.0244  0.0380  0.0348
20709W        W36603   6.547  12.652   4.115  0.0959 -0.2192 -0.1326
20710W        W36604  17.621  14.034  13.599 -0.2123 -0.0192  0.0335
20711W        W36605   3.333   1.465   4.903  0.1409 -0.3478  0.1618
20712W        W36606   2.891   7.782  14.598  0.1159 -0.2013 -0.0556
20713W        W36607   8.589  12.974  16.195 -0.0401  0.2015 -0.0935
20714W        W36608   8.910  15.180   4.961 -0.1314  0.2784  0.0761
20715W        W36609   0.099   0.204  11.629 -0.1132 -0.0858 -0.0574
20716W        W36610   4.480   0.675   4.099 -0.3127 -0.3358 -0.0401
20717W        W36611   7.159   7.021   1.262 -0.0314 -0.3146  0.3418
20718W        W36612   3.180   8.972  16.261 -0.1106  0.2402 -0.0598
20719W        W36613  15.641  13.975   3.157  0.0656  0.0133 -0.1234
20720W        W36614  18.186   7.163   1.194 -0.2226 -0.2993  0.0739
20721W        W36615  17.544   5.487  11.397  0.2787  0.0188  0.0205
20722W        W36616   4.081   5.738   4.028  0.0112 -0.3312 -0.0140
20723W        W36617  16.060   1.298  14.692  0.1045 -0.1779 -0.3542
20724W        W36618   7.952   6.270   4.520 -0.2351  0.0608 -0.4203
20725W        W36619  10.726   2.326  13.790  0.1138  0.2708  0.0953
20726W        W36620   7.796   1.076   3.994  0.0963 -0.0507 -0.1204
20727W        W36621  17.506   4.603  12.377  0.0662  0.1364  0.3532
20728W        W36622  14.119  12.472   5.210 -0.1027 -0.2164  0.0610
20729W        W36623   3.230  17.415   1.457 -0.3420  0.1889 -0.1046
20730W        W36624   7.219  12.975   1.246 -0.2186  0.0079 -0.2291
20731W        W36625  11.125   8.844  11.086 -0.0301 -0.4490 -0.0077
20732W        W36626   1.688  10.513   5.039 -0.2770  0.2254 -0.3278
20733W        W36627   5.251  13.309   2.827  0.0250 -0.1393  0.0597
20734W        W36628  15.829  11.280   4.527  0.0364 -0.2254  0.1988
20735W        W36629  13.768  17.536   5.376  0.0277 -0.0934 -0.1474
20736W        W36630  12.279  14.255  14.991 -0.0153 -0.1044 -0.0601
20737W        W36631  17.852  15.390  15.575  0.1519 -0.2958  0.2154
20738W        W36632   5.135   2.423   3.909  0.0782  0.1953  0.2655
20739W        W36633   9.364   9.343   2.065  0.1800 -0.1604  0.0777
20740W        W36634  12.408   8.854   1.758  0.2910 -0.1468  0.0289
20741W        W36635   2.131  10.624   5.759  0.1358  0.0959  0.0309
20742W        W36636  11.973  10.972  11.600  0.0568 -0.3792  0.0872
20743W        W36637   8.991  15.589  13.063 -0.0959  0.3176 -0.0006
20744W        W36638   4.181   1.642  11.003 -0.1555 -0.2831 -0.3052
20745W        W36639   6.107   5.636  10.763  0.1716 -0.4994  0.1287
20746W        W36640   0.999   9.291  12.818 -0.1147 -0.0052  0.3251
20747W        W36641   2.866  10.755   5.250 -0.1016 -0.2612  0.1430
20748W        W36642   9.509   4.679  15.460 -0.0518  0.0979 -0.1549
20749W        W36643   1.732   5.385   0.545  0.0285 -0.1293 -0.1506
20750W        W36644  11.965  11.404  11.336  0.1757  0.0703  0.1230
20751W        W36645  10.703   3.659  14.484  0.1011 -0.0859 -0.0258
20752W        W36646   8.516   0.578   3.467 -0.2569 -0.1388 -0.0478
20753W        W36647   1.089   3.703   2.038  0.1607 -0.0805 -0.2514
20754W        W36648  15.338  18.223   3.220  0.0441  0.0685  0.1008
20755W        W36649  15.935   2.126   5.381  0.0021  0.2152 -0.1118
20756W        W36650   5.593   7.190  15.059 -0.1434  0.0522 -0.2112
20757W        W36651  13.596  10.961  16.203  0.2782  0.0742  0.3764
20758W        W36652  10.172  13.518  15.930 -0.0823  0.0114 -0.0531
20759W        W36653  16.785  12.293   1.134 -0.2478  0.2122  0.0353
20760W        W36654   9.254   2.711   2.210  0.1334 -0.1439 -0.0663
20761W        W36655   7.353  10.242   3.883 -0.3991 -0.1105  0.0158
20762W        W36656   9.530   7.668   0.907 -0.1211  0.2617  0.1671
20763W        W36657   8.078  13.212   4.808 -0.0610  0.1074 -0.0616
20764W        W36658   6.225  11.209   4.763 -0.2123 -0.1032 -0.1736
20765W        W36659  11.524  10.752   2.380  0.1188 -0.0711 -0.1056
20766W        W36660   3.959   6.335  13.184 -0.3144 -0.2540  0.0652
20767W        W36661  10.023  16.201   5.683  0.1567 -0.0363  0.3113
20768W        W36662  13.545  14.245  14.949 -0.1667  0.1275  0.0858
20769W        W36663  16.243  10.369   0.936 -0.3667 -0.2407  0.3983
20770W        W36664  15.509   4.385  11.418  0.0565  0.1462 -0.1101
20771W        W36665  10.851  10.010   3.552 -0.0497  0.1278  0.0761
20772W        W36666  16.442   4.063   2.784  0.1337  0.1584  0.0683
20773W        W36667  11.263   0.149   3.932  0.1987 -0.2116  0.0785
20774W        W36668   0.126  11.377   0.701 -0.1998  0.0653  0.0574
20775W        W36669   9.822  13.851   4.763  0.0998  0.0182 -0.0644
20776W        W36670   0.476   6.410  14.644  0.0230 -0.0223 -0.2341
20777W        W36671   3.748  15.059   6.480  0.1271  0.3067 -0.1626
20778W        W36672  11.114  11.002  14.140 -0.1859 -0.1306  0.0679
20779W        W36673  10.917   1.077   2.008 -0.3187 -0.0899  0.1569
20780W        W36674  17.524   9.530  13.382 -0.1910 -0.0944 -0.1730
20781W        W36675   9.757   4.881   0.370 -0.0985  0.0922  0.2116
20782W        W36676  11.763  16.345   0.132  0.1117 -0.0700  0.1116
20783W        W36677  11.120   5.088   0.024 -0.1397  0.1290  0.1603
20784W        W36678   0.928  15.147  16.069 -0.2641 -0.0488  0.0176
20785W        W36679  18.007  18.186  13.881 -0.0037 -0.0808  0.0498
20786W        W36680  14.116   4.310  14.768  0.0213 -0.0874  0.4803
20787W        W36681   1.115  10.016  15.442 -0.0618 -0.1286  0.0110
20788W        W36682  15.851  16.176   6.286 -0.1034  0.1306 -0.0157
20789W        W36683  10.166  11.896   1.725 -0.1482  0.0468 -0.0607
20790W        W36684   2.505  16.628  13.821  0.3969  0.0533  0.2545
20791W        W36685  11.768   9.199   4.258 -0.0405  0.3034 -0.2026
20792W        W36686  16.651  12.878  10.580  0.1130  0.0467 -0.1906
20793W        W36687   5.027   9.732  12.300 -0.0959 -0.1301  0.2039
20794W        W36688   4.620   8.494  11.937  0.2369 -0.0112  0.1422
20795W        W36689  13.655   8.758  14.142 -0.3635  0.1512  0.1221
20796W        W36690  13.878   9.725  13.780  0.1650 -0.2613 -0.1726
20797W        W36691   4.350   6.599   5.929 -0.2259  0.0348 -0.0822
20798W        W36692   2.249   7.429   0.941  0.2959 -0.1795 -0.1007
20799W        W36693  15.337   3.829  16.202 -0.3429 -0.0898 -0.2972
20800W        W36694  14.174  11.009   3.355 -0.2073  0.3342  0.4884
20801W        W36695   5.205   5.769  10.792 -0.2992  0.0614  0.4638
20802W        W36696   1.457   0.146   3.397 -0.1881  0.0598 -0.0069
20803W        W36697  10.143  16.144  14.448 -0.1987  0.2163  0.1056
20804W        W36698  10.130  17.671  13.773  0.1241  0.1655  0.2246
20805W        W36699   2.721   8.097  15.445  0.1933  0.1795 -0.2642
20806W        W36700   9.785   2.635   2.208 -0.2103 -0.1418 -0.0961
20807W        W36701  13.631  12.341   5.040  0.3583 -0.0148  0.0446
20808W        W36702  13.379   5.491  16.096 -0.0053 -0.1316  0.1911
20809W        W36703  16.399  12.684  14.806 -0.1992 -0.2057 -0.0912
20810W        W36704  10.168   0.929   2.487  0.0755 -0.1758  0.0779
20811W        W36705  12.984   5.578   4.094 -0.0035 -0.2237 -0.2305
20812W        W36706   5.110  12.457  11.830  0.3336 -0.2053  0.1847
20813W        W36707  16.838  14.988   0.957 -0.1149  0.3542  0.0406
20814W        W36708  17.715  14.016   4.057  0.0829  0.0516 -0.0740
20815W        W36709  17.967  11.204   2.857 -0.0429 -0.2479 -0.0675
20816W        W36710   9.703  14.704  11.873 -0.2868 -0.0370  0.2164
20817W        W36711   3.439  16.695  15.383 -0.2400 -0.0913 -0.2253
20818W        W36712  17.183  11.150   2.366  0.3190 -0.0007  0.4426
20819W        W36713   7.895   8.223   0.717 -0.5218  0.3572  0.1863
20820W        W36714  17.631  18.238   2.406  0.4425  0.1910  0.2737
20821W        W36715   9.704   8.029  11.294  0.0604 -0.0529  0.2114
20822W        W36716   6.797  16.956  14.629 -0.2179 -0.1797  0.2798
20823W        W36717   7.758  11.364   0.491 -0.0071 -0.4108 -0.0992
20824W        W36718   0.551  11.119   1.511 -0.0655  0.1042  0.0739
20825W        W36719  16.750   8.959   3.827 -0.2728  0.2725 -0.0410
20826W        W36720   5.766   3.602   5.778  0.0990 -0.0732 -0.0113
20827W        W36721  14.270   0.540   0.690  0.2698 -0.1766  0.3143
20828W        W36722   0.028   0.912   3.753  0.2083 -0.0755  0.0907
20829W        W36723   4.098  17.982  14.287  0.1380  0.2383 -0.2158
20830W        W36724  10.078  10.184  13.058  0.1284 -0.2165 -0.3107
20831W        W36725   6.705   1.715  11.586 -0.0247  0.0258  0.4292
20832W        W36726   8.125  17.729  14.782 -0.1021  0.1045 -0.0817
20833W        W36727   6.507  14.379   2.281 -0.4234  0.3027  0.0533
20834W        W36728   8.843  10.413  13.565  0.0194 -0.0581 -0.1081
20835W        W36729   0.356   5.153   3.089 -0.2543 -0.1799  0.2091
20836W        W36730  11.906  15.626   3.898 -0.3565 -0.0048 -0.6174
20837W        W36731   2.247   8.352   1.968  0.1192 -0.2084 -0.4100
20838W        W36732  16.633   8.102   3.322  0.1406 -0.0068  0.3796
20839W        W36733   6.639  17.704  11.959 -0.2484 -0.3190 -0.1188
20840W        W36734   0.627   9.969   0.150  0.2409  0.3094 -0.1206
20841W        W36735   4.857   3.459  14.581  0.1459  0.3181 -0.4090
20842W        W36736  18.215  15.107   1.428  0.0704 -0.1572 -0.1836
20843W        W36737  14.492   2.630  12.340  0.1756 -0.0322  0.1498
20844W        W36738   3.034   8.368  15.694 -0.2111  0.1707  0.0253
20845W        W36739  15.373  15.063   4.076 -0.1963 -0.1653 -0.0405
20846W        W36740   2.115   9.061  14.629  0.1537  0.2543  0.1146
20847W        W36741   0.652   6.229   3.491 -0.3255 -0.1786  0.3865
20848W        W36742   0.379  11.758   1.121  0.1974 -0.0148 -0.0884
20849W        W36743  15.365   4.962   3.420  0.0127  0.0599  0.2644
20850W        W36744   3.736   5.527  11.052  0.2960  0.1722 -0.2353
20851W        W36745  12.831   9.081   3.534  0.2805  0.1177 -0.2407
20852W        W36746   3.871  11.565  13.289  0.1579  0.0557  0.0937
20853W        W36747  15.123   9.271   5.104 -0.2305 -0.1882  0.0556
20854W        W36748  17.746  13.516   0.098 -0.1342 -0.0175  0.1278
20855W        W36749   6.426   8.008   0.673 -0.0596  0.0136 -0.2592
20856W        W36750   7.725   4.754   5.127  0.2374 -0.1160  0.1628
20857W        W36751  15.673  17.885   4.248 -0.2481 -0.0096  0.1673
20858W        W36752   2.221  16.415   4.576 -0.0738  0.3594 -0.1893
20859W        W36753  10.485  15.279  15.571  0.1513 -0.0650  0.1670
20860W        W36754  10.161  12.390  12.347  0.0560  0.2227 -0.1088
20861W        W36755  10.778   2.745  15.522 -0.0132  0.3604  0.1384
20862W        W36756   8.525   3.095   4.905 -0.0868 -0.1473 -0.1219
20863W        W36757   3.729   2.792   0.850 -0.0569  0.2236  0.0022
20864W        W36758  15.297  16.180  12.829 -0.3739  0.0907  0.1226
20865W        W36759  15.978   1.434  13.372 -0.3476  0.2309 -0.1254
20866W        W36760   1.289  10.703  13.439  0.4336 -0.1100 -0.0947
20867W        W36761  11.541  13.668   2.915  0.0495 -0.2465 -0.2449
20868W        W36762   8.867  11.047  11.808  0.2126  0.0935 -0.1327
20869W        W36763  17.399  14.565  14.954 -0.1158  0.1605 -0.0994
20870W        W36764   3.662  16.234  16.115 -0.1475 -0.1097  0.0080
20871W        W36765   6.036  10.009   2.977 -0.1265  0.2852  0.2973
20872W        W36766  15.597   5.817   1.224 -0.0312 -0.0887 -0.0893
20873W        W36767   6.790  10.307   1.543  0.0569  0.0932 -0.3995
20874W        W36768   7.820   8.025  12.657 -0.2605 -0.0999 -0.2525
20875W        W36769   9.324   9.266  14.220 -0.0202  0.0267 -0.1984
20876W        W36770   6.330   8.775  13.345 -0.1127 -0.2881  0.1209
20877W        W36771  15.991   7.749  13.883 -0.1430 -0.0600 -0.0248
20878W        W36772   8.300   2.468   0.788  0.3260 -0.1379  0.3383
20879W        W36773  13.803   6.682  14.413 -0.1286  0.0448 -0.0832
20880W        W36774  13.879   7.720   5.873  0.1262  0.2257  0.1262
20881W        W36775   9.465   3.836   3.486  0.0925  0.0599 -0.1285
20882W        W36776   9.984   9.323   5.275 -0.0344 -0.1642  0.0963
20883W        W36777   5.277  17.421   5.159 -0.1013  0.2515 -0.1955
20884W        W36778   3.153  13.239  11.670  0.2432  0.2918  0.1423
20885W        W36779   3.419   9.333   5.572  0.1435  0.1403  0.0553
20886W        W36780   7.808   0.060   0.014 -0.1300 -0.2509  0.0433
20887W        W36781  12.262   3.595  11.023  0.1685  0.0697 -0.0919
20888W        W36782   9.651  10.239  13.887 -0.0054  0.0136  0.1267
20889W        W36783  13.362   0.492   4.050 -0.0720 -0.0859  0.1874
20890W        W36784  15.230   0.532  12.532 -0.1824 -0.1159  0.2133
20891W        W36785  15.039   1.606   2.938  0.0129 -0.0987  0.1711
20892W        W36786  17.883   6.533  14.267 -0.0570 -0.3409 -0.1089
20893W        W36787  12.150   5.148  10.879  0.2760  0.0773 -0.0277
20894W        W36788   3.822  16.886   1.623  0.1353  0.1917 -0.0924
20895W        W36789   7.161  13.728   3.956  0.1179  0.2820  0.2033
20896W        W36790  15.047  10.890  14.685  0.1090 -0.2151  0.1712
20897W        W36791  17.255   1.396   5.525 -0.2948 -0.1229  0.1224
20898W        W36792   7.474   2.632   2.801 -0.0220  0.1513 -0.0389
20899W        W36793  17.815   2.847  14.486 -0.1346 -0.1216  0.1808
20900W        W36794   6.051   9.531  13.372 -0.1373 -0.0945 -0.2039
20901W        W36795   7.490   5.154   4.908 -0.0085  0.1871  0.0548
20902W        W36796  14.718   1.646  15.981 -0.0168  0.0800 -0.0521
20903W        W36797   5.118   9.208   3.510  0.3002  0.2076 -0.1384
20904W        W36798  15.955  14.378   4.638  0.2683 -0.2140 -0.0299
20905W        W36799  12.698   9.227   1.533  0.2118 -0.0587  0.2296
20906W        W36800  10.463  10.891  14.028 -0.0712 -0.3321 -0.1364
20907W        W36801   1.048  16.714   5.145 -0.1077  0.1506 -0.3434
20908W        W36802   2.568   9.866   2.505 -0.0880  0.0539 -0.0831
20909W        W36803   6.945  12.705  12.686  0.0079 -0.0107 -0.0512
20910W        W36804   7.867   4.267   3.290 -0.0185 -0.0216 -0.0174
20911W        W36805   1.659   4.782  12.928  0.0257 -0.0283  0.0610
20912W        W36806   4.390  16.323   6.220  0.1253 -0.0000 -0.2302
20913W        W36807  14.145  14.488   2.590 -0.1424  0.0103 -0.1141
20914W        W36808   8.773   1.213   1.088  0.0923  0.3059 -0.3888
20915W        W36809   8.924   9.725  16.071  0.0070 -0.2289  0.0488
20916W        W36810   9.896  11.139  11.908 -0.0841 -0.0286  0.0995
20917W        W36811   4.788   7.080   3.333 -0.0615  0.0380 -0.3201
20918W        W36812  11.662   2.254   2.565 -0.3318  0.1790  0.0711
20919W        W36813  10.573  12.004   3.909 -0.0157 -0.2826 -0.3197
20920W        W36814   7.595  13.657   2.022  0.0820  0.0141 -0.0375
20921W        W36815   6.046   2.475   4.265  0.2156 -0.1135  0.0808
20922W        W36816  15.155   1.206  13.503 -0.2020 -0.1054  0.1871
20923W        W36817  11.264  18.095   0.790  0.0561  0.0508  0.0682
20924W        W36818  16.809  15.421   0.699  0.3163 -0.0984  0.1138
20925W        W36819   7.584  12.307   3.874 -0.0335  0.1013  0.0420
20926W        W36820   3.052  18.173  16.221  0.0335  0.1728 -0.0472
20927W        W36821   8.948   6.339   4.253 -0.0289  0.2180  0.1091
20928W        W36822   0.634   6.781   5.129 -0.3181 -0.2527  0.1413
20929W        W36823  14.257   8.481   5.097  0.1338 -0.3654 -0.3254
20930W        W36824   1.235  12.283  14.942  0.1411 -0.0839  0.1146
20931W        W36825   8.317   2.752   4.314  0.1974 -0.3783  0.1745
20932W        W36826  14.879  17.501  10.393 -0.0848 -0.0791  0.0679
20933W        W36827  11.800   2.609   2.251  0.1258  0.0760 -0.0754
20934W        W36828   1.922   8.097  11.782 -0.0497 -0.0028 -0.0529
20935W        W36829  12.206   0.477   3.905  0.2446  0.2778  0.1829
20936W        W36830  10.064  17.564  12.768 -0.2119  0.1388  0.1399
20937W        W36831  13.674   1.350   4.526 -0.3831  0.2489  0.0957
20938W        W36832   2.753  10.496   6.570  0.0775  0.0676  0.0552
20939W        W36833   5.372   8.429  12.008  0.1926 -0.3818 -0.0278
20940W        W36834   3.004  12.203  13.373  0.1857  0.0279  0.3044
20941W        W36835   7.240   2.945  12.376 -0.0615 -0.0059 -0.4182
20942W        W36836   5.041   9.438  12.775 -0.1401  0.0348 -0.3875
20943W        W36837  16.624   5.639  16.015 -0.0086  0.2027  0.0105
20944W        W36838   6.929   9.445   3.308 -0.1483 -0.1092 -0.1181
20945W        W36839   0.520   1.105  15.914  0.1815 -0.0979  0.1109
20946W        W36840   5.142   2.788  14.015  0.0933 -0.2656  0.0691
20947W        W36841   8.532   8.720  12.535 -0.3822 -0.0292  0.0327
20948W        W36842   7.676   6.077   1.470 -0.2381 -0.0671  0.0206
20949W        W36843   4.620  11.140   1.004  0.0151 -0.1325  0.2510
20950W        W36844   9.826  13.807  15.735  0.1697  0.0654  0.1588
20951W        W36845  10.084   8.396  10.923 -0.0612 -0.2326 -0.0977
20952W        W36846   0.654  13.747   0.351  0.0024  0.0789  0.0415
20953W        W36847  16.742  16.021  16.268 -0.1018  0.0881 -0.0644
20954W        W36848   2.345  11.276  15.002 -0.2619 -0.1313 -0.1100
20955W        W36849   5.111   5.608   2.887 -0.0299 -0.1992 -0.1169
20956W        W36850  15.352   5.033  13.869 -0.1615  0.2164  0.1709
20957W        W36851   5.176   1.731  14.374 -0.2163  0.0337 -0.0855
20958W        W36852  17.841  16.111  15.936 -0.0496 -0.1928 -0.0917
20959W        W36853  16.379   1.185   5.572 -0.3649 -0.0904  0.1163
20960W        W36854  10.957   1.210  12.770  0.3526  0.2333  0.2333
20961W        W36855  18.134  13.911   5.954 -0.0496 -0.1054 -0.1733
20962W        W36856  13.128   3.349  12.997 -0.5152 -0.0537  0.2628
20963W        W36857  10.954   8.448  16.329  0.0045 -0.2934  0.0778
20964W        W36858   8.102  16.561  12.518  0.0972 -0.1319  0.0468
20965W        W36859   0.448   0.214   2.744 -0.1545 -0.0252 -0.2087
20966W        W36860   6.024  11.684   4.538 -0.0395  0.0528  0.1379
20967W        W36861   4.211   2.008   3.061  0.0664  0.1920  0.1241
20968W        W36862   7.408   6.343  15.467  0.1510  0.0569 -0.1546
20969W        W36863  10.839  13.082   2.428  0.1713  0.1397 -0.0526
20970W        W36864   2.583   7.737   2.899 -0.0997  0.3296 -0.2580
20971W        W36865  14.692  12.261   3.911  0.0806  0.0033 -0.1303
20972W        W36866   4.524  17.609  14.333 -0.0447 -0.1456 -0.1401
20973W        W36867  10.460  12.288  11.607 -0.0415  0.1523  0.1062
20974W        W36868  10.704   6.178   3.077  0.2864  0.1279  0.2763
20975W        W36869   8.108   7.242   0.999  0.0377 -0.1375  0.3636
20976W        W36870   8.152  15.229   4.063  0.0700  0.3583 -0.2550
20977W        W36871   2.255  13.842  13.943 -0.1760  0.0402 -0.1033
20978W        W36872   5.962  16.864  13.439 -0.0035  0.1158  0.2007
20979W        W36873   4.653  16.941  13.550 -0.5431 -0.1479  0.3942
20980W        W36874   4.236   8.139   2.620 -0.2583  0.1357 -0.3577
20981W        W36875  17.123  18.142   3.869  0.0011 -0.0368  0.0768
20982W        W36876   5.067   9.316   4.878  0.0001 -0.3913 -0.2091
20983W        W36877   1.768   1.243   0.504  0.1270  0.2171  0.1323
20984W        W36878  16.793   1.086   1.659 -0.0882  0.1325 -0.0935
20985W        W36879  16.713  11.867   5.575 -0.0824 -0.0606 -0.1620
20986W        W36880   7.812   7.779  13.301 -0.4022  0.0677 -0.3235
20987W        W36881   9.481   6.395   1.716  0.1236 -0.0389 -0.0745
20988W        W36882   1.299  14.853  15.101 -0.2266 -0.0417 -0.0864
20989W        W36883  16.378  13.249   2.420  0.1541  0.0389 -0.2857
20990W        W36884  10.985  17.968   1.805 -0.1850 -0.2133  0.4048
20991W        W36885   6.120  15.760   0.174 -0.1179 -0.1894 -0.0491
20992W        W36886   8.243   6.157  12.067 -0.1074 -0.2474 -0.0124
20993W        W36887   2.094   4.031  15.613 -0.0896 -0.0540  0.0999
20994W        W36888   5.443  11.223  15.989  0.4617 -0.1523  0.0827
20995W        W36889   3.634   6.601   4.250 -0.0183  0.3955  0.0821
20996W        W36890  13.287   8.032   2.009  0.0390  0.4806 -0.0964
20997W        W36891   1.433   2.608   0.232 -0.1728 -0.1370  0.2259
20998W        W36892   4.910  15.661  15.736 -0.0329  0.3059  0.1081
20999W        W36893  13.611   3.196  14.554  0.2120 -0.1455 -0.0138
21000W        W36894   8.807  14.417   5.326  0.2203  0.0492 -0.0993
21001W        W36895   0.220  16.402  13.079 -0.0195  0.2423 -0.0496
21002W        W36896   1.592   8.145  13.080  0.1623  0.0772 -0.1009
21003W        W36897  11.493  15.472  12.176  0.3982  0.0284 -0.4577
21004W        W36898   3.233  10.039   2.586  0.3156  0.2256  0.0187
21005W        W36899   5.413   3.593  13.073  0.2512 -0.0413  0.2101
21006W        W36900   6.286  14.154  12.651 -0.1187 -0.1434  0.3136
21007W        W36901   3.452   9.811   0.928  0.5053 -0.0686  0.2963
21008W        W36902   7.308  18.072   2.917  0.0031 -0.0565  0.0748
21009W        W36903  17.121  16.883  13.289 -0.0770  0.1446  0.1856
21010W        W36904  10.781   2.326  15.122  0.0189 -0.2859 -0.2958
21011W        W36905   9.310  10.594   5.363 -0.3550  0.0693  0.0390
21012W        W36906   7.986   0.678  15.622  0.1548 -0.0056  0.0038
21013W        W36907   2.548  16.509   2.391  0.1585 -0.1083 -0.2060
21014W        W36908   6.976  12.366   2.803 -0.2827  0.0380 -0.1381
21015W        W36909   8.278  12.725  11.615  0.1103  0.0719 -0.4073
21016W        W36910   9.496  13.781  14.846 -0.1879  0.0260 -0.0097
21017W        W36911   4.676  11.960   1.961 -0.0774 -0.0775 -0.2904
21018W        W36912  16.205  14.225  13.929  0.4926  0.1197 -0.0667
21019W        W36913   4.609  13.299   3.284  0.3535 -0.0479 -0.1991
21020W        W36914   1.884  10.809   4.728  0.3256 -0.2501  0.0023
21021W        W36915  10.276  13.126   0.577 -0.1504 -0.0375 -0.1290
21022W        W36916  13.074  11.533   4.451  0.0966  0.1403  0.0059
21023W        W36917  15.728   2.889   0.432  0.1904 -0.0622  0.2053
21024W        W36918  11.030   2.375  13.282  0.1216 -0.0917  0.1217
21025W        W36919   7.196  16.648   1.240 -0.0169 -0.0797 -0.2156
21026W        W36920   0.650   1.705  11.256  0.1405 -0.0120  0.0733
21027W        W36921  12.325   9.317   1.887  0.0483  0.1643  0.2458
21028W        W36922   9.874  14.566   0.222  0.0403  0.1823 -0.1917
21029W        W36923   4.365   7.629  11.929 -0.0329  0.2778  0.0903
21030W        W36924   6.840  15.565   4.411  0.1639  0.1812 -0.2189
21031W        W36925   1.052  10.809   4.052 -0.1272 -0.0670  0.1024
21032W        W36926  14.207   0.565  11.503 -0.2411  0.1376 -0.0837
21033W        W36927   4.873   4.653  13.119 -0.0304 -0.1275 -0.0311
21034W        W36928   7.530  15.962   6.104 -0.2143 -0.1357  0.0559
21035W        W36929   0.421  10.754  12.225  0.2241 -0.0059  0.3256
21036W        W36930   6.563  11.503   5.427  0.0534 -0.6029 -0.1364
21037W        W36931  11.829  10.420  12.879  0.2231  0.1404  0.0905
21038W        W36932   5.732  16.140   5.499 -0.0032 -0.0627  0.1194
21039W        W36933   2.778  13.870  14.760  0.0290  0.0217 -0.0632
21040W        W36934   5.504   5.075  13.889  0.0253 -0.0434 -0.0277
21041W        W36935   6.014   8.799   5.356  0.1009 -0.0415  0.4265
21042W        W36936  10.494   8.249  11.551 -0.0851  0.1226  0.2874
21043W        W36937   5.446  11.841  15.135 -0.1325 -0.0014  0.1979
21044W        W36938   1.300   0.738   1.090 -0.1024 -0.0556 -0.2660
21045W        W36939  12.472  17.176   5.212 -0.0431  0.0184 -0.2328
21046W        W36940  15.263   2.639   3.147  0.0204 -0.0079 -0.0266
21047W        W36941   6.602   9.464  15.242  0.0319 -0.0280  0.0027
21048W        W36942   8.231  16.362   3.439 -0.4704  0.0280 -0.1758
21049W        W36943   5.584   3.769  15.914  0.2123 -0.1954 -0.0423
21050W        W36944  13.244  15.219  12.894 -0.0794  0.0804  0.1761
21051W        W36945  17.042  13.160   1.987  0.1616  0.0814  0.0261
21052W        W36946   0.122   2.295   0.428 -0.4233  0.1740 -0.1705
21053W        W36947   9.587  10.450  13.062  0.2116 -0.1101  0.1213
21054W        W36948   6.382  13.804   0.536  0.0861  0.0891 -0.1731
21055W        W36949  11.873   1.731   0.217 -0.0834  0.0190 -0.2723
21056W        W36950   2.568  11.545  12.999  0.2728  0.0456 -0.0451
21057W        W36951   8.155   5.242   1.707 -0.2433 -0.1757 -0.1635
21058W        W36952   9.172   5.361   1.756 -0.0511 -0.0211 -0.3547
21059W        W36953  13.193   2.268   1.088 -0.0386 -0.0575 -0.0987
21060W        W36954  14.475   4.696  16.241  0.0387  0.1809 -0.0410
21061W        W36955   0.334   3.718  13.673 -0.1782 -0.0842  0.0038
21062W        W36956   6.968   0.113  13.042  0.0983 -0.1292 -0.1902
21063W        W36957  16.861  17.367   1.008  0.1905  0.2641  0.1406
21064W        W36958  11.448   4.539  12.849 -0.1000 -0.0876  0.0534
21065W        W36959   9.884  15.577  15.318  0.3158  0.1743 -0.1264
21066W        W36960   6.550   1.077  13.013  0.0324 -0.1634 -0.1531
21067W        W36961   5.136   0.316   2.784 -0.0870  0.3094 -0.1298
21068W        W36962  14.238   4.226   4.828  0.0588  0.0077  0.0428
21069W        W36963  13.599   7.213   3.026  0.0770 -0.2907  0.1052
21070W        W36964  10.991   8.177  12.322 -0.1238 -0.0371 -0.0278
21071W        W36965   1.435  16.873  11.745 -0.1447  0.2043  0.2039
21072W        W36966   4.195  10.169   2.468 -0.0551 -0.2642 -0.1580
21073W        W36967  10.074   5.193  12.228 -0.0230  0.1000  0.2718
21074W        W36968   7.473   3.497   2.755  0.0774  0.1588 -0.1629
21075W        W36969   6.911   9.949   0.745 -0.4953 -0.3096 -0.0453
21076W        W36970  14.705  15.116   5.135 -0.0942  0.0948  0.1521
21077W        W36971  16.679  16.636  15.408  0.2423 -0.0744 -0.0306
21078W        W36972  12.753  17.620  15.298  0.0168 -0.1487 -0.0197
21079W        W36973   2.474   4.241   2.465 -0.3043 -0.0914 -0.0269
21080W        W36974  18.211   4.027  12.791  0.0351  0.1620  0.2195
21081W        W36975   3.606  10.129   4.938 -0.1599 -0.0347  0.0900
21082W        W36976   2.188   4.823   3.924 -0.1204 -0.1627 -0.1402
21083W        W36977  12.225   1.572  16.021 -0.2153 -0.0106 -0.1119
21084W        W36978   1.861  12.598  16.265 -0.0243  0.1836 -0.3225
21085W        W36979   8.564   8.392   4.982  0.1316  0.4387 -0.1170
21086W        W36980   3.662  12.484  16.084 -0.0012  0.1834  0.0538
21087W        W36981   1.180   8.128  15.947 -0.1652 -0.0483  0.1032
21088W        W36982   3.908  10.707  14.937 -0.3389  0.1396  0.1280
21089W        W36983  13.847  10.928   4.599 -0.0487 -0.5481 -0.1184
21090W        W36984  12.602  17.860   3.926  0.3618 -0.1091  0.2030
21091W        W36985  11.529  17.976   1.761 -0.0088  0.1497  0.1608
21092W        W36986   0.559   0.509   0.367  0.1057  0.1572  0.0475
21093W        W36987  16.752   9.118   2.540 -0.0615  0.4128  0.1110
21094W        W36988   9.232   4.719   0.676  0.0614  0.0423 -0.3094
21095W        W36989   2.157   6.432  13.317  0.0864  0.0129  0.0034
21096W        W36990   4.019   7.936  11.557  0.3265 -0.2240 -0.1055
21097W        W36991   7.260   1.743   4.988 -0.3172  0.0083 -0.1270
21098W        W36992   1.216  18.060  15.829 -0.0499 -0.0469 -0.1264
21099W        W36993  13.840   7.872  15.599 -0.3386 -0.0719  0.1744
21100W        W36994   6.318  17.193   2.545  0.2282 -0.0585 -0.1391
21101W        W36995  17.052   0.951   5.591 -0.1806 -0.1038 -0.3760
21102W        W36996   2.779   8.613  11.887  0.0225 -0.3445 -0.2426
21103W        W36997  10.650   4.688  14.755 -0.1766  0.1022 -0.1115
21104W        W36998  12.841   3.051  16.382  0.0519  0.0755 -0.0147
21105W        W36999   9.327   4.269  15.702  0.1719  0.2071  0.0891
21106W        W37000  15.095  12.426   2.437  0.1192  0.3688 -0.1709
21107W        W37001  14.230   7.533   0.908  0.0626  0.0401  0.0248
21108W        W37002  10.453  17.971   1.662 -0.2215 -0.2043 -0.2128
21109W        W37003  14.249   1.495  13.340  0.2539 -0.1115 -0.5606
21110W        W37004  18.033  10.402   5.324 -0.2329 -0.0137  0.0594
21111W        W37005   3.741   5.616  13.711  0.0564  0.2188 -0.3291
21112W        W37006   0.940   1.395   4.004  0.2607 -0.0662  0.1911
21113W        W37007   5.978  10.207  12.431  0.0032  0.1348 -0.0254
21114W        W37008   4.473   8.745  14.646  0.1605 -0.3089 -0.1505
21115W        W37009   5.332   5.950   1.757 -0.2254  0.0345  0.1123
21116W        W37010  16.965  17.935  14.004  0.0098 -0.0400  0.3021
21117W        W37011   0.657  18.085  15.786  0.0573  0.0766 -0.2629
21118W        W37012   0.826   9.157   2.081 -0.0263  0.1091  0.0134
21119W        W37013   3.789  12.188   0.573  0.1826 -0.2921 -0.2497
21120W        W37014  11.477   7.178   1.345 -0.3136 -0.1210 -0.1653
21121W        W37015   5.931   0.585  14.304 -0.0485 -0.3300 -0.1260
21122W        W37016   1.361   7.526  11.757  0.4033 -0.2247  0.0184
21123W        W37017   9.985   5.099  11.582  0.0250 -0.3489  0.1698
21124W        W37018   3.455  15.385  15.557  0.0097  0.1651  0.0590
21125W        W37019  12.841  13.034  12.072 -0.0965 -0.0559 -0.1439
21126W        W37020  15.339  12.106  15.461 -0.4926 -0.0453  0.2409
21127W        W37021  11.859   7.562   1.256  0.4005 -0.1499 -0.1541
21128W        W37022  18.235  13.017  12.620  0.0952  0.1293 -0.3312
21129W        W37023   4.965   2.794  12.354  0.0732 -0.1861  0.2099
21130W        W37024   4.945  16.006  13.670 -0.2295  0.1137 -0.1869
21131W        W37025  16.681   2.199  13.193  0.0466  0.3598  0.1044
21132W        W37026  11.182  16.757  11.935  0.2301  0.2806  0.0361
21133W        W37027  15.616  12.323  11.828 -0.0640  0.1831  0.2965
21134W        W37028   8.270  17.688  13.081  0.1089 -0.0470 -0.1839
21135W        W37029   2.423   3.515  13.553 -0.0564  0.1636 -0.0200
21136W        W37030   5.070  10.851  14.275  0.2040  0.1295 -0.1736
21137W        W37031   1.540  17.982  12.212 -0.2507 -0.0933  0.1146
21138W        W37032   6.513  12.638  10.990  0.0037  0.0982  0.1768
21139W        W37033   8.459  11.784   4.181  0.1259 -0.1636  0.3683
21140W        W37034  14.691  13.143  16.085  0.1161 -0.2614  0.0162
21141W        W37035   3.543  12.981   3.788  0.0208  0.0262  0.1540
21142W        W37036  14.702  14.215  13.056 -0.1390  0.3475 -0.1767
21143W        W37037   8.539  10.588  10.685 -0.2580 -0.1327 -0.2400
21144W        W37038   9.744  12.304  13.265 -0.0049 -0.1635  0.2479
21145W        W37039   2.737  14.348   0.135 -0.1028  0.0500  0.0282
21146W        W37040  14.940  13.634   5.473 -0.2145  0.0312 -0.2178
21147W        W37041   3.893   3.702   1.197 -0.3344  0.0114  0.3686
21148W        W37042   5.117  17.686   3.041 -0.1546  0.1704  0.1866
21149W        W37043  16.231  10.442   5.400 -0.1165 -0.0945 -0.3554
21150W        W37044   1.168   6.434  13.851  0.0488  0.2519 -0.0381
21151W        W37045   7.924  16.189  15.297 -0.0846 -0.0459 -0.2484
21152W        W37046   2.578   9.682   1.086  0.1647 -0.2609  0.1339
21153W        W37047   2.969  16.319  12.625  0.2685  0.0726 -0.2039
21154W        W37048   4.993  11.645  14.864  0.3190  0.0950  0.0800
21155W        W37049   3.445   4.535   3.955 -0.2401 -0.1459 -0.1881
21156W        W37050  13.278   2.377  14.544  0.2121  0.1136  0.1096
21157W        W37051  15.914  14.988   5.331 -0.2504 -0.1013 -0.0566
21158W        W37052   1.304  16.726   6.098  0.1364 -0.0412  0.1080
21159W        W37053   4.732  17.004   5.439 -0.3500  0.3465  0.0514
21160W        W37054   8.399   2.303  13.367 -0.0962  0.0693 -0.1814
21161W        W37055  14.379   4.041   3.055  0.1657 -0.0223  0.2069
21162W        W37056  14.541  17.119   2.416 -0.1446 -0.0757 -0.3663
21163W        W37057  12.940   8.542  11.531  0.1612 -0.1431  0.1155
21164W        W37058   9.570  13.444   1.486 -0.0842 -0.0605 -0.3767
21165W        W37059  10.176  12.292  11.040  0.0631  0.2645 -0.1978
21166W        W37060   6.550  17.926   6.146 -0.2962 -0.1714  0.1256
21167W        W37061  16.502   6.204   0.864  0.1509 -0.0215 -0.2608
21168W        W37062   4.971  15.603   1.665 -0.1832 -0.0011 -0.0800
21169W        W37063  14.570  16.672   2.249  0.3646  0.3462 -0.4151
21170W        W37064  14.187  16.381   2.084 -0.1080  0.0259  0.0583
21171W        W37065  15.059  13.024   0.015 -0.2016 -0.1680 -0.0563
21172W        W37066   4.954  14.797  12.903 -0.1797  0.1011  0.0256
21173W        W37067   4.179   1.916  16.075  0.0176  0.1137  0.2418
21174W        W37068   3.776   7.262  12.828  0.2420 -0.1010 -0.3241
21175W        W37069  17.578   2.794  13.735  0.0334 -0.3058 -0.1329
21176W        W37070   7.507  10.772   3.897  0.1186 -0.0182  0.1034
21177W        W37071   5.300   0.884  11.656 -0.0484 -0.0123  0.0837
21178W        W37072  16.879  10.009  13.734 -0.3063  0.0264  0.0981
21179W        W37073  10.200   7.533   5.264 -0.0034  0.2308 -0.0741
21180W        W37074  14.455   0.186  11.921  0.0128 -0.4474  0.2764
21181W        W37075  16.277  13.830  16.264 -0.1930  0.0243  0.1229
21182W        W37076  10.273  12.143   6.101 -0.1687  0.0013  0.1299
21183W        W37077   4.004   6.431   5.556 -0.3273  0.4387  0.1582
21184W        W37078   8.902  10.221   2.579 -0.1864 -0.3472  0.0143
21185W        W37079   2.746   0.498  11.914  0.1847 -0.1095  0.1401
21186W        W37080   6.631  17.862   0.792  0.1294  0.3372  0.3044
21187W        W37081   7.897  12.185   1.132 -0.0735  0.2303  0.1459
21188W        W37082  12.342  10.993  14.948 -0.0085 -0.1243 -0.0293
21189W        W37083   1.765  17.496   1.120 -0.1066 -0.2445  0.1826
21190W        W37084   0.337   5.185   2.528  0.0933  0.0315 -0.0953
21191W        W37085   8.864   5.542   0.984  0.0322 -0.1045  0.3740
21192W        W37086  12.027   9.629   2.667  0.1359 -0.1364 -0.1001
21193W        W37087   4.222   4.503  13.187 -0.2013  0.0258 -0.2951
21194W        W37088   0.198   1.020  14.495  0.0308  0.0539 -0.1740
21195W        W37089   1.769  14.597   1.574 -0.2977 -0.2743  0.1566
21196W        W37090  10.992  11.209  15.039 -0.1615  0.3575  0.0247
21197W        W37091   3.246  16.019  13.589  0.1250 -0.2311 -0.2980
21198W        W37092  12.803   0.740  15.030  0.0940 -0.3363 -0.0245
21199W        W37093   6.177  14.342  12.169 -0.1971 -0.1502  0.0281
21200W        W37094   9.731  13.603   3.786  0.0364  0.2269  0.2402
21201W        W37095  18.108  10.146  15.262 -0.1490  0.0331  0.0902
21202W        W37096   8.252   9.518  11.147 -0.0964  0.1954 -0.1276
21203W        W37097   2.606  12.317   2.241 -0.2748 -0.1395 -0.3253
21204W        W37098  16.903   1.619  12.102 -0.0152  0.2808  0.0078
21205W        W37099   2.873  17.583   3.832  0.2836 -0.0909  0.2000
21206W        W37100  13.256  12.635   5.273  0.1020  0.2873 -0.0424
21207W        W37101   0.424  16.529  15.941 -0.0758  0.0482 -0.2127
21208W        W37102  10.701  17.414  14.038 -0.1338 -0.0820 -0.2129
21209W        W37103  12.309   9.752   0.871  0.0524  0.1694  0.0208
21210W        W37104  10.179   3.322   2.779 -0.1038 -0.1357 -0.1011
21211W        W37105   5.060   9.228  12.299  0.0495 -0.1352 -0.1222
21212W        W37106   2.102   6.788   2.390 -0.0740 -0.1276 -0.0376
21213W        W37107  10.349  11.362   1.048 -0.0157 -0.2908  0.0744
21214W        W37108  13.263  11.793  14.402  0.1604 -0.0605  0.1547
21215W        W37109   9.332   1.355  12.717 -0.0859  0.1635 -0.0586
21216W        W37110  18.089   1.872  14.803 -0.0823 -0.2139  0.0751
21217W        W37111   6.235  15.813   2.763 -0.0494  0.0462 -0.2551
21218W        W37112  10.848   0.193   2.131 -0.1290  0.0393  0.2235
21219W        W37113  10.172  10.793   1.205  0.0878  0.0544  0.2468
21220W        W37114   5.295  14.763   1.769  0.1718 -0.0015 -0.2261
21221W        W37115   9.468   4.972   1.637 -0.3066  0.2228  0.1135
21222W        W37116   4.356   4.171   2.650 -0.0012 -0.0607  0.1166
21223W        W37117  11.697  10.466   3.628 -0.1874 -0.0707  0.1517
21224W        W37118   0.170   2.642   4.157  0.0658 -0.4418  0.1900
21225W        W37119   7.705  16.719  16.229 -0.3436  0.1223 -0.2607
21226W        W37120  18.129  11.610  16.380  0.0361 -0.0939  0.0158
21227W        W37121   8.290   0.501  12.969 -0.0079 -0.2232 -0.4743
21228W        W37122   7.853  12.731  14.394  0.1422 -0.0638  0.0915
21229W        W37123  13.106   0.715   4.510 -0.0255 -0.3255  0.1091
21230W        W37124   2.870   0.083  13.254 -0.3620 -0.3037 -0.1517
21231W        W37125  13.144  12.093   2.338 -0.2921  0.0894  0.3503
21232W        W37126   5.339   4.041  12.819 -0.1041  0.0278  0.2014
21233W        W37127   6.084   1.548   3.378  0.0564  0.0419  0.1782
21234W        W37128  14.207   5.144  11.073 -0.2624 -0.0204  0.2292
21235W        W37129   0.151   2.680  15.805 -0.2973 -0.1998  0.0847
21236W        W37130  12.253  10.206  13.124 -0.1801  0.0390  0.0864
21237W        W37131   4.353  15.685   5.359  0.2093 -0.4029  0.0912
21238W        W37132   3.047   6.469  11.832  0.3734 -0.1674 -0.0815
21239W        W37133   7.617   4.958   4.001  0.0570  0.2843 -0.2191
21240W        W37134   6.249   6.254   2.209 -0.3207  0.1620  0.0726
21241W        W37135  17.348   6.166  15.667 -0.0887 -0.1444 -0.3164
21242W        W37136  15.213   4.841  15.187 -0.2991  0.0122 -0.3027
21243W        W37137  10.225   4.823   4.143 -0.0828 -0.1568  0.0475
21244W        W37138   7.705  12.238   4.719 -0.0954 -0.1084 -0.0709
21245W        W37139  17.074  14.247  12.880  0.0489 -0.1607 -0.3058
21246W        W37140  10.221   5.230  15.335  0.0272  0.1171  0.0421
21247W        W37141   3.828  11.788   6.090  0.1249  0.3745  0.1966
21248W        W37142   0.262  17.195  13.790  0.1247 -0.0448 -0.0542
21249W        W37143   0.351  17.816  14.921 -0.0348 -0.0620  0.0366
21250W        W37144  11.818  17.732  15.002  0.0001 -0.2140 -0.2173
21251W        W37145  10.808   5.787  14.846 -0.2325 -0.3331 -0.2301
21252W        W37146  14.125  17.552  15.348  0.4368 -0.0604  0.1787
21253W        W37147   3.841  15.849  12.862  0.0004 -0.0500  0.0496
21254W        W37148   3.441  14.065   4.936  0.0633  0.0264 -0.1375
21255W        W37149   3.379   2.045  15.547  0.4355 -0.1729 -0.1382
21256W        W37150  15.742  13.942   5.039  0.1708 -0.0575  0.1904
21257W        W37151   0.964  15.713   3.503 -0.2054 -0.4883 -0.2517
21258W        W37152   2.944   5.755  14.998 -0.1540 -0.2767  0.2064
21259W        W37153   2.880  13.453  12.026  0.2391  0.1929 -0.1882
21260W        W37154   0.775   3.457   1.665 -0.0505  0.1652  0.2615
21261W        W37155   8.575   4.986  13.441  0.2584 -0.2230  0.1423
21262W        W37156   2.304   6.505   1.647 -0.2676  0.1606 -0.1222
21263W        W37157   4.507   3.158   2.882  0.0295 -0.0112 -0.0779
21264W        W37158   4.968  10.146   3.758  0.0745  0.2363 -0.2141
21265W        W37159   5.166  15.048   4.491  0.2656 -0.1437 -0.0272
21266W        W37160  16.234  15.549   3.424  0.2126 -0.1427 -0.0792
21267W        W37161   1.504   5.304  12.565 -0.2089  0.1854 -0.2549
21268W        W37162  17.699  10.258  12.434  0.2834  0.4103 -0.1731
21269W        W37163   2.137   1.321  13.587 -0.2358  0.3374 -0.1639
21270W        W37164   1.296   7.270   3.781 -0.0081 -0.1191  0.2104
21271W        W37165  18.014   5.863  14.832 -0.0773 -0.2727  0.2016
21272W        W37166   9.047   1.306  13.710  0.0036 -0.1329  0.0665
21273W        W37167   2.269   2.775   3.086  0.1177  0.3299 -0.3719
21274W        W37168   5.662  14.832  15.277 -0.1015 -0.0276  0.0472
21275W        W37169  10.283   7.594  16.245 -0.0471  0.1214  0.0285
21276W        W37170   0.901  16.054   3.047 -0.1246  0.0829 -0.2757
21277W        W37171  17.618  11.147  14.971  0.2078 -0.1899  0.1269
21278W        W37172   1.488   3.213   3.397  0.1070 -0.0387  0.0046
21279W        W37173   7.156  13.367   4.817  0.3277  0.2897  0.2734
21280W        W37174   3.768  11.392   4.373 -0.1850  0.1196  0.2655
21281W        W37175   6.589   9.580  13.038 -0.0692 -0.1030  0.1296
21282W        W37176  16.822  17.883  15.664 -0.4246 -0.2102  0.0312
21283W        W37177   6.470   1.132  14.938 -0.3799 -0.0315 -0.1910
21284W        W37178   9.384   0.108   2.591  0.0419  0.0361  0.0341
21285W        W37179   5.899  14.939   3.579 -0.0192 -0.1143  0.1581
21286W        W37180   6.576  18.038  13.793  0.1384 -0.1537  0.1868
21287W        W37181   8.973   8.271  13.417  0.0289  0.0211  0.3150
21288W        W37182  17.334   9.159  10.951 -0.2441  0.0495 -0.1463
21289W        W37183  12.465  10.996  15.493  0.0483  0.2535  0.0219
21290W        W37184  11.399   5.383   2.464 -0.1031 -0.1518  0.4668
21291W        W37185  13.392  16.485  11.725 -0.1391  0.3736  0.2947
21292W        W37186   3.203  14.653  15.151 -0.0087 -0.0972  0.0226
21293W        W37187   4.381  17.895  16.404  0.3856  0.1483 -0.1132
21294W        W37188   4.162   4.160  12.808  0.0084 -0.3259  0.0359
21295W        W37189   6.117   9.709  14.422  0.1018 -0.0703 -0.1786
21296W        W37190   3.910   5.994   0.613 -0.0959 -0.1569  0.0284
21297W        W37191  13.866   5.507   4.342  0.1380  0.0553  0.3813
21298W        W37192  15.989  17.491  12.305 -0.1253  0.1236  0.2004
21299W        W37193   4.567  16.440   3.248 -0.0799 -0.0169  0.0508
21300W        W37194   4.054  18.068  12.565  0.2231 -0.1545  0.0178
21301W        W37195  16.183  17.673  15.898 -0.1407  0.7361 -0.0322
21302W        W37196  11.297   7.628   5.337 -0.0141 -0.0114 -0.0103
21303W        W37197  12.441  15.724  12.541  0.1627 -0.1961  0.0998
21304W        W37198   4.908   9.891  15.220  0.0361 -0.2082  0.2791
21305W        W37199  11.881   7.404  15.805 -0.0255  0.1308 -0.2035
21306W        W37200   3.595  17.798   1.521 -0.0823  0.2757 -0.3899
21307W        W37201   4.668   0.662   3.634 -0.2073 -0.1392 -0.0325
21308W        W37202   9.455   2.778   2.673  0.0145  0.0341 -0.0420
21309W        W37203   0.308   8.564  13.602  0.3271 -0.1154  0.0260
21310W        W37204   7.505  10.901  15.292  0.2913 -0.1507  0.1842
21311W        W37205   1.999   5.825   2.399  0.3294  0.0385 -0.0876
21312W        W37206  16.856  17.096  12.320 -0.1039 -0.2316 -0.4791
21313W        W37207   0.287   3.013  12.608  0.2734  0.2556 -0.0748
21314W        W37208   5.978  15.821  15.515  0.0329  0.2485 -0.1650
21315W        W37209   8.593  10.427  12.580 -0.2166  0.2259  0.0700
21316W        W37210  12.872   9.906   2.988  0.4061 -0.0466  0.3987
21317W        W37211  10.157  18.020   4.974  0.1926 -0.0528 -0.1201
21318W        W37212   4.159   2.540  10.715 -0.2142  0.1853  0.1605
21319W        W37213  13.705  15.468   1.135 -0.0839 -0.0798  0.0922
21320W        W37214   9.193  13.078   4.562 -0.1215 -0.0090  0.2471
21321W        W37215   5.326  15.366   3.166 -0.1361  0.2751 -0.2950
21322W        W37216  11.914   4.484  16.398  0.1373  0.0769  0.1529
21323W        W37217  11.525  15.563  15.857 -0.2138 -0.0269 -0.2195
21324W        W37218  13.131  16.216   4.562  0.1277  0.1848 -0.0222
21325W        W37219  12.352  12.835   2.566  0.1431 -0.2116 -0.4045
21326W        W37220   7.849  10.112  13.448  0.0239  0.1912  0.0698
21327W        W37221   0.371   4.610   5.328 -0.0003  0.1619  0.0794
21328W        W37222   9.949  14.338   3.941  0.1007  0.1105  0.0787
21329W        W37223   6.484  17.181  11.790 -0.1435  0.1689 -0.1309
21330W        W37224  15.258  13.003  13.417 -0.1716 -0.2838  0.1532
21331W        W37225  14.741   3.394   4.702 -0.1021  0.0446  0.1319
21332W        W37226  13.853   3.288   2.361 -0.1995 -0.2458 -0.0312
21333W        W37227  13.731   0.336  11.446 -0.0771 -0.0451 -0.0563
21334W        W37228  13.254   9.751  12.706 -0.0534  0.0888 -0.1128
21335W        W37229   5.574  12.160  14.384 -0.2563  0.0171  0.1393
21336W        W37230   0.835  16.183  14.509  0.0482  0.2295 -0.1996
21337W        W37231   8.394  11.368  12.557 -0.2741  0.1604 -0.1091
21338W        W37232  12.650   0.418   2.413  0.2170  0.1020  0.3163
21339W        W37233   3.127   8.448  16.262 -0.0104  0.3222 -0.1087
21340W        W37234   5.801  16.348   1.744  0.2777  0.2642  0.3107
21341W        W37235  10.062  11.626   0.592  0.0297  0.1068 -0.1630
21342W        W37236  14.093  15.678   0.874 -0.0317  0.1171  0.1042
21343W        W37237   0.869  11.517   1.164 -0.0975 -0.2998 -0.0977
21344W        W37238   8.717   8.975   5.257 -0.2575  0.0256  0.0206
21345W        W37239  11.598   9.453   2.379  0.0511 -0.1713 -0.0305
21346W        W37240  10.222   0.058  16.114 -0.1642 -0.1183 -0.2996
21347W        W37241   0.874   0.829  13.331  0.0920 -0.0619  0.0178
21348W        W37242   5.499   2.084   4.902  0.2160 -0.1705  0.1366
21349W        W37243   7.691   2.507  15.542 -0.1449 -0.2590  0.3506
21350W        W37244   2.587   4.243  13.433  0.2085 -0.1653  0.1751
21351W        W37245   8.692   3.208  11.205 -0.0146  0.1761 -0.1713
21352W        W37246   7.417   6.950   0.394  0.3448 -0.0781  0.2455
21353W        W37247  16.285   9.860  15.558 -0.0876  0.0910 -0.2150
21354W        W37248  11.241  12.165  16.028 -0.4486  0.1596  0.1799
21355W        W37249   2.672  18.027   3.620 -0.0328 -0.1611 -0.0261
21356W        W37250   0.164   3.388   3.209  0.0764  0.0381 -0.0120
21357W        W37251  11.518  11.593   5.175  0.2238 -0.1034  0.2894
21358W        W37252   6.045  15.048  12.267 -0.3307 -0.1749 -0.1820
21359W        W37253  14.294  18.234   2.701  0.1414 -0.0030  0.0847
21360W        W37254   2.117   3.832  16.397 -0.1725  0.0872 -0.1020
21361W        W37255   7.580   6.906  13.795  0.1689  0.0031 -0.0157
21362W        W37256  18.142   9.727   1.457  0.2156 -0.1572  0.0482
21363W        W37257  14.037   3.685   1.486 -0.3017 -0.0767  0.2899
21364W        W37258  11.142   2.908  14.171  0.0381 -0.2835 -0.2533
21365W        W37259  16.214  16.378   3.999 -0.1096 -0.1818  0.0627
21366W        W37260   6.372   2.052   2.377 -0.2930  0.1434  0.0080
21367W        W37261   4.911   3.985  13.746  0.2009  0.1897  0.0898
21368W        W37262   9.517   3.416   4.810  0.1073 -0.0629 -0.3475
21369W        W37263   5.886   1.589  11.465  0.2874 -0.0456  0.0330
21370W        W37264   2.711   1.079   2.483  0.2498  0.2012 -0.3177
21371W        W37265  10.373   3.150  14.869  0.0497 -0.1231 -0.0694
21372W        W37266  17.250   9.496  12.389 -0.1341  0.0861 -0.0477
21373W        W37267   6.423  14.130   3.338 -0.0925 -0.1873 -0.1675
21374W        W37268   7.059   2.706  12.851  0.1810  0.0473 -0.2276
21375W        W37269  13.557   8.709   5.434  0.2659  0.1844  0.1206
21376W        W37270   8.880   2.709   5.047  0.0732  0.1777  0.0447
21377W        W37271  13.953  12.762   1.273  0.2806 -0.0225 -0.1445
21378W        W37272   8.592  16.462  12.889  0.1227  0.1557  0.0209
21379W        W37273   0.438   1.977  12.606 -0.0154 -0.1474  0.1328
21380W        W37274   0.138  12.257   3.302 -0.0396 -0.0218  0.3585
21381W        W37275   0.121   4.277   5.608 -0.0173  0.0509 -0.2095
21382W        W37276   1.636   4.970  12.236  0.0912 -0.3036  0.1859
21383W        W37277   8.294   7.361  10.526 -0.0276 -0.1715 -0.1820
21384W        W37278   9.113  14.656   4.991 -0.2346 -0.0638  0.2071
21385W        W37279  16.555  12.744   1.353 -0.1845  0.1099 -0.0463
21386W        W37280   0.104   9.667  15.261 -0.1507 -0.0743  0.0908
21387W        W37281   1.988  17.475  13.256 -0.1663 -0.0148  0.1079
21388W        W37282   5.691  10.263   5.847  0.1999 -0.1471  0.0442
21389W        W37283  13.215  12.725  11.228  0.2390 -0.2328  0.1770
21390W        W37284  13.136  16.624   2.529  0.1167  0.2206 -0.1897
21391W        W37285   0.257  12.772   5.375 -0.4278 -0.1062  0.0203
21392W        W37286   3.079   1.214  13.294  0.0956  0.4306 -0.0473
21393W        W37287   6.859   2.788   3.662 -0.2554  0.0936 -0.4577
21394W        W37288   5.968   2.483  11.442  0.2307 -0.0718 -0.1932
21395W        W37289   1.113  17.168  14.366  0.0789  0.0140  0.2123
21396W        W37290   2.341  16.198   4.115  0.1065 -0.2856  0.2443
21397W        W37291  17.522  15.580   1.344  0.1951 -0.1747 -0.3346
21398W        W37292   6.121  14.241   1.913 -0.2575  0.0744 -0.0767
21399W        W37293   3.395   7.747   4.691  0.1353 -0.1578 -0.1536
21400W        W37294  18.020   8.799  15.224  0.2187  0.0690 -0.0777
21401W        W37295   9.983  15.935   1.208  0.2621  0.2109  0.0076
21402W        W37296  16.540  11.905   0.044  0.2087 -0.0527  0.0369
21403W        W37297   2.538   9.188  13.590 -0.1996 -0.1394 -0.1781
21404W        W37298   1.678   9.945  12.049  0.0059  0.1184 -0.3367
21405W        W37299  11.682   1.452  14.661  0.0378 -0.1866 -0.1062
21406W        W37300  13.427   2.134  16.089  0.1267 -0.1073 -0.0511
21407W        W37301   3.835   6.944   1.978  0.0682 -0.1428  0.0729
21408W        W37302  10.553  14.895  14.589  0.2401  0.2917 -0.0429
21409W        W37303  17.910  13.904   2.462  0.1105 -0.3292  0.2131
21410W        W37304  12.060  15.500   1.956  0.1533 -0.0060  0.1111
21411W        W37305  16.017  13.656  11.248 -0.3531 -0.1904  0.1254
21412W        W37306   0.840   5.161  12.800 -0.2422  0.0035  0.7169
21413W        W37307   2.281  12.380   5.639  0.2118  0.2302 -0.1476
21414W        W37308   2.807   0.002  11.008 -0.2015  0.0117 -0.0579
21415W        W37309   2.636  14.607   0.915 -0.1410 -0.5021  0.0825
21416W        W37310   6.457  11.273   2.796  0.2205 -0.0532 -0.3053
21417W        W37311   1.177  11.130   2.848 -0.0143  0.1848  0.2510
21418W        W37312  10.417  11.521   2.468 -0.2539 -0.0629  0.2386
21419W        W37313  16.630   7.007   2.434  0.1080 -0.2775  0.1074
21420W        W37314   2.088   4.840  12.006  0.0013 -0.1519 -0.2320
21421W        W37315   6.222  17.569   5.255 -0.4433  0.1420  0.0202
21422W        W37316  15.163  11.044   6.707  0.1033 -0.2602 -0.4565
21423W        W37317   2.195   1.533   2.374  0.2392  0.1456  0.1564
21424W        W37318   7.372   9.001  15.769  0.0378  0.3391 -0.1055
21425W        W37319   9.365  12.948  15.508  0.1478  0.2107 -0.0455
21426W        W37320   6.031   7.651  11.281  0.1268  0.1447 -0.4839
21427W        W37321   0.861  13.245   0.158  0.0928  0.1595  0.0136
21428W        W37322  14.781  10.338  15.393 -0.0184  0.0453  0.2694
21429W        W37323   6.101   4.014   3.566 -0.4176 -0.0474 -0.1198
21430W        W37324  15.978   0.798   4.630  0.2530  0.1656 -0.2976
21431W        W37325  17.997  17.722  13.210  0.2064  0.0165 -0.0237
21432W        W37326  13.488  12.883  16.395 -0.1882 -0.2954  0.1690
21433W        W37327   2.905  16.071   4.265  0.0010 -0.1381  0.0898
21434W        W37328  18.145  13.024   5.615  0.1445 -0.1351 -0.4267
21435W        W37329  13.218  12.568   2.634  0.4075 -0.2693  0.0913
21436W        W37330  11.720   2.971  16.199  0.0118 -0.1280  0.1694
21437W        W37331   5.190   8.958  12.792 -0.1983  0.2670 -0.1994
21438W        W37332  15.662   3.700   0.387 -0.1195  0.1335 -0.0303
21439W        W37333  16.814   0.511  15.029  0.1240  0.1644  0.0787
21440W        W37334   5.436   2.138   0.208  0.0464  0.0319 -0.0431
21441W        W37335   9.898   5.855   4.258  0.1935  0.1454  0.1765
21442W        W37336   6.117   6.916   5.098  0.3442  0.0164 -0.2824
21443W        W37337   2.594   2.746   5.057  0.1853  0.3239 -0.3257
21444W        W37338  17.546  16.787   0.598  0.1290 -0.1496  0.4241
21445W        W37339  12.593   2.588  13.781 -0.1698  0.0297  0.1704
21446W        W37340   0.548  14.418  13.725  0.1986  0.3000  0.2686
21447W        W37341   9.224   8.288  13.939  0.0577 -0.1084  0.1046
21448W        W37342  14.006   7.263  14.973  0.0377 -0.3687 -0.0542
21449W        W37343   6.611  17.930   4.452  0.1246 -0.0782  0.1956
21450W        W37344   7.384   9.060   4.268 -0.4009 -0.1846 -0.2277
21451W        W37345   1.062  15.737   1.571  0.0119  0.1439 -0.1104
21452W        W37346   4.650   3.798  14.238  0.0562 -0.2979  0.1709
21453W        W37347   1.681   7.073  11.790 -0.0448 -0.2345 -0.1810
21454W        W37348   4.652  16.917   4.554 -0.0998 -0.2017 -0.3147
21455W        W37349   4.554   9.987   4.972 -0.0451  0.1874  0.0496
21456W        W37350  17.059  16.501  11.265  0.0262 -0.0877  0.1259
21457W        W37351  11.567   8.799   1.141 -0.2792  0.1510  0.1876
21458W        W37352  10.983  12.298  13.820  0.1550  0.1647 -0.2733
21459W        W37353  16.806  14.147  12.047  0.0278  0.0667  0.3812
21460W        W37354   1.566   1.146   1.882 -0.1940 -0.0712 -0.2873
21461W        W37355  17.809   8.917   0.795 -0.0975  0.2015  0.1010
21462W        W37356  10.354  15.923   2.022  0.1633 -0.0088  0.3402
21463W        W37357   2.421  16.588  13.262 -0.1746 -0.0933 -0.1005
21464W        W37358   7.365  14.661  15.444 -0.0562  0.3668  0.0672
21465W        W37359   2.270   2.483  11.605 -0.0926 -0.1158  0.0859
21466W        W37360   1.126   4.603   3.857  0.0063  0.2201 -0.2360
21467W        W37361  14.629   5.816  12.908 -0.0647  0.0301 -0.0038
21468W        W37362   6.911   6.473  15.065  0.3017  0.0708 -0.0861
21469W        W37363   1.086  16.831   1.693 -0.2265  0.0998  0.0164
21470W        W37364  10.847   7.187   2.674  0.2451  0.1276  0.0885
21471W        W37365   8.811  16.783   5.174 -0.1364 -0.3391 -0.2211
21472W        W37366  11.998   6.486   2.718  0.1429 -0.0665 -0.1759
21473W        W37367  10.136   0.071  11.270 -0.2685  0.0379  0.0126
21474W        W37368   7.373   6.981  11.625  0.0219  0.1709 -0.1382
21475W        W37369   3.321   9.104  13.156 -0.1835  0.1419 -0.0904
21476W        W37370   5.144   7.423  12.440 -0.0025 -0.2790  0.0506
21477W        W37371   9.624   0.596   4.096 -0.3339  0.0182  0.0489
21478W        W37372   5.111   2.808   1.676 -0.2748  0.1691 -0.0243
21479W        W37373  11.833   7.733  14.369 -0.0849 -0.2153 -0.0850
21480W        W37374  10.100   0.301  15.529  0.0902 -0.0212  0.2494
21481W        W37375   1.324   6.823  13.547  0.0985  0.1084  0.0624
21482W        W37376  14.279   5.585   0.168  0.0361  0.1257 -0.2503
21483W        W37377   9.804   9.301  14.307  0.1386 -0.0333 -0.1248
21484W        W37378  16.652  17.360  15.919  0.1973 -0.2807  0.1109
21485W        W37379  13.418  16.737  13.767  0.2270  0.3190 -0.1291
21486W        W37380   1.059  14.883  14.629 -0.1940  0.1075  0.0018
21487W        W37381   2.755   2.835  15.954  0.0440  0.2690 -0.0588
21488W        W37382  15.562   4.176   0.620  0.1138 -0.1703  0.3801
21489W        W37383   3.559   5.737   3.176  0.1628 -0.1575  0.0162
21490W        W37384   1.719  16.378  11.796  0.0202 -0.3395 -0.1634
21491W        W37385  17.731   2.016   0.713 -0.1829 -0.2162  0.3703
21492W        W37386   4.149   3.996  13.303  0.4241  0.0151  0.0556
21493W        W37387   2.180  12.000   0.888 -0.0390 -0.2127 -0.0892
21494W        W37388   2.834  16.856  13.423  0.1374 -0.0168  0.0244
21495W        W37389   2.501   8.652   3.870 -0.0199  0.3339 -0.0461
21496W        W37390  12.061  10.542   5.961  0.3639 -0.3065 -0.0188
21497W        W37391   0.407  14.595   4.946 -0.2975 -0.0539 -0.1454
21498W        W37392  15.885  17.179   1.918  0.0765 -0.1056 -0.3043
21499W        W37393   3.459  10.723  15.677  0.0318  0.1938  0.1599
21500W        W37394   3.763   5.332   5.119 -0.2958 -0.2196  0.3561
21501W        W37395  15.235   5.213  12.462  0.1813 -0.0486 -0.0762
21502W        W37396  16.495   1.695   5.938 -0.4163 -0.1895 -0.1017
21503W        W37397   4.145   2.404   0.044  0.1106  0.0325  0.0787
21504W        W37398   8.828   5.914   4.964 -0.0121  0.1875  0.2002
21505W        W37399  14.126   3.154  13.797 -0.3292 -0.0377 -0.2673
21506W        W37400  12.523   9.504   2.639 -0.5355 -0.1062  0.1939
21507W        W37401   0.683   6.037   1.925  0.1058 -0.1658  0.0050
21508W        W37402   1.116  13.433  16.144  0.1653 -0.2445 -0.1365
21509W        W37403  17.403   8.432   4.349  0.1994  0.1853 -0.0911
21510W        W37404  17.363   0.734  12.580 -0.4674  0.0544 -0.2851
21511W        W37405  10.184  17.010   2.593 -0.2016 -0.0294  0.0143
21512W        W37406  12.982   7.844   5.563  0.0655 -0.2531  0.0920
21513W        W37407   0.736  11.412   1.993 -0.2116  0.0512  0.1610
21514W        W37408  14.508   7.730  10.993 -0.0844  0.3945 -0.0535
21515W        W37409  15.489  10.602   6.867 -0.1818  0.1222 -0.5006
21516W        W37410  13.764   4.693   5.449 -0.2871 -0.1481 -0.0379
21517W        W37411  16.543  10.307  12.143  0.1399 -0.2299 -0.0246
21518W        W37412  16.823  16.504   4.787  0.0727  0.0235 -0.2481
21519W        W37413  17.862   1.298  11.970 -0.1527  0.0568 -0.0243
21520W        W37414   5.482   6.458   1.705 -0.3788 -0.1699  0.0673
21521W        W37415   0.685   1.561   5.293 -0.0805  0.0195 -0.2248
21522W        W37416  14.704  12.255   2.225  0.2658  0.1537 -0.1527
21523W        W37417  13.942  12.686   2.149 -0.0031  0.2517  0.2157
21524W        W37418  17.967   5.183   1.027  0.0843 -0.2442  0.2667
21525W        W37419   6.695   0.318   3.467  0.0193 -0.1162 -0.0837
21526W        W37420   5.481   4.538  15.527  0.0245 -0.2314 -0.1781
21527W        W37421   6.855   1.341   2.950 -0.2756 -0.1812 -0.1771
21528W        W37422  12.628   5.895   4.255  0.1302  0.1484 -0.0213
21529W        W37423   5.296  11.804   2.677 -0.1725  0.0564 -0.1690
21530W        W37424  12.950   0.121   0.101  0.1248 -0.1751  0.4240
21531W        W37425   7.816   6.397  11.956 -0.0457  0.0496  0.2093
21532W        W37426  12.508  16.349  15.494  0.0477 -0.1265 -0.1011
21533W        W37427   3.664  17.861  13.294  0.1508 -0.0009 -0.2246
21534W        W37428   9.292   5.650   0.441  0.0590 -0.4273 -0.2957
21535W        W37429   2.888   2.559  10.663 -0.1359 -0.6184 -0.0549
21536W        W37430   3.024   5.503   0.500 -0.0859 -0.2661 -0.1558
21537W        W37431  14.756   8.744  13.903  0.2663 -0.2627 -0.2715
21538W        W37432   6.385   1.941  10.730 -0.0727  0.0746  0.1202
21539W        W37433   3.810   3.697   3.417  0.1366 -0.0242  0.0710
21540W        W37434   6.901  16.533   5.552 -0.1738 -0.3301  0.2194
21541W        W37435   5.518   1.270   1.532  0.0069  0.1329  0.2875
21542W        W37436   0.744  16.474  14.967 -0.0863  0.0418  0.0169
21543W        W37437  12.845  11.226   4.837  0.0254  0.1067 -0.0146
21544W        W37438   8.158   2.823  11.861  0.0669  0.1993  0.2542
21545W        W37439  16.983   1.302   3.777 -0.0816 -0.1405  0.0897
21546W        W37440   5.094   6.240  16.450  0.0060  0.0110 -0.2821
21547W        W37441  14.958   0.108   4.592  0.0730 -0.3201 -0.2611
21548W        W37442  14.129   1.795   1.488 -0.0890 -0.3714  0.2085
21549W        W37443   8.706  14.330   2.851 -0.2105 -0.2287  0.3333
21550W        W37444   1.025  17.056  13.316 -0.2173 -0.3790 -0.0899
21551W        W37445  10.581  12.954   0.087 -0.0128  0.2335  0.1911
21552W        W37446   9.379  10.332  13.497  0.3436  0.3953 -0.1077
21553W        W37447  10.260   1.105  12.667 -0.0351  0.0754 -0.0161
21554W        W37448  16.302   8.378   2.484 -0.2707  0.1270 -0.0382
21555W        W37449  11.319   9.515   5.370  0.0805 -0.1137 -0.4793
21556W        W37450  15.017  12.648   4.862  0.1936 -0.0617 -0.3432
21557W        W37451   0.906   5.973  12.147  0.3576  0.1709 -0.2012
21558W        W37452  12.252  17.806  14.528  0.2991  0.2522 -0.0258
21559W        W37453  12.564   1.811   1.198  0.1817  0.0525 -0.2137
21560W        W37454  12.692   3.063   1.760  0.1329 -0.0285  0.1183
21561W        W37455   1.333  10.338  15.852 -0.1116 -0.0697  0.1084
21562W        W37456   5.436  13.968   4.231  0.1427 -0.1543  0.1601
21563W        W37457   6.718   3.073  12.187 -0.1147 -0.0669 -0.1576
21564W        W37458  15.665  10.616   3.526 -0.1008 -0.0042 -0.2031
21565W        W37459   7.541   7.237   1.615  0.2157  0.0700  0.1596
21566W        W37460   7.442  10.976   3.387  0.1207 -0.1376  0.2345
21567W        W37461  10.954  14.582  12.458  0.0538  0.3229  0.2472
21568W        W37462   2.079   8.979   0.873  0.4167 -0.2031  0.0160
21569W        W37463   6.183  17.659  15.273  0.0975  0.3089 -0.0506
21570W        W37464   3.937  16.835  15.721 -0.1177 -0.1470  0.2158
21571W        W37465   4.867   7.414  14.028  0.0464  0.0006  0.0168
21572W        W37466   2.366   9.070  16.462  0.0916  0.1541 -0.1465
21573W        W37467   5.636   7.734  11.779 -0.2863  0.0787  0.5170
21574W        W37468   2.619  12.065  14.696 -0.1086  0.0942  0.0536
21575W        W37469   8.368  17.561  11.295  0.0149  0.0417  0.3682
21576W        W37470  10.157  11.802  15.794 -0.1454  0.0482 -0.0588
21577W        W37471  16.408   6.836  13.031  0.1619 -0.0466 -0.2344
21578W        W37472  16.441  12.661   0.294 -0.1958 -0.1233  0.1404
21579W        W37473   1.445   3.033   5.575  0.0922 -0.0591  0.1188
21580W        W37474   9.791   6.030  12.808  0.1394  0.1667 -0.0470
21581W        W37475   6.316   7.003  11.763 -0.4504 -0.1920 -0.0093
21582W        W37476  17.225  12.206   6.557  0.0914  0.0802  0.1832
21583W        W37477   8.624  13.461  14.257 -0.1415 -0.1044  0.1336
21584W        W37478  10.842   9.670  14.644  0.0448 -0.1872  0.2552
21585W        W37479   1.234   6.645  15.399  0.0562  0.3908  0.0923
21586W        W37480   8.632  12.057  14.580  0.0250 -0.0314  0.0810
21587W        W37481   1.109  11.894  15.772  0.1216  0.0857  0.1597
21588W        W37482   5.568   9.091  16.160 -0.2420 -0.2279  0.0187
21589W        W37483  14.155   5.523   3.411 -0.3324 -0.1969 -0.1809
21590W        W37484   7.638   8.578  15.638  0.2051  0.0228  0.2164
21591W        W37485  10.513  17.812  12.565  0.1663 -0.0725  0.0218
21592W        W37486  13.700   1.870   2.331  0.0923 -0.0818 -0.1436
21593W        W37487   8.394  12.289   1.733  0.0993 -0.0062  0.2896
21594W        W37488  11.119  11.321  15.567 -0.0064 -0.2489  0.0031
21595W        W37489  15.307   3.727  11.583 -0.0782  0.1332 -0.0718
21596W        W37490  16.176   2.327   2.098  0.0572  0.3477  0.1054
21597W        W37491  11.709   4.576  13.283 -0.0009 -0.1545  0.0749
21598W        W37492  14.536   3.893   3.925 -0.2216  0.0082 -0.0836
21599W        W37493  11.051   3.821   2.501 -0.0586 -0.2535 -0.3264
21600W        W37494  11.067   8.948   4.047 -0.1564 -0.0190  0.1330
21601W        W37495   5.330  15.847   3.346 -0.0246  0.1207  0.0622
21602W        W37496  11.651  17.384   0.316  0.0742 -0.0247  0.0372
21603W        W37497   7.357   1.654   6.150 -0.1413 -0.2406  0.1897
21604W        W37498   7.973   3.218   2.323 -0.1051 -0.2535  0.2551
21605W        W37499  11.659   6.064  11.396  0.0379 -0.1050 -0.1599
21606W        W37500   8.780   7.117   1.699  0.1824  0.0285  0.2310
21607W        W37501   6.133   9.345  15.319 -0.1059 -0.1373 -0.2446
21608W        W37502   1.494   6.205  12.080 -0.0674  0.0657 -0.2560
21609W        W37503  14.840  13.553   5.009  0.2054  0.2559 -0.1541
21610W        W37504  16.558  12.645   6.007  0.0504  0.0694 -0.0510
21611W        W37505   0.572  14.514   3.260 -0.0969  0.1421 -0.0660
21612W        W37506  10.395   1.149  13.501 -0.0091  0.3744 -0.0534
21613W        W37507  17.199  11.936  12.818 -0.1586  0.0045  0.1857
21614W        W37508   4.615  15.840   1.097  0.0485  0.0344 -0.1293
21615W        W37509  11.582  10.051  12.190  0.0889 -0.1305 -0.0666
21616W        W37510  16.869   7.684  16.243  0.3858  0.1822  0.0898
21617W        W37511   1.918  16.912   0.661  0.0591 -0.1077  0.2559
21618W        W37512  10.827   2.727   2.182  0.0695 -0.1098 -0.1771
21619W        W37513  13.259   5.125   3.320  0.1221  0.1269 -0.1570
21620W        W37514  17.191   8.111   0.016  0.3213 -0.2403 -0.2844
21621W        W37515  14.870  16.110  14.303  0.1430 -0.0845  0.6101
21622W        W37516  13.787  17.744   0.953  0.3605 -0.2041  0.0497
21623W        W37517   3.648   0.893   4.491 -0.0968 -0.1493 -0.1095
21624W        W37518  16.548  18.207  13.599  0.1978  0.0328  0.1173
21625W        W37519   9.906  18.029   0.020 -0.2381 -0.0985  0.1797
21626W        W37520   9.832  16.183   5.211 -0.0920 -0.2484 -0.0836
21627W        W37521  12.230   9.121  13.228  0.2328 -0.1139 -0.0505
21628W        W37522  12.396  15.921   1.851  0.0051  0.0471  0.0429
21629W        W37523  14.700   5.928   1.048 -0.2845  0.0675  0.0906
21630W        W37524  15.378   8.364  16.274  0.1621  0.0379  0.1603
21631W        W37525   1.184   1.231   3.576 -0.0268  0.1295 -0.0440
21632W        W37526  14.782   9.119   2.571  0.1879  0.3321 -0.2154
21633W        W37527  12.238   0.269   1.527 -0.1337 -0.0771 -0.0755
21634W        W37528  10.857  15.137   0.855 -0.1429 -0.0248 -0.0987
21635W        W37529   6.381   1.332   5.224  0.0169 -0.2657  0.0807
21636W        W37530  14.997  10.863   4.808  0.2370 -0.2150  0.4331
21637W        W37531  18.159   1.957   4.331 -0.0220  0.1436 -0.1656
21638W        W37532  10.851  15.422   4.330 -0.2434 -0.2447  0.1020
21639W        W37533   2.588  16.958  13.005 -0.1846  0.0084 -0.1636
21640W        W37534  10.480  16.491   0.938 -0.1877 -0.3053 -0.1401
21641W        W37535   1.279  17.569   1.227  0.0117 -0.0112 -0.2625
21642W        W37536   9.434   0.340   3.507 -0.1399 -0.0520 -0.3552
21643W        W37537  10.381   1.349   2.635 -0.2092 -0.1537  0.1248
21644W        W37538   4.936   8.423  14.828 -0.1859 -0.3395 -0.3596
21645W        W37539  17.254   7.508   0.980  0.4365  0.2416 -0.0659
21646W        W37540   1.679   9.513   1.634 -0.1648 -0.1987  0.0890
21647W        W37541   5.549   2.162   1.580  0.2434 -0.4081 -0.1631
21648W        W37542   1.305  12.926   2.976 -0.0363 -0.0465 -0.3241
21649W        W37543   1.472  13.859   3.781  0.0683 -0.0937 -0.0767
21650W        W37544  10.850   1.628   4.392  0.5994  0.1327  0.2931
21651W        W37545   2.013   7.041   0.323 -0.5035  0.1781 -0.4010
21652W        W37546  17.580   8.467   6.176  0.1096 -0.2072  0.3246
21653W        W37547   5.470   1.885  12.354 -0.3689 -0.1924  0.2926
21654W        W37548   2.534   1.033  14.240 -0.0224 -0.1700  0.1676
21655W        W37549  15.848   2.539   4.363  0.2967  0.1440  0.2832
21656W        W37550  12.004  16.005  12.184  0.1354  0.2115 -0.0977
21657W        W37551   7.577   4.491   5.597 -0.1212 -0.1230  0.2573
21658W        W37552   1.125   9.886   6.327 -0.0099 -0.0417 -0.0838
21659W        W37553  10.952  12.382   0.730 -0.0051 -0.1833 -0.0586
21660W        W37554  13.225   6.688  13.620 -0.0123 -0.1114 -0.0824
21661W        W37555  13.921   9.568  12.599  0.1787 -0.1408 -0.0147
21662W        W37556  12.668  12.656  13.516  0.0304 -0.1290 -0.0100
21663W        W37557   9.021   7.170  12.701  0.0213 -0.1387 -0.4468
21664W        W37558   6.193   4.273   2.952  0.0735 -0.2421 -0.1525
21665W        W37559   7.099  18.022   0.782  0.0046 -0.1159 -0.1066
21666W        W37560  14.089  12.979   1.752 -0.0429 -0.3165  0.2035
21667W        W37561   9.488   5.255  11.433 -0.0133  0.2568  0.0412
21668W        W37562   4.178  16.964   4.610 -0.0642  0.2264  0.1133
21669W        W37563   8.437   0.515  15.960 -0.0768 -0.1228  0.2804
21670W        W37564   1.783  17.751   4.539 -0.1022  0.1464  0.3046
21671W        W37565  10.901   9.226  11.761  0.1090  0.2600 -0.0601
21672W        W37566   5.334   7.063   3.449  0.1245 -0.0956  0.1506
21673W        W37567  15.636   0.373  11.664  0.1548 -0.2313  0.0631
21674W        W37568  11.877  11.712   0.666  0.4200  0.1851 -0.0141
21675W        W37569  13.155  13.803  12.840 -0.3618  0.0590  0.0506
21676W        W37570   5.619  12.159   1.783 -0.0657 -0.2022 -0.3665
21677W        W37571   6.305   2.565  14.273 -0.1314 -0.0624 -0.2725
21678W        W37572   0.220  10.603   5.536 -0.1241 -0.2150  0.4081
21679W        W37573   0.062   6.318   0.666  0.1054 -0.0740 -0.0909
21680W        W37574  16.285   4.292  16.264 -0.0177  0.1259 -0.0040
21681W        W37575   1.884   1.780  13.388  0.0078 -0.0380 -0.0948
21682W        W37576  16.451  14.149   2.099  0.0371 -0.2331  0.0368
21683W        W37577   8.160  17.934   0.122  0.2011 -0.1727 -0.4752
21684W        W37578   5.273  17.236   2.815  0.1036 -0.1692  0.0457
21685W        W37579   5.952   1.388  12.800  0.1861  0.0833  0.0736
21686W        W37580   1.283  15.613   3.133  0.0665  0.0527  0.0122
21687W        W37581   2.766   5.765   1.334 -0.2838 -0.2831 -0.0836
21688W        W37582  15.562  11.667   5.572 -0.0190  0.0128 -0.4623
21689W        W37583   5.458  16.285  14.922  0.1012  0.1819  0.3189
21690W        W37584  14.410   8.444   4.151 -0.0821 -0.1392 -0.2651
21691W        W37585   2.195  16.712  12.837  0.0926 -0.0886  0.0835
21692W        W37586  15.371   6.234   5.220 -0.2245  0.2547  0.2244
21693W        W37587  17.552  17.519   4.236  0.2091  0.0098 -0.1267
21694W        W37588  15.786   9.366   1.538  0.0151 -0.1037  0.0475
21695W        W37589  10.362   5.337  11.311  0.2041  0.0132  0.0230
21696W        W37590   6.149  13.065  14.827 -0.2359  0.0533 -0.0650
21697W        W37591   6.816   7.478   4.389  0.0610 -0.1231  0.2236
21698W        W37592  15.217  11.063   0.171  0.4168  0.0895  0.2890
21699W        W37593   4.459   8.312  11.463  0.0192 -0.1556 -0.0089
21700W        W37594   4.425   1.251   5.388 -0.0815  0.1484 -0.0748
21701W        W37595  10.975   7.723  10.901 -0.1748  0.3183  0.0103
21702W        W37596   4.206  10.792   5.354 -0.0457  0.0234 -0.0837
21703W        W37597   2.726  11.001  13.730 -0.0831 -0.1154  0.0176
21704W        W37598   2.213   4.173   2.868  0.1095  0.1530 -0.4741
21705W        W37599   7.932   4.370   0.209  0.0447  0.2076  0.1906
21706W        W37600  14.566   1.966  11.027  0.1039  0.0968  0.0513
21707W        W37601  17.168   6.248  12.018  0.1972 -0.2318 -0.1525
21708W        W37602   1.446   8.068   5.237  0.1202  0.3245 -0.0457
21709W        W37603  15.656   6.231   0.829  0.1088 -0.0442  0.0856
21710W        W37604  17.914  16.903  13.083 -0.0077 -0.2664 -0.1161
21711W        W37605  13.854   5.474   1.341 -0.1345  0.0212  0.0672
21712W        W37606   5.506   1.419   0.648  0.0851 -0.2012 -0.0038
21713W        W37607   3.262   5.981  16.091 -0.4722  0.3362  0.2016
21714W        W37608  14.108   2.924   3.755 -0.1682 -0.0931  0.0484
21715W        W37609  16.905   7.678  15.516  0.2298  0.2127  0.0932
21716W        W37610  17.820   1.163  16.221 -0.0280 -0.0784  0.1210
21717W        W37611   7.262   5.668  16.089  0.3920  0.2477  0.2818
21718W        W37612   5.976   9.803   0.310  0.0435 -0.1849  0.3655
21719W        W37613  10.496   0.423   4.546 -0.2042  0.4732  0.0672
21720W        W37614   1.935   9.726  16.426 -0.1792  0.1795 -0.0717
21721W        W37615   2.358   0.182   1.872  0.1009 -0.1376  0.0209
21722W        W37616  17.920   1.620   6.150 -0.0620  0.1894  0.2930
21723W        W37617   3.404   2.629  14.043 -0.1407  0.0138  0.0484
21724W        W37618   3.370  15.292  12.756  0.0485  0.1613  0.4755
21725W        W37619   3.896  13.004   5.311  0.0038  0.0822 -0.0083
21726W        W37620   4.032   5.944   1.377  0.1397  0.2513 -0.0831
21727W        W37621  15.259  10.837  14.190 -0.3196  0.3656 -0.0404
21728W        W37622  12.505   3.943  15.849 -0.4154  0.1611  0.0063
21729W        W37623  11.772  16.252  14.749 -0.0799  0.0687 -0.1117
21730W        W37624  17.351  14.913  11.418 -0.4832 -0.0143 -0.0204
21731W        W37625   7.156   6.885   4.726 -0.0639 -0.1408 -0.0195
21732W        W37626  17.392   3.443   5.258 -0.0857  0.2110  0.3400
21733W        W37627  17.054   4.995   2.080 -0.0061  0.2205  0.0028
21734W        W37628  13.223   4.313  16.325 -0.1373  0.1281 -0.0532
21735W        W37629  11.835   4.185  13.068  0.1730  0.0415 -0.1261
21736W        W37630  14.840  13.173  13.669  0.0552  0.0787  0.3993
21737W        W37631   2.190  18.224  15.672  0.1358 -0.4604  0.1976
21738W        W37632  10.228   1.838  12.807 -0.0187 -0.1887 -0.0805
21739W        W37633  14.794   1.605  12.259  0.1118  0.1243  0.4128
21740W        W37634  16.878   7.391   1.415  0.1313 -0.0432 -0.1493
21741W        W37635   0.931   8.485  12.033  0.0058 -0.3845 -0.5384
21742W        W37636   4.862   1.249  14.632  0.0362 -0.0239  0.0986
21743W        W37637   5.701  12.404   5.160 -0.1105  0.1917 -0.2053
21744W        W37638  10.005  14.644  16.149 -0.1666 -0.1417  0.1213
21745W        W37639  10.221  14.645   5.162  0.0673  0.0532  0.2348
21746W        W37640   9.241  13.395   1.092  0.0255  0.3054  0.2980
21747W        W37641  17.574  15.668  12.634  0.1462 -0.3253 -0.1222
21748W        W37642  17.909   6.234   0.024  0.2163  0.1269  0.2809
21749W        W37643   0.881  14.974   3.903 -0.0517 -0.0411  0.0207
21750W        W37644  13.239   7.082   3.406 -0.0592  0.1900  0.2289
21751W        W37645  17.125   8.923   4.250 -0.2924  0.0283  0.2042
21752W        W37646   2.508  15.172  11.655  0.1453  0.1190 -0.0103
21753W        W37647   4.473   0.033   4.750  0.0505 -0.0924 -0.1702
21754W        W37648   3.340   7.676  13.573  0.0929 -0.0767 -0.3531
21755W        W37649  10.438  16.830   1.272 -0.0646  0.5025 -0.0543
21756W        W37650  15.912  18.155  14.155  0.0393  0.0243  0.0501
21757W        W37651   0.550   7.814   5.183  0.0847  0.0453  0.1943
21758W        W37652   7.901  11.581  14.115  0.0601  0.0730  0.0529
21759W        W37653   7.601   4.787   2.669  0.2699 -0.0337 -0.1770
21760W        W37654   3.268   0.167  15.195  0.0054 -0.2592  0.0417
21761W        W37655   0.692  16.175  13.011  0.3356  0.2351 -0.2202
21762W        W37656   8.843   3.951   5.678 -0.0205 -0.0053 -0.3920
21763W        W37657   9.800   9.150  12.043 -0.0790  0.0193  0.4148
21764W        W37658   1.969  17.811   4.031  0.1696 -0.3129 -0.1692
21765W        W37659   6.529   5.191   0.973 -0.0798 -0.0015 -0.1179
21766W        W37660  15.827  17.545   3.865  0.0523  0.2496 -0.0601
21767W        W37661   3.055   4.038  13.585 -0.2810 -0.0999  0.0047
21768W        W37662   6.224  18.162  13.499  0.1048 -0.0604 -0.2179
21769W        W37663  11.349  14.720   5.677 -0.0891 -0.2235  0.0374
21770W        W37664   8.927  11.921  13.001 -0.2520  0.0445 -0.1096
21771W        W37665   9.479   4.015   0.217  0.3943 -0.2017 -0.1222
21772W        W37666   1.014  17.943  13.407 -0.3688 -0.1486  0.1813
21773W        W37667   6.773   5.439  14.420 -0.0360 -0.0243 -0.0079
21774W        W37668   4.869   2.100   1.436  0.0387 -0.0367 -0.1326
21775W        W37669   7.461   0.322   4.075 -0.0282 -0.0995  0.2762
21776W        W37670   9.600   8.422   1.817 -0.0124 -0.1078 -0.1057
21777W        W37671   9.871  17.837   5.307 -0.2033 -0.1940 -0.0146
21778W        W37672  10.793  11.467  14.394  0.0050  0.1617  0.1707
21779W        W37673   9.740   8.587   5.811  0.4786 -0.1139 -0.0782
21780W        W37674  13.195   5.401  13.404  0.0944  0.4176 -0.4222
21781W        W37675   1.969  12.480  11.661 -0.1908 -0.1742  0.1013
21782W        W37676   2.618   9.561  15.681  0.2021  0.2460  0.4396
21783W        W37677   6.553   3.763  14.757 -0.1484 -0.0961  0.1334
21784W        W37678  10.251  13.270  14.270  0.0546  0.0873 -0.1402
21785W        W37679  10.271   6.418  14.334 -0.1285 -0.1068 -0.3583
21786W        W37680   5.429   7.062  14.557 -0.0594  0.0627  0.0927
21787W        W37681   6.565   5.308  15.287 -0.0651  0.1367 -0.0458
21788W        W37682   9.205   6.603  13.822  0.2947  0.1887  0.1074
21789W        W37683   5.153  12.971  11.517  0.1984  0.0426  0.1638
21790W        W37684   6.401   9.111  12.072  0.3025  0.4687  0.0351
21791W        W37685  11.405  15.845  13.947  0.2592 -0.0923 -0.0817
21792W        W37686   6.644   9.748   4.177  0.0097  0.1086  0.0705
21793W        W37687  16.476  11.530   1.689  0.0108 -0.0950 -0.2999
21794W        W37688  10.905  15.397  12.347 -0.2932 -0.2661  0.0486
21795W        W37689  13.826   9.261   2.593  0.0093 -0.0979  0.0789
21796W        W37690  15.743   5.211  16.333  0.2721  0.1684  0.2245
21797W        W37691  15.901  16.984   1.032 -0.1287 -0.2904  0.0892
21798W        W37692   3.595   8.027  15.081  0.2847  0.1025  0.1089
21799W        W37693  14.657   8.923   5.312 -0.1007 -0.1068  0.0394
21800W        W37694  11.737   8.318   0.250  0.0421 -0.1778  0.1702
21801W        W37695  16.385  10.743   1.818 -0.1838 -0.3110  0.2978
21802W        W37696  14.695   7.564   0.008 -0.0262 -0.1605  0.1633
21803W        W37697   8.855  11.104  13.659 -0.0581  0.3114  0.0404
21804W        W37698   1.157  10.962   0.436  0.0646  0.1167 -0.0082
21805W        W37699  12.114  16.051  12.757  0.0152  0.2424  0.0902
21806W        W37700  13.821   3.347   5.062  0.2681 -0.1262 -0.0877
21807W        W37701   3.022  15.406   4.806 -0.1444 -0.3902  0.1672
21808W        W37702   6.318  10.193   4.879  0.0653  0.4085 -0.1301
21809W        W37703   9.602  18.238   1.453  0.0756  0.2808 -0.3411
21810W        W37704   4.627   2.436  12.581  0.0189 -0.0373  0.2610
21811W        W37705  10.969   6.145  13.222 -0.0006  0.0009  0.2671
21812W        W37706  12.085   7.233  14.612 -0.0893 -0.3647 -0.0212
21813W        W37707   3.093  11.344   4.285 -0.2466 -0.0241  0.2983
21814W        W37708   6.430   4.131   3.917 -0.0943  0.2426 -0.2318
21815W        W37709  18.135  11.308  13.115  0.0830  0.1347 -0.0904
21816W        W37710  17.173   6.667   3.872  0.0448  0.0499 -0.0754
21817W        W37711  12.750  13.456  13.878  0.1375  0.0973  0.2855
21818W        W37712   7.850  13.122  12.882 -0.2864 -0.2715 -0.1559
21819W        W37713   6.444   8.177  11.057  0.1342 -0.3480 -0.0963
21820W        W37714  16.037  13.576  14.362 -0.2349  0.1133 -0.4763
21821W        W37715  17.815  11.596   3.131  0.0077  0.0684 -0.1049
21822W        W37716  10.799   8.482   4.381  0.0677  0.2892 -0.0872
21823W        W37717   1.756   9.680   3.048 -0.0954 -0.1078 -0.0718
21824W        W37718   4.355  10.642  11.578  0.1243  0.0591 -0.1101
21825W        W37719  16.927   6.064  13.488  0.0848 -0.0485  0.1698
21826W        W37720   2.984  15.928  15.748 -0.1770  0.0275 -0.0665
21827W        W37721  16.437   3.581   5.245  0.2737  0.1347  0.1582
21828W        W37722   9.837   7.297  15.198  0.0530  0.0330  0.4681
21829W        W37723  16.232   6.386  12.368  0.0350  0.1763  0.1535
21830W        W37724   6.225   7.463   0.951  0.1750 -0.0222  0.0454
21831W        W37725  16.438   8.897   1.050 -0.0299  0.1396 -0.2755
21832W        W37726  15.515   1.167  13.164  0.0019  0.2308 -0.0732
21833W        W37727  12.856   7.437  12.935 -0.0205 -0.0168 -0.0134
21834W        W37728   3.335  17.689  16.268  0.1477  0.0758  0.0541
21835W        W37729  13.445   5.910   3.149  0.0401 -0.1920 -0.0905
21836W        W37730  17.209  12.534   1.374 -0.1424 -0.0428  0.1632
21837W        W37731  14.581   2.721  15.009 -0.0244 -0.2400  0.0733
21838W        W37732   1.769   1.651   4.233 -0.0870  0.1288  0.0387
21839W        W37733  15.856  17.253  11.792 -0.2132 -0.1689  0.1732
21840W        W37734  13.060   7.361   5.432 -0.0565  0.1259  0.2292
21841W        W37735   9.133  17.988   1.297 -0.1806 -0.2824  0.0354
21842W        W37736   2.079  13.361   5.005  0.2026  0.0141  0.2138
21843W        W37737  15.554  15.085   5.005 -0.0165  0.0403  0.2023
21844W        W37738   4.919   7.886  14.712  0.0843  0.1611  0.0552
21845W        W37739  16.039  10.022   5.645  0.1292  0.0758 -0.0915
21846W        W37740  16.574   0.761   5.424 -0.2266  0.2843  0.2353
21847W        W37741   8.336  11.712  11.718 -0.0685  0.2081  0.0146
21848W        W37742  16.486  11.622  15.810 -0.1029 -0.1375  0.0701
21849W        W37743   2.079  14.708  13.345 -0.2026 -0.0788 -0.0490
21850W        W37744   4.332  12.460  12.604 -0.0383 -0.1435  0.1852
21851W        W37745   6.434  15.218  13.851 -0.1620 -0.0034 -0.3760
21852W        W37746  11.258  12.166   6.254  0.0539  0.3093 -0.1594
21853W        W37747  14.347   1.231  14.215 -0.0958 -0.0574  0.3303
21854W        W37748  15.609   4.305  14.518 -0.0526  0.0990  0.1786
21855W        W37749   1.272  16.646   3.151 -0.1644  0.1342  0.1499
21856W        W37750  11.028   5.824   1.030 -0.0660 -0.0193  0.5600
21857W        W37751  12.759   0.770   5.531  0.0834  0.1413 -0.1608
21858W        W37752   2.463   3.057  11.645 -0.1323  0.1158  0.2039
21859W        W37753   3.640  11.923   2.156 -0.0010  0.1210  0.0232
21860W        W37754  14.690   9.061   2.099  0.2410 -0.5099 -0.0239
21861W        W37755  18.004  17.175   1.694  0.1636 -0.0567  0.1694
21862W        W37756  12.322   0.995   3.326  0.0626  0.1327  0.1141
21863W        W37757  16.553  17.348   0.460 -0.0530 -0.2292  0.2304
21864W        W37758   1.289   0.943   4.354  0.0960  0.2005  0.1059
21865W        W37759  12.561   0.736  12.492 -0.0009  0.1183 -0.0771
21866W        W37760   7.584   9.625   0.131 -0.1676 -0.1376  0.2686
21867W        W37761   3.410   7.258  13.189  0.1136 -0.2608  0.0555
21868W        W37762   4.730   8.756  16.267  0.0186 -0.1001 -0.1305
21869W        W37763   2.203  10.672  15.568  0.1742  0.1004 -0.2650
21870W        W37764   7.041   6.962   0.020  0.1652 -0.1464  0.1153
21871W        W37765  12.046  13.016   1.804 -0.1001 -0.1758  0.0283
21872W        W37766   0.728  17.298  14.025  0.0184 -0.2823 -0.3184
21873W        W37767  17.485  17.155  13.041 -0.5229 -0.1597  0.2960
21874W        W37768   7.239   7.868  15.472  0.1427 -0.0714  0.0012
21875W        W37769  14.445   4.068  15.657  0.0366  0.1215  0.1375
21876W        W37770   8.506   6.090  16.287 -0.4263  0.0181 -0.1120
21877W        W37771   3.655  14.919   1.747 -0.2455  0.0233  0.1122
21878W        W37772   4.458   5.991   2.330 -0.0884 -0.2062  0.3610
21879W        W37773   0.757   7.506  12.383 -0.4756 -0.2554  0.1516
21880W        W37774  11.693  13.005  16.414  0.0218 -0.3983  0.0141
21881W        W37775   3.944   8.800   4.880 -0.1636 -0.0778 -0.0461
21882W        W37776   6.643   2.096  11.941 -0.0922  0.0006 -0.0963
21883W        W37777   5.888  15.423  11.818  0.0048  0.0952 -0.1626
21884W        W37778   8.531  14.956  15.390 -0.1127 -0.3075 -0.0143
21885W        W37779  13.542   7.684  14.947 -0.1449 -0.0507  0.0966
21886W        W37780   3.542  14.029  11.304 -0.3553  0.1278 -0.3739
21887W        W37781   8.724  15.643   4.839 -0.0981 -0.2275 -0.1233
21888W        W37782   6.906  15.065  13.768 -0.1412 -0.2237  0.1830
21889W        W37783   0.720   2.397  14.022  0.2616 -0.5691 -0.3687
21890W        W37784  10.873   3.173  15.746 -0.2661 -0.0683 -0.2769
21891W        W37785  17.459   1.012  13.750 -0.0325  0.1312 -0.1104
21892W        W37786   9.508   5.569   0.877 -0.3857 -0.3093  0.2442
21893W        W37787  17.358   2.305  16.267  0.0935  0.1702 -0.0362
21894W        W37788  17.845  13.988  15.429 -0.0155  0.3122  0.1341
21895W        W37789   3.888   7.895   1.691  0.1693  0.1568 -0.0163
21896W        W37790   6.867   9.067  12.046 -0.4435  0.3379  0.2525
21897W        W37791  14.653  15.710  12.009 -0.2878  0.0959  0.0240
21898W        W37792   1.794  12.175  14.061  0.3498  0.0389  0.0861
21899W        W37793  12.922  10.908   1.006  0.0723  0.0861 -0.3397
21900W        W37794  16.752   3.500  16.101  0.2290  0.1721 -0.2902
21901W        W37795   3.241  14.601  13.444 -0.3848  0.1467 -0.1499
21902W        W37796   9.487   9.648  15.177  0.1294 -0.0522 -0.0370
21903W        W37797  12.913  13.151  14.258 -0.0141 -0.1065  0.0095
21904W        W37798  14.348  11.660  12.751  0.0722  0.0709 -0.1663
21905W        W37799   9.940   9.064   3.290  0.2472  0.3359  0.0634
21906W        W37800  17.924  12.778   4.261  0.0494  0.0948  0.1460
21907W        W37801  15.165  11.247   4.453  0.0969 -0.1034 -0.5022
21908W        W37802  15.969   7.390   3.813  0.1451 -0.1843 -0.1304
21909W        W37803  13.363  14.381   3.337  0.0581 -0.0791 -0.0430
21910W        W37804  11.572  14.904   4.545  0.1497  0.2601  0.0792
21911W        W37805  17.001  17.587   4.118 -0.0556  0.1693  0.0805
21912W        W37806  17.991   1.572  15.232  0.2825 -0.1563  0.0095
21913W        W37807   7.071   6.693   3.543 -0.1946 -0.1808 -0.0255
21914W        W37808   9.407   7.207   4.078  0.1450  0.1362  0.1792
21915W        W37809   5.765  14.408  11.831 -0.0001  0.1377  0.2170
21916W        W37810   0.536  17.083  13.124 -0.2550 -0.2049 -0.1124
21917W        W37811   0.750   1.856  12.144  0.1395 -0.0053 -0.1504
21918W        W37812   8.598   1.236  15.029  0.1259  0.2184 -0.2853
21919W        W37813   6.143   3.893   4.960  0.2253  0.0043 -0.0520
21920W        W37814  17.451  12.758   4.966 -0.1641  0.1965  0.2701
21921W        W37815  10.993   4.301   0.201  0.2012  0.1077 -0.2762
21922W        W37816   2.315   1.372  14.900  0.0926  0.3101  0.1440
21923W        W37817   1.342  11.169  13.133  0.0827 -0.2763  0.0620
21924W        W37818   2.229   8.382  12.971 -0.2717 -0.3492 -0.1846
21925W        W37819   3.169  18.202   3.038 -0.3530  0.0042 -0.0759
21926W        W37820  12.684   3.995  13.375 -0.3168  0.0876  0.1601
21927W        W37821   3.840  10.688   1.731 -0.0409  0.0849 -0.0416
21928W        W37822  12.342  13.034   3.431 -0.2278  0.1742  0.0700
21929W        W37823  10.268  10.311   2.418 -0.2772  0.3696 -0.1488
21930W        W37824   2.873  12.678  13.318  0.2240 -0.0018 -0.0735
21931W        W37825  17.599   0.876  14.366  0.0526 -0.0691 -0.0851
21932W        W37826   3.089   6.297   0.542  0.0018 -0.1661 -0.0742
21933W        W37827   0.861   9.136   5.094 -0.2177  0.2502 -0.0869
21934W        W37828  15.865  17.386   2.482 -0.4815 -0.0608  0.1434
21935W        W37829   0.142   3.846  12.281  0.0745  0.0205  0.0073
21936W        W37830   6.235  10.639   2.516 -0.2796 -0.1810  0.1077
21937W        W37831  12.861   1.933  15.211 -0.2686  0.1825  0.1857
21938W        W37832   4.955  10.693  15.299 -0.0453  0.0983  0.1200
21939W        W37833   9.415   4.487  13.878 -0.2503 -0.1394  0.3249
21940W        W37834   6.379   9.031  10.671  0.0741  0.0963  0.0171
21941W        W37835   5.624   5.232  12.241  0.0172  0.1395  0.0735
21942W        W37836  16.399   3.625  14.752  0.0850  0.0300  0.0141
21943W        W37837   7.724   9.146   2.811 -0.2943  0.1343 -0.2811
21944W        W37838  15.516  17.750   0.836 -0.3463 -0.0712 -0.0293
21945W        W37839   7.128  13.358  12.602  0.1456  0.1431  0.0456
21946W        W37840  11.715   2.459  12.786  0.1187 -0.0074 -0.1218
21947W        W37841   4.571  15.264   0.438 -0.1856  0.0213 -0.0431
21948W        W37842   7.711   5.223  15.358 -0.0240  0.0159  0.2365
21949W        W37843   7.694   0.708  14.608 -0.1831  0.2861  0.1053
21950W        W37844  13.726   0.181   3.953  0.1165 -0.0674 -0.2274
21951W        W37845   3.401  11.942   3.580  0.1312  0.0854  0.0446
21952W        W37846   0.275  11.614  14.006 -0.1724  0.1595 -0.1520
21953W        W37847  16.278  14.958  16.459  0.1627  0.0976 -0.0449
21954W        W37848   1.079   8.003   0.562 -0.1136  0.1465  0.1020
21955W        W37849  15.811   8.258  12.678  0.2259  0.2269  0.0700
21956W        W37850   4.232   2.402  15.191  0.3867  0.4538  0.0998
21957W        W37851  16.027   4.249  12.030 -0.2518  0.2138 -0.0821
21958W        W37852   9.057   0.889  14.924  0.0820  0.0297 -0.1714
21959W        W37853   2.084  16.225  13.085 -0.1589 -0.0795 -0.2318
21960W        W37854  10.383  13.515  11.747  0.0825 -0.0465 -0.2335
21961W        W37855  17.787   9.868   1.985  0.1315  0.1941 -0.0417
21962W        W37856   7.941   2.830   0.960  0.0271 -0.1608 -0.1893
21963W        W37857   4.565   6.967   1.238 -0.0232  0.0340  0.2430
21964W        W37858  11.241   5.172   3.635  0.3401  0.2546  0.2428
21965W        W37859  15.613   7.926   4.784 -0.3353 -0.3904 -0.0867
21966W        W37860   2.740   8.451   2.526 -0.2227  0.3697  0.1626
21967W        W37861  15.199  15.013   1.206 -0.1481  0.1525  0.1515
21968W        W37862  15.417   6.450  13.077  0.3203 -0.4607 -0.0084
21969W        W37863  17.019   7.133   3.956  0.1083 -0.1279  0.1734
21970W        W37864   9.236   7.371   3.208  0.0297 -0.1598  0.0012
21971W        W37865  17.899   3.959  15.306 -0.2615  0.0724 -0.0593
21972W        W37866  14.507  11.627  13.910  0.1543 -0.0252  0.1785
21973W        W37867   2.805  14.081   2.314  0.1560 -0.0136  0.1701
21974W        W37868  14.423  12.076  11.880  0.2633 -0.1083  0.1541
21975W        W37869   8.076  16.329   1.858  0.0993 -0.1347 -0.1905
21976W        W37870   6.232  15.129   1.901 -0.1655 -0.2814 -0.0374
21977W        W37871   5.283   8.118  15.787 -0.1342  0.0529  0.2083
21978W        W37872   4.054   2.132  11.279 -0.2991 -0.0995  0.1247
21979W        W37873  17.973   1.943  12.180 -0.1690  0.3449 -0.0585
21980W        W37874   9.311   7.385   6.162 -0.1834  0.0714  0.0077
21981W        W37875   3.423  14.219  13.731  0.0703 -0.3724  0.1318
21982W        W37876   1.557   1.307  16.304 -0.0045 -0.1316  0.0444
21983W        W37877   5.639   2.539   5.189  0.0494 -0.0354  0.3356
21984W        W37878   2.806  16.367  14.067 -0.1759 -0.2441 -0.1949
21985W        W37879  13.844   0.668  11.833  0.3033  0.1220 -0.0402
21986W        W37880   6.103   8.959   3.082 -0.1082 -0.0120  0.1302
21987W        W37881  11.277   5.056  13.594  0.0482 -0.3715  0.1095
21988W        W37882  12.154  14.455   0.932  0.2084  0.1134 -0.3381
21989W        W37883  10.577   6.529  15.393 -0.1710  0.1723  0.3704
21990W        W37884  17.492   6.350   5.198  0.0014  0.0150  0.0089
21991W        W37885   3.097   4.815   0.691 -0.1687 -0.0381 -0.0895
21992W        W37886   9.017   2.178   5.407  0.1627 -0.1683  0.3004
21993W        W37887   6.163   0.937  14.070 -0.0634 -0.0962 -0.3042
21994W        W37888  16.177   4.762   2.904  0.0520 -0.4256 -0.1236
21995W        W37889  14.404  16.667   2.777  0.1039 -0.0689  0.0410
21996W        W37890  14.456  14.003   2.665  0.2122  0.2627 -0.1559
21997W        W37891   7.906   1.252   3.396  0.0371  0.3499 -0.0646
21998W        W37892  11.919   7.557  13.649  0.2549 -0.3939  0.0541
21999W        W37893  11.205   6.761  11.601  0.0004 -0.1775  0.3435
22000W        W37894   2.351   2.123  11.235 -0.3157 -0.0442  0.1104
22001W        W37895   0.059   1.213  12.680  0.2038  0.3782  0.0010
22002W        W37896  13.252   1.623   2.155 -0.2705 -0.2178 -0.1630
22003W        W37897   5.190   0.625   2.330  0.1050  0.2055 -0.1038
22004W        W37898  13.211  13.290  16.135 -0.0760 -0.1346 -0.0220
22005W        W37899  10.483  11.707  16.258 -0.0597  0.2233 -0.1375
22006W        W37900   8.814   3.033  13.960 -0.2848  0.3679 -0.0475
22007W        W37901  10.483  13.228   6.153  0.2280  0.0577 -0.2193
22008W        W37902   3.174   6.773   4.547  0.2504  0.1973  0.1161
22009W        W37903  18.114   6.739   3.275 -0.0503 -0.0361  0.2398
22010W        W37904   7.908   9.722   5.404  0.1084 -0.1847 -0.1714
22011W        W37905  15.437   2.377  13.370 -0.1388  0.1084  0.1459
22012W        W37906  13.813   8.820  13.657  0.0366  0.1724 -0.1623
22013W        W37907   4.696   9.823  12.697  0.3696  0.3622 -0.4661
22014W        W37908  12.273  17.434  15.177 -0.4067  0.1328 -0.3301
22015W        W37909   4.516  11.161   2.182 -0.2033 -0.0152  0.4237
22016W        W37910  13.084  14.132   5.200 -0.2290  0.0019 -0.2191
22017W        W37911  17.607   4.463   0.044 -0.1486 -0.0139  0.0553
22018W        W37912  14.718   8.749   3.320  0.1885 -0.0138 -0.0729
22019W        W37913  11.525   8.004   5.989  0.0264  0.0130  0.1728
22020W        W37914  14.011   5.854   4.799 -0.1733 -0.2785 -0.2617
22021W        W37915  10.157  10.849   5.856 -0.0318  0.3281 -0.1899
22022W        W37916   5.397  15.976   4.468  0.0282  0.2126 -0.1541
22023W        W37917  15.432   0.819  12.153  0.1123  0.0622  0.0818
22024W        W37918   1.080   6.278  16.191  0.1442  0.1761  0.2577
22025W        W37919  13.034  12.737  16.260  0.0652  0.2675  0.1688
22026W        W37920   6.141  12.360   3.907  0.2126 -0.2325 -0.1439
22027W        W37921   9.498  16.769  12.591 -0.1548  0.2327 -0.2430
22028W        W37922   0.833  11.729  14.959 -0.3258 -0.0460  0.0643
22029W        W37923   4.133  14.203   1.650 -0.2734 -0.1772  0.5422
22030W        W37924  14.038  14.769   1.122 -0.2898 -0.0554 -0.2359
22031W        W37925   6.804  10.260  12.670 -0.1048  0.1001 -0.3555
22032W        W37926   5.909   1.611  14.456 -0.1758  0.0488 -0.1174
22033W        W37927   0.571   2.698   3.773 -0.0551 -0.0967 -0.3545
22034W        W37928   9.736   4.093  13.671  0.1060 -0.0574 -0.0801
22035W        W37929   8.637  10.783   5.091  0.0105 -0.2247 -0.3854
22036W        W37930  10.622  12.223  10.814  0.0642 -0.1383 -0.2883
22037W        W37931   9.835   9.253  11.000  0.0118 -0.1181  0.1853
22038W        W37932  17.767  12.975  14.190  0.2503 -0.0241  0.0160
22039W        W37933   3.477  16.169   3.619 -0.1371  0.0150  0.1452
22040W        W37934   5.008  16.194   1.018  0.1202  0.0761 -0.2431
22041W        W37935   5.777   9.438   2.309 -0.3325  0.0361  0.0158
22042W        W37936   6.305   7.975  15.483  0.2948  0.0794  0.0778
22043W        W37937   2.746  10.638   0.974  0.1885  0.4331 -0.0125
22044W        W37938   7.568   3.272   0.171 -0.1342  0.0470  0.1506
22045W        W37939  16.736   9.350   3.040  0.0753 -0.0791  0.1454
22046W        W37940   1.733   6.615  12.366  0.0082  0.1143  0.0042
22047W        W37941  14.293   0.633  12.044 -0.1543  0.2792 -0.0776
22048W        W37942   0.349  17.943  14.459 -0.0519  0.1179  0.0616
22049W        W37943  15.470   9.478   4.835 -0.5117  0.3008  0.2971
22050W        W37944  13.626   1.943  13.847 -0.3070  0.0552 -0.2015
22051W        W37945   7.981   2.888  16.460  0.3474  0.0913 -0.2426
22052W        W37946  13.760  13.928   4.591  0.3782 -0.1553 -0.1205
22053W        W37947   3.282   8.994   4.049 -0.2704  0.0048 -0.1370
22054W        W37948  11.409   4.440   6.041  0.3015 -0.0291  0.3811
22055W        W37949   2.553  15.422  14.106 -0.0990 -0.4550 -0.1187
22056W        W37950  12.625   9.643  10.084 -0.0854 -0.1112  0.3997
22057W        W37951  11.913   0.196  11.497  0.0570 -0.1764 -0.1767
22058W        W37952  12.056   3.739   1.891 -0.0453  0.3727 -0.0505
22059W        W37953   1.985   9.202   1.289 -0.1594 -0.0886  0.0868
22060W        W37954  15.926   7.990   5.161  0.0878  0.1248  0.2258
22061W        W37955   2.040  15.463   1.492 -0.2810 -0.0587 -0.1693
22062W        W37956   1.910   0.711   2.324 -0.2156 -0.1725 -0.0905
22063W        W37957  14.493   6.594   0.050  0.0662  0.0477 -0.1642
22064W        W37958   2.499  16.754  14.329 -0.2740  0.0083  0.1989
22065W        W37959   5.422  11.630   3.655 -0.1439 -0.1144 -0.2402
22066W        W37960   1.401  13.682   2.319  0.1085 -0.0419  0.4887
22067W        W37961   5.862  10.202   4.096 -0.0799 -0.3275  0.0747
22068W        W37962   0.432   2.996   2.324  0.0176  0.0093 -0.0061
22069W        W37963   3.006   9.694  14.892  0.2152 -0.3188 -0.0891
22070W        W37964   0.003   1.587  11.327 -0.2548  0.0607  0.0296
22071W        W37965   1.365   9.204   4.221  0.1873 -0.1889  0.0663
22072W        W37966   8.177  15.357  13.596  0.0053  0.0054  0.1390
22073W        W37967   1.563   4.550  12.457 -0.1303 -0.0106 -0.3606
22074W        W37968  13.375   1.628   4.872  0.1865 -0.0943  0.3125
22075W        W37969  14.119   1.491   2.589 -0.2179 -0.0194 -0.1720
22076W        W37970   6.134  12.241   4.378 -0.1919 -0.1106 -0.1030
22077W        W37971   0.443  14.375  14.191 -0.0859 -0.0282 -0.1522
22078W        W37972  11.590   9.954  10.962 -0.0338  0.1316  0.2319
22079W        W37973  18.107   7.075   1.878 -0.3091 -0.1094 -0.1288
22080W        W37974   4.428   8.936   0.132  0.2250  0.0158  0.1141
22081W        W37975   4.681  11.014  12.561 -0.0758  0.1366  0.0463
22082W        W37976  16.900   9.826  12.180  0.0455  0.2049 -0.2865
22083W        W37977  13.225  10.190   0.305  0.2069  0.0387 -0.0261
22084W        W37978  11.742   9.813  11.545  0.2058  0.0578 -0.3338
22085W        W37979   4.071   0.625  14.005  0.2444  0.0501 -0.1189
22086W        W37980   4.477  17.934  12.283  0.0643 -0.2843  0.1354
22087W        W37981  14.341  16.818   0.027  0.0060  0.2113 -0.2482
22088W        W37982   7.984   0.672   4.594 -0.5838 -0.2124  0.2133
22089W        W37983  10.590   5.238  16.136 -0.2377 -0.0236 -0.2551
22090W        W37984  10.622   4.307  12.286 -0.1404  0.0334  0.1849
22091W        W37985   1.686   7.291  14.845  0.2006 -0.2061  0.1107
22092W        W37986  18.182   8.900  13.592 -0.0375 -0.2419  0.0735
22093W        W37987   4.406  13.325  14.724 -0.2044  0.1510 -0.1209
22094W        W37988  16.115   9.607   0.407 -0.1619  0.4767 -0.0830
22095W        W37989  13.450   8.272  14.925  0.3697  0.1551 -0.1392
22096W        W37990   2.544  16.269  12.890  0.0447 -0.1963  0.1173
22097W        W37991  18.056   7.787   4.599  0.1704 -0.1296 -0.1997
22098W        W37992   7.604   8.203  12.244  0.2134  0.0356  0.0684
22099W        W37993   9.848  12.344  16.421 -0.1695 -0.0237  0.0661
22100W        W37994   0.831   9.961  14.224  0.0995  0.0764  0.3070
22101W        W37995   6.560  16.372  16.100  0.0800  0.0427 -0.4255
22102W        W37996  13.571   1.044   1.087 -0.0435 -0.3130 -0.3065
22103W        W37997  17.224  16.299  12.773  0.0951  0.0889 -0.0873
22104W        W37998   4.886  15.525   3.359 -0.0876 -0.0547 -0.0594
22105W        W37999  14.512   5.852  16.272  0.1626 -0.1458 -0.1478
22106W        W38000   9.184   2.942  16.348 -0.0239 -0.2039 -0.0719
22107W        W38001  13.909   5.353   1.858  0.4985 -0.0720  0.1543
22108W        W38002  11.022   1.640  13.055  0.0884  0.4023  0.1040
22109W        W38003   8.978   2.867  11.362  0.1281  0.0983 -0.0924
22110W        W38004  11.637  12.886   1.417  0.0767  0.2686 -0.0847
22111W        W38005   1.732   2.145   4.936  0.1323  0.0917 -0.2255
22112W        W38006  11.990  13.583   4.741 -0.1068 -0.0721  0.2220
22113W        W38007  11.812  18.049   0.909 -0.2805  0.2589 -0.0188
22114W        W38008   8.040   3.002   4.724  0.4251  0.1897 -0.2763
22115W        W38009   9.855  10.680   2.233  0.0130  0.3989 -0.2974
22116W        W38010   9.414   8.208  14.427  0.2025 -0.0542 -0.1957
22117W        W38011  15.480  14.873   2.164 -0.0865 -0.0800  0.0404
22118W        W38012  15.799  14.700  13.369  0.1012  0.1570  0.0345
22119W        W38013   9.094  14.044   1.672 -0.4117  0.0097 -0.2257
22120W        W38014  14.443  15.424  15.434  0.1676 -0.0632 -0.2265
22121W        W38015  14.913  16.681   2.669  0.2298 -0.0892  0.4309
22122W        W38016   6.939  10.454  16.018  0.2819  0.3502  0.1074
22123W        W38017  13.861  14.590  16.364 -0.3175 -0.1365 -0.0828
22124W        W38018   9.778  16.379   4.171 -0.1125  0.3540 -0.3863
22125W        W38019   7.755  15.286  14.994 -0.1574 -0.0447  0.4253
22126W        W38020   6.940  12.632  11.849 -0.0481  0.0609  0.1366
22127W        W38021   7.802  15.407  15.561  0.1809  0.1349  0.0329
22128W        W38022   1.441  15.166   0.937 -0.1715 -0.1395  0.0984
22129W        W38023  16.746   8.400   4.188  0.0102 -0.1484  0.0131
22130W        W38024  16.543  15.518  14.704 -0.1360  0.2400  0.1392
22131W        W38025   2.276   3.110   5.148  0.2668 -0.1285 -0.4161
22132W        W38026   4.034   2.220  12.965  0.4298 -0.0477 -0.1497
22133W        W38027  13.629  16.591   2.813 -0.0938  0.0412 -0.3090
22134W        W38028   8.763   3.136   5.361  0.0433  0.0546 -0.0320
22135W        W38029   0.421  16.668   2.994  0.0955 -0.1545 -0.0887
22136W        W38030  15.932   1.637   3.900  0.4292  0.1431 -0.2197
22137W        W38031   4.660   1.193  12.712  0.4308 -0.0586 -0.1509
22138W        W38032   4.269   8.128  11.996  0.1977 -0.0308 -0.0273
22139W        W38033   7.587   5.397  12.464  0.1599  0.3761 -0.3922
22140W        W38034   3.042   9.623   4.663 -0.0613 -0.3888  0.1109
22141W        W38035   3.593   9.097  10.987  0.2787  0.1321  0.1032
22142W        W38036  14.047   2.799  13.426  0.0186 -0.0754 -0.1928
22143W        W38037   6.305   6.101   1.433 -0.1572 -0.3131  0.0936
22144W        W38038   4.896   9.814   4.609  0.1756  0.0640 -0.2758
22145W        W38039  15.783   0.870  11.801  0.3986  0.2226  0.4649
22146W        W38040   0.050   5.084  14.492 -0.1899  0.1083  0.5099
22147W        W38041   0.233   2.893   4.610  0.0778  0.1998  0.0303
22148W        W38042   5.594  13.534  14.959 -0.2222 -0.0601  0.1452
22149W        W38043  17.567  16.982   2.487 -0.1174  0.1115  0.2524
22150W        W38044  14.415  17.754   0.233 -0.0567  0.0244  0.0871
22151W        W38045   7.203  16.803  14.884  0.5459 -0.0972 -0.4579
22152W        W38046  11.902   8.713   3.642 -0.2055 -0.0598  0.1738
22153W        W38047   7.378   4.609  10.796  0.0332  0.2321 -0.0366
22154W        W38048  16.507   0.596   3.414  0.0472  0.0496  0.0270
22155W        W38049  18.044   7.322   2.453  0.1400  0.0801 -0.1017
22156W        W38050  15.491   6.536  14.590  0.0190 -0.1866  0.1725
22157W        W38051   0.469   6.044   0.494  0.2146 -0.0805 -0.0245
22158W        W38052   9.363  10.230   0.999 -0.2633  0.0264 -0.0128
22159W        W38053   7.045   6.542   5.445  0.1787  0.1605  0.0024
22160W        W38054   8.619   1.493   1.509 -0.1887 -0.0815 -0.0361
22161W        W38055   5.005  12.806   2.848  0.3970 -0.0266  0.1767
22162W        W38056  12.628   6.558   3.405 -0.2646  0.2894 -0.0399
22163W        W38057   0.232  12.591   0.859  0.0060  0.1128 -0.0744
22164W        W38058   6.718   5.326  15.730 -0.0930  0.2305 -0.0406
22165W        W38059   2.042  17.887  13.528  0.1663  0.1047 -0.0034
22166W        W38060   3.600  11.955   3.076  0.4031 -0.3214  0.3205
22167W        W38061   6.871   9.757   5.235 -0.2098  0.0196 -0.0382
22168W        W38062  18.117   8.224  11.103 -0.0763  0.0204 -0.2331
22169W        W38063  13.743  16.104  15.193 -0.0118 -0.0330 -0.1526
22170W        W38064  13.753  16.338   1.727  0.2785 -0.0639  0.0169
22171W        W38065  17.438  10.401  14.357  0.0846  0.2639  0.0400
22172W        W38066   1.212   2.064  15.812 -0.1710 -0.1710 -0.3163
22173W        W38067   1.155   9.174   3.233  0.1530 -0.0159 -0.0153
22174W        W38068  16.628  12.783   0.881 -0.0256  0.4251  0.3342
22175W        W38069   6.913   3.743   2.922  0.1026 -0.1893  0.0960
22176W        W38070  16.125   8.647   6.491  0.0691 -0.0668  0.2119
22177W        W38071   9.109  17.140  14.073 -0.1105  0.1235  0.1331
22178W        W38072  16.997   0.420  12.978 -0.0257  0.0768  0.1494
22179W        W38073  10.749  15.169   2.962 -0.3570  0.1380  0.1633
22180W        W38074   5.418   1.724   2.464 -0.2315 -0.0374 -0.2960
22181W        W38075  13.184  13.861   1.494 -0.0614 -0.0711 -0.3013
22182W        W38076   3.071  10.496  15.863  0.0078  0.1422 -0.0106
22183W        W38077   3.538   4.884  16.206 -0.1414 -0.1188  0.1185
22184W        W38078   0.564  17.325   2.421 -0.0138  0.2524  0.2220
22185W        W38079   7.273   7.359  16.393  0.0738 -0.1321 -0.0922
22186W        W38080   9.814  17.743   0.446  0.2662 -0.0468  0.2826
22187W        W38081  17.548  15.280  14.606 -0.0468  0.1843 -0.0772
22188W        W38082   1.540   1.736   1.854 -0.2630  0.2988  0.1664
22189W        W38083  15.487   1.319   3.991  0.0731  0.0599  0.4326
22190W        W38084  15.229   4.147   3.097  0.2928  0.0844 -0.2092
22191W        W38085   5.908   7.270  11.766  0.1229 -0.0420 -0.0232
22192W        W38086  14.554   0.453  15.740  0.2391 -0.0249 -0.3795
22193W        W38087   7.213   2.597   1.591  0.0482  0.1417  0.2650
22194W        W38088   8.885   0.366   3.208  0.0173  0.0695  0.0049
22195W        W38089   5.634  17.056  15.489 -0.2212 -0.2774  0.0216
22196W        W38090   2.375  14.813   4.281 -0.2425 -0.0509  0.2138
22197W        W38091   8.256   6.194   3.240 -0.2472  0.0624 -0.0691
22198W        W38092  17.444  16.277   2.614  0.1041 -0.2628 -0.0826
22199W        W38093   8.524  16.208  12.469 -0.2330  0.1078 -0.0794
22200W        W38094  18.191  16.990  12.089 -0.1282  0.0321  0.0275
22201W        W38095   4.536  14.357   2.426  0.0569  0.2807 -0.3562
22202W        W38096  13.960  13.461   0.466 -0.0424  0.0413  0.3331
22203W        W38097   8.578  15.375  14.738  0.3018  0.1034 -0.0153
22204W        W38098   9.641   0.839   3.656  0.0240 -0.0327 -0.2104
22205W        W38099   8.618   9.383   3.146 -0.0678  0.0749 -0.1909
22206W        W38100   4.353  17.461  11.355  0.4605 -0.1603 -0.0454
22207W        W38101   0.659   8.348   5.726  0.2338  0.0802 -0.0066
22208W        W38102   4.162   8.887   3.851  0.1156 -0.2541 -0.0817
22209W        W38103   2.309   5.649   2.104 -0.2809  0.0139  0.0138
22210W        W38104   9.487   1.710   4.323 -0.0072 -0.0278  0.1760
22211W        W38105   4.879  13.020   0.054 -0.0003 -0.0426 -0.3144
22212W        W38106   0.484   3.270   5.312  0.2745 -0.0066 -0.0528
22213W        W38107   1.384   5.109  13.117  0.0138  0.2316 -0.0514
22214W        W38108   5.709  15.981  15.900  0.1189  0.1762 -0.0674
22215W        W38109  12.267  10.374  15.764  0.2879 -0.2148  0.3289
22216W        W38110   7.559   2.135  15.107 -0.0937  0.0002 -0.0073
22217W        W38111  10.499   8.725   3.289  0.1144 -0.0175  0.1206
22218W        W38112  17.622   7.732   1.274 -0.0023  0.1659 -0.0302
22219W        W38113  10.084  17.270  15.034  0.1088 -0.0549 -0.0790
22220W        W38114  10.763  14.928  14.033  0.3378  0.1454 -0.2889
22221W        W38115  16.503   0.191   3.917  0.1482 -0.0390 -0.1374
22222W        W38116  12.812   3.861   6.016  0.0860 -0.1224  0.0333
22223W        W38117  14.839   5.514   2.286  0.0713  0.2786 -0.0833
22224W        W38118   8.676   1.598   3.651  0.1184 -0.1543  0.2044
22225W        W38119  15.444   7.467   4.963 -0.0556 -0.3030 -0.0185
22226W        W38120   4.143   7.981   0.290 -0.1164  0.1824 -0.1275
22227W        W38121  15.214  15.087  14.353  0.3239  0.1869 -0.0889
22228W        W38122   4.641   9.808   4.158 -0.2893 -0.1951 -0.0362
22229W        W38123   0.009  16.801   0.205  0.2960  0.0114  0.6410
22230W        W38124   3.825  14.410  14.944 -0.3023  0.3568 -0.0089
22231W        W38125  16.573  11.917   6.535  0.1858 -0.0470 -0.1825
22232W        W38126   0.486  15.822   2.400  0.1979  0.0043 -0.2374
22233W        W38127  13.759   8.720   2.535 -0.2329  0.0957  0.2348
22234W        W38128   2.965   3.557  13.529 -0.2829  0.0418 -0.0968
22235W        W38129  17.409  14.787   3.798  0.2947 -0.3667 -0.1715
22236W        W38130   7.639  12.376  15.397  0.0259 -0.2635  0.1921
22237W        W38131   0.035  10.266  14.013 -0.0480 -0.1899 -0.1833
22238W        W38132   8.429   8.551  14.087  0.1516 -0.0164  0.2882
22239W        W38133  17.967   7.709  14.530  0.2064 -0.1434 -0.1816
22240W        W38134   5.657  13.996   2.141 -0.1953 -0.0145 -0.1229
22241W        W38135  16.543  12.358  13.410  0.0342 -0.1528  0.2614
22242W        W38136   9.597   7.928  16.403 -0.2618 -0.1074 -0.1592
22243W        W38137  14.885  10.145  14.239 -0.0469  0.0413  0.3069
22244W        W38138   1.608   6.001   2.680  0.1174  0.1971 -0.0256
22245W        W38139   2.270  16.134   5.872 -0.0604  0.0197 -0.0758
22246W        W38140  14.584  13.893  13.889  0.0888 -0.2316  0.2986
22247W        W38141  16.700   2.872  15.480 -0.2981  0.0284 -0.0922
22248W        W38142   6.362   7.340   0.487 -0.1833 -0.2751  0.2214
22249W        W38143   1.189   3.795   2.610  0.0533  0.0971  0.1671
22250W        W38144  17.265   8.732   0.024  0.2408  0.2282  0.2713
22251W        W38145   2.717   3.416   2.042 -0.0890  0.1339 -0.3080
22252W        W38146   8.271   1.940   2.789  0.1657 -0.1196 -0.2486
22253W        W38147  12.595  17.721   5.262 -0.0438 -0.0594  0.1049
22254W        W38148  15.159   0.394  12.045  0.2331  0.0140  0.3785
22255W        W38149  13.992  18.207  13.904  0.1929  0.3327  0.1613
22256W        W38150   1.352   3.320   2.297 -0.1578  0.2566 -0.2849
22257W        W38151   6.268  15.348  12.574 -0.0040  0.2360  0.1833
22258W        W38152   3.521   2.832   3.841  0.2656  0.0683 -0.2178
22259W        W38153   4.906   7.134   4.300 -0.0641 -0.2054  0.0692
22260W        W38154  12.614  17.523  11.474  0.3982 -0.3001 -0.0149
22261W        W38155   3.316   7.744  11.016 -0.1150  0.1470 -0.2348
22262W        W38156  15.901   0.881  11.341  0.0745 -0.0562  0.2848
22263W        W38157   4.858   4.411   0.419 -0.2635  0.0347 -0.1611
22264W        W38158  16.812  11.012  14.790 -0.1596 -0.1438  0.0718
22265W        W38159  13.832  16.919  16.437 -0.1020 -0.1499 -0.1905
22266W        W38160  16.055   2.753  15.592  0.2110 -0.0612 -0.3485
22267W        W38161   4.955   5.254  13.941  0.2135 -0.1036  0.3635
22268W        W38162   5.484   6.019  13.955 -0.3905  0.0280 -0.1598
22269W        W38163   9.250   0.665  16.259 -0.1096 -0.0950  0.0703
22270W        W38164  14.530   1.724  15.101 -0.1488 -0.2397 -0.0914
22271W        W38165   9.172   6.265   0.413  0.2522  0.1134 -0.1889
22272W        W38166  17.669  10.862   3.130 -0.0226 -0.0925  0.2854
22273W        W38167  11.892   3.960   0.093 -0.0605 -0.3287  0.1593
22274W        W38168  16.493   4.735   5.390 -0.0344  0.0106  0.0698
22275W        W38169   8.050  10.029   0.412 -0.0452  0.3276  0.0425
22276W        W38170   7.438  17.032  15.273  0.0793 -0.0489 -0.2101
22277W        W38171  18.204   6.365  14.648  0.0638  0.0592 -0.0886
22278W        W38172   7.347   2.573  13.945 -0.1818  0.0547 -0.1456
22279W        W38173   8.859  11.720   0.252  0.3697 -0.0290 -0.2333
22280W        W38174  14.908   4.753   4.441 -0.0438 -0.2656  0.1106
22281W        W38175   0.201   2.405  11.731 -0.1304  0.0544 -0.0507
22282W        W38176   6.594   2.881   5.578  0.2376 -0.0748 -0.0690
22283W        W38177  16.751  17.054   4.538 -0.1207  0.0053  0.2484
22284W        W38178  12.282  10.526   0.249 -0.1974 -0.1720 -0.0747
22285W        W38179  14.142   4.795  12.550 -0.1674  0.1505  0.3894
22286W        W38180   6.878  13.194   0.886 -0.4968  0.0123 -0.0423
22287W        W38181  16.120  14.385   6.495 -0.1435 -0.0836 -0.0075
22288W        W38182   0.705  16.271   5.286  0.0735  0.0770  0.3223
22289W        W38183   8.372   4.746   4.436  0.1971 -0.3171 -0.5619
22290W        W38184  13.534   3.068   4.603 -0.1163 -0.2171 -0.2720
22291W        W38185   3.064   6.822   1.838 -0.3418 -0.1608 -0.2780
22292W        W38186   5.152   1.103   4.524 -0.2307 -0.4207  0.0046
22293W        W38187  11.455  12.780   5.387  0.2405  0.1497  0.2322
22294W        W38188   0.452   2.830  13.210 -0.1896 -0.2591  0.0792
22295W        W38189  12.685   4.476  12.211 -0.0318  0.2326  0.4474
22296W        W38190  13.652   1.607   3.086 -0.3757  0.0170  0.0280
22297W        W38191   5.274   1.658   4.599  0.2056 -0.6511  0.0232
22298W        W38192   9.382  14.370   5.391  0.4321 -0.0506  0.1164
22299W        W38193  12.777   7.630  15.716  0.4116 -0.1633 -0.1946
22300W        W38194   3.286  12.786  11.871  0.1561  0.1505 -0.4450
22301W        W38195   1.271  12.523  13.393  0.0165 -0.0736 -0.3238
22302W        W38196  11.719  11.379   1.877  0.1158  0.0182 -0.0852
22303W        W38197   3.766   2.241   1.376  0.2415  0.4169 -0.1001
22304W        W38198  16.115  17.573   3.316  0.1356  0.0933 -0.2399
22305W        W38199   2.587  10.015   5.112 -0.0802  0.1035 -0.0330
22306W        W38200   2.434   5.632  14.278  0.1631  0.4845 -0.0366
22307W        W38201  11.474   7.894  13.603  0.0117 -0.1485  0.2862
22308W        W38202   0.163  10.480   0.795  0.0205 -0.0189  0.2137
22309W        W38203   2.504   0.735   1.017 -0.0854  0.2203 -0.1092
22310W        W38204   3.807   2.443   3.667  0.2205 -0.1469  0.0187
22311W        W38205   4.305  16.723   3.620  0.0644  0.1876 -0.0310
22312W        W38206   4.434   7.977  15.943 -0.0205  0.0469 -0.1135
22313W        W38207   9.455  17.598  12.421 -0.1682 -0.3506  0.0649
22314W        W38208   8.936  11.872   5.287 -0.2316 -0.1296  0.1354
22315W        W38209   9.252   9.279   1.437 -0.0097 -0.2425 -0.4088
22316W        W38210   8.301   5.025   2.283 -0.1610 -0.2832  0.1796
22317W        W38211  16.173  14.047   2.929 -0.0750 -0.0730  0.0814
22318W        W38212  17.938  17.500   0.330  0.1840 -0.0791 -0.1091
22319W        W38213   9.273   8.403  15.801  0.2287  0.1464  0.2653
22320W        W38214   1.395   5.102   2.809  0.2443 -0.1194 -0.1287
22321W        W38215  17.972   8.897  14.126 -0.3166  0.3395 -0.1023
22322W        W38216  13.044  12.799  12.780 -0.0257  0.1273  0.1161
22323W        W38217   3.222   0.945  14.932 -0.1750  0.1375  0.1058
22324W        W38218  17.759   7.824   4.094  0.0371 -0.0362  0.0310
22325W        W38219   0.472   8.785   5.936 -0.2012 -0.1446  0.3999
22326W        W38220  11.618   7.177  11.354 -0.1334 -0.1368  0.3285
22327W        W38221   7.815   3.014  14.656 -0.0202  0.0124  0.0404
22328W        W38222   2.075   4.843   1.635  0.2267 -0.2413 -0.2253
22329W        W38223   4.476  17.599   2.376  0.0886 -0.3609 -0.0629
22330W        W38224   0.413   1.221   2.440 -0.0599  0.0823 -0.1058
22331W        W38225   7.032   8.945  14.330  0.0230  0.0292 -0.0347
22332W        W38226  13.475   5.436  12.162  0.0653 -0.3884 -0.1824
22333W        W38227  11.685  11.819  11.344 -0.0411 -0.0839 -0.1037
22334W        W38228   2.834   1.789  13.765 -0.2213  0.0762 -0.1526
22335W        W38229  10.350  11.459   5.001 -0.2849  0.0957  0.1128
22336W        W38230  13.561   9.102  16.232  0.2981 -0.1149 -0.1404
22337W        W38231  17.789  14.505  13.736 -0.1263  0.2854  0.0353
22338W        W38232   4.142  12.477  11.612 -0.1032 -0.0404 -0.1726
22339W        W38233   8.968  10.623  14.885 -0.1062  0.2538  0.1634
22340W        W38234   6.425  15.698   4.199  0.0395  0.1461 -0.3048
22341W        W38235   6.615   0.288  13.348  0.2457  0.1487  0.2622
22342W        W38236  14.461  15.714   1.318  0.3666 -0.2496 -0.1709
22343W        W38237   4.828  11.496  11.607  0.1349 -0.0148  0.0522
22344W        W38238   7.979   1.555  15.701  0.2437  0.1478  0.2207
22345W        W38239   5.073   4.182   0.013 -0.0969  0.0362 -0.2373
22346W        W38240   8.244   1.109   2.092  0.1309 -0.3033 -0.1127
22347W        W38241  17.497  15.168   2.830 -0.1626  0.1754  0.1733
22348W        W38242   9.900   6.075  12.294  0.0816  0.2118 -0.0509
22349W        W38243   2.470   0.942  13.745  0.3056 -0.0873 -0.0322
22350W        W38244  13.508   3.550   2.713 -0.1062  0.3775  0.2737
22351W        W38245  13.308  12.922   5.743 -0.2324  0.1918 -0.1438
22352W        W38246  13.815  18.226  14.362  0.1116 -0.0807 -0.0223
22353W        W38247  11.217   6.192  11.852 -0.2395 -0.0511 -0.2305
22354W        W38248   0.454  11.476   3.907 -0.2003 -0.3421  0.1378
22355W        W38249   5.262   5.201  10.856  0.1958 -0.0478 -0.2881
22356W        W38250   7.041  14.804   2.812 -0.1559  0.1659 -0.1908
22357W        W38251   1.629   3.975   4.051  0.0209  0.0278 -0.0443
22358W        W38252   2.080   6.197  15.051 -0.4550  0.1391 -0.3432
22359W        W38253   3.736   8.327   0.739  0.1696 -0.0983  0.2293
22360W        W38254  14.855   2.353   2.220 -0.0062  0.3056 -0.0240
22361W        W38255   5.642   7.615  14.444 -0.2472  0.0517 -0.2079
22362W        W38256  14.519  14.262  13.525 -0.1358 -0.1782 -0.0864
22363W        W38257  14.226   7.917   0.451  0.2760  0.0674  0.0044
22364W        W38258   9.600   0.488  15.716 -0.0515 -0.0298 -0.5917
22365W        W38259   5.994  10.196   2.404 -0.0755  0.1731 -0.1260
22366W        W38260   2.182   1.059   2.584 -0.2223 -0.3946  0.0503
22367W        W38261  17.559   2.013  12.419 -0.0346 -0.1360 -0.2959
22368W        W38262   0.762  10.498  13.047  0.0082  0.2706 -0.2648
22369W        W38263  13.981   7.153   4.214 -0.2376  0.0978  0.0877
22370W        W38264   1.066  17.341   2.234 -0.2746  0.3969 -0.0892
22371W        W38265  12.599   3.732   1.894  0.2387  0.2776 -0.1514
22372W        W38266  14.680   7.293   2.112 -0.0364  0.0066 -0.0409
22373W        W38267   2.579   6.676   3.246  0.0430 -0.0438  0.1792
22374W        W38268   8.932   9.627   0.304  0.0796  0.3122  0.1812
22375W        W38269  16.945   4.054   2.874 -0.1369  0.1805  0.2527
22376W        W38270  15.825  13.684   2.743  0.1929  0.2183 -0.1510
22377W        W38271  17.347  16.926   3.284 -0.2032 -0.0997  0.1398
22378W        W38272   5.638  17.740   1.976  0.0431  0.2561  0.0008
22379W        W38273  16.466   1.775  16.462 -0.1475  0.1545  0.0989
22380W        W38274  12.192  13.790   0.377  0.3151 -0.1339  0.0907
22381W        W38275  14.969  12.374  14.332  0.1401 -0.0742  0.4012
22382W        W38276   3.823   3.208   3.669  0.0658 -0.2663 -0.1823
22383W        W38277  13.091   7.128  13.898  0.3187 -0.0584  0.0659
22384W        W38278  14.742  11.889   1.338  0.0241  0.1068 -0.1397
22385W        W38279  13.792   8.523  12.642 -0.2022  0.0297  0.2001
22386W        W38280   7.282  10.983   1.965 -0.0506  0.2664  0.0298
22387W        W38281  17.545  10.085  15.313 -0.1888  0.0557  0.2522
22388W        W38282  11.371  14.230   0.673 -0.0526  0.0342  0.0559
22389W        W38283  14.228  10.589   2.649 -0.1040 -0.1576 -0.1243
22390W        W38284   5.867  13.222  12.098  0.1411  0.1192 -0.0841
22391W        W38285   8.340  17.279   3.683  0.2076  0.0482 -0.2270
22392W        W38286   2.603  17.655   4.872 -0.2812 -0.0496  0.1021
22393W        W38287   1.812   6.646   0.685 -0.2673 -0.0279 -0.1630
22394W        W38288  10.366   7.763  13.613  0.1357  0.2281  0.0551
22395W        W38289  13.537   6.161  14.323  0.2088 -0.0154 -0.1160
22396W        W38290  16.547   0.930  15.187  0.3385  0.1375 -0.1392
22397W        W38291   7.624   4.382  11.165  0.5191 -0.0486  0.3128
22398W        W38292  11.413   5.418  11.824 -0.0665  0.4647 -0.2662
22399W        W38293  14.546  11.454   4.298  0.2025  0.0779  0.0079
22400W        W38294  12.383  12.410  15.304 -0.0761 -0.2063  0.0443
22401W        W38295  11.922  14.712   5.806 -0.3371 -0.1293 -0.0685
22402W        W38296   2.604  17.391   3.442  0.4086  0.0113 -0.2304
22403W        W38297  11.686   1.487  14.140  0.0226 -0.0000  0.3290
22404W        W38298   4.036  10.237   3.683 -0.0148 -0.1903 -0.2431
22405W        W38299  10.249  10.043  14.940 -0.4272  0.1153  0.1757
22406W        W38300  12.074   7.565  13.017  0.3502  0.3656 -0.2120
22407W        W38301   1.709   3.045  11.956  0.1544 -0.1373  0.3060
22408W        W38302  14.227   9.962  15.358 -0.0412  0.4215  0.0230
22409W        W38303  11.192   2.979   0.852 -0.2677  0.0276 -0.0829
22410W        W38304  13.233  11.137   2.137  0.2831  0.2609 -0.3636
22411W        W38305   0.967  17.260   3.637 -0.2012  0.1193  0.1086
22412W        W38306  11.892   4.716  14.970  0.1931 -0.0903  0.3223
22413W        W38307   0.246   7.019   4.384 -0.3996 -0.0832  0.3795
22414W        W38308   5.222  12.992   1.275  0.0009 -0.0891 -0.0544
22415W        W38309   7.172   4.639   3.850  0.0644 -0.0083 -0.1312
22416W        W38310   3.480  13.157  12.639  0.0726 -0.0249 -0.3587
22417W        W38311   9.635   0.291  15.252 -0.0918 -0.2338  0.0465
22418W        W38312   0.866   0.445   3.953 -0.0179 -0.0283  0.0296
22419W        W38313   8.195   4.863   0.302 -0.3343  0.1784  0.2540
22420W        W38314  15.054  13.823   1.841 -0.2526 -0.1043  0.1491
22421W        W38315   2.442   7.202   2.850 -0.0576 -0.1531 -0.1818
22422W        W38316   4.083   1.282  13.236 -0.1604 -0.3034  0.5161
22423W        W38317  15.380   8.441  13.031  0.0851 -0.1545 -0.2602
22424W        W38318  12.981   6.497  14.052 -0.0623 -0.0775  0.0292
22425W        W38319  13.433  12.000   3.654 -0.1819  0.2847  0.0240
22426W        W38320  13.299  11.479   0.542  0.1375  0.1376 -0.0066
22427W        W38321  15.218   2.275  12.770 -0.0682 -0.1109  0.0321
22428W        W38322   0.378   7.433  12.047  0.0042  0.1572 -0.1623
22429W        W38323   9.762   5.357  14.470 -0.1824  0.1152  0.2738
22430W        W38324  14.099  10.908  14.958 -0.1104 -0.1106  0.0755
22431W        W38325  13.409   0.192  13.246 -0.1218  0.1897  0.2217
22432W        W38326  18.069   4.994   4.783 -0.0237 -0.1473 -0.1657
22433W        W38327  15.256  10.001   5.424  0.3748 -0.1191 -0.1671
22434W        W38328   4.948  13.683   2.896 -0.1864 -0.2177 -0.0130
22435W        W38329  14.188  17.277  13.154  0.1287  0.0682 -0.0708
22436W        W38330  11.180   2.497   4.183  0.0491  0.2439 -0.0930
22437W        W38331   8.479  16.509  11.569 -0.2777  0.0209 -0.1926
22438W        W38332   6.515  16.143  12.987  0.1244  0.0761 -0.1133
22439W        W38333  11.325   0.320   1.230 -0.0887 -0.1480  0.0387
22440W        W38334   7.229  11.137   0.742  0.1150 -0.1165  0.0579
22441W        W38335  17.417  17.232  15.167 -0.1214  0.0772 -0.1314
22442W        W38336   4.474  17.081   4.020 -0.2109  0.2802  0.0435
22443W        W38337  15.080   3.597   2.655 -0.0404 -0.0029 -0.1805
22444W        W38338  17.030   7.926   1.129  0.2598 -0.2368  0.2752
22445W        W38339  17.302  13.302  12.590 -0.3492  0.1226 -0.1274
22446W        W38340   0.657   4.156   5.557  0.2122  0.1120  0.0614
22447W        W38341   1.022   0.816  14.802 -0.0414 -0.1424 -0.0490
22448W        W38342  13.946   0.342   1.438 -0.0035 -0.3315  0.0433
22449W        W38343  18.127  11.946   2.949  0.1199  0.2492  0.3680
22450W        W38344  17.393   3.253  14.985 -0.1272  0.1205  0.0380
22451W        W38345  12.957  14.384   3.042 -0.1675 -0.0859 -0.1086
22452W        W38346   6.016   7.828   4.032  0.1178  0.0108  0.1524
22453W        W38347   8.257  12.956   5.381  0.0449 -0.2253 -0.4260
22454W        W38348   4.090   5.173   1.999  0.1559  0.0082  0.0720
22455W        W38349  12.317   8.055   4.230 -0.1560 -0.0184  0.0780
22456W        W38350   4.981   7.705   4.220 -0.0016  0.0711  0.0744
22457W        W38351  15.413   5.453   0.226  0.1637 -0.1857 -0.0545
22458W        W38352  13.677   0.037   2.199  0.1741 -0.1660 -0.1184
22459W        W38353   1.819  14.893   5.813 -0.3767  0.4610 -0.2845
22460W        W38354  17.330  14.290  14.536  0.0930  0.0991 -0.1458
22461W        W38355  12.259   4.826   3.699 -0.0882  0.1742  0.2488
22462W        W38356  12.750  11.258   2.113 -0.1777 -0.0754  0.2112
22463W        W38357  15.205   9.495   1.349  0.0385  0.1865 -0.0455
22464W        W38358   5.435  12.701   2.607  0.3417  0.0957  0.0729
22465W        W38359  17.816  17.626   5.079  0.0728  0.0141 -0.1859
22466W        W38360  18.197   5.402  12.501  0.3120 -0.0799 -0.1839
22467W        W38361   5.297   1.753  16.137 -0.2099  0.2203 -0.4375
22468W        W38362   1.440  14.719  13.330 -0.0044  0.1483  0.2106
22469W        W38363  12.226   9.781   2.219  0.0862 -0.0808  0.1761
22470W        W38364  16.719  14.908  15.059  0.1800  0.5069 -0.0647
22471W        W38365  14.056  11.546   3.046 -0.1304  0.1016  0.0042
22472W        W38366  12.285   2.144   0.814 -0.0217  0.1593 -0.1547
22473W        W38367   1.608  14.542  16.365  0.0521 -0.1294  0.0730
22474W        W38368  10.003   0.515   2.713 -0.1401 -0.0254  0.1297
22475W        W38369   2.522  11.952   1.917  0.1725  0.3070  0.1185
22476W        W38370   8.135   0.331  12.190  0.0610 -0.0984 -0.0210
22477W        W38371  14.346  14.219   0.915 -0.2249  0.1526 -0.0336
22478W        W38372   7.767   9.768   0.774 -0.1905 -0.0448 -0.1965
22479W        W38373  15.538  10.955   0.843 -0.1553 -0.0112 -0.1445
22480W        W38374   5.993   3.600  11.555  0.1188  0.0668 -0.0244
22481W        W38375  14.466  16.739   3.235 -0.1084 -0.1073 -0.1572
22482W        W38376   4.514   5.444  13.103  0.3687  0.1141  0.0881
22483W        W38377   3.520   6.615   2.225 -0.1877 -0.0476  0.0813
22484W        W38378   9.876  17.228  13.599  0.0010  0.1298  0.2072
22485W        W38379   9.821   6.511   2.291 -0.0093  0.3210  0.4988
22486W        W38380  18.164   5.868   2.739 -0.2494  0.1015  0.0259
22487W        W38381  13.219  16.999  13.407 -0.0131  0.2949 -0.1486
22488W        W38382  15.777  10.688  13.490  0.1371  0.3835 -0.0354
22489W        W38383   0.915  16.271  15.689 -0.0442  0.5437 -0.0734
22490W        W38384  12.282  11.421  10.657 -0.1395 -0.2892 -0.1768
22491W        W38385   7.809  12.912   5.114  0.1471 -0.2376 -0.2377
22492W        W38386   1.368   7.833   1.006  0.1796  0.0255  0.1864
22493W        W38387  11.944   9.275   0.977  0.4459 -0.2259  0.1138
22494W        W38388   8.742   7.587  13.898 -0.4244 -0.2205  0.0861
22495W        W38389   4.005  13.221  15.215 -0.2952 -0.1749  0.4131
22496W        W38390  17.866  13.178   1.292 -0.1866 -0.2059  0.0001
22497W        W38391   5.781   5.629  12.999 -0.5611 -0.0512  0.1274
22498W        W38392  12.692   9.712   1.675  0.0654  0.1088 -0.1548
22499W        W38393  17.847  18.126  12.985 -0.1119 -0.1314 -0.0857
22500W        W38394   3.142   6.814  13.260  0.2939 -0.2038 -0.0338
22501W        W38395   6.250  14.714  15.907 -0.1192 -0.1885 -0.1805
22502W        W38396  10.500   3.044   4.044 -0.2604  0.1800 -0.0277
22503W        W38397   2.854  12.786  11.525  0.2136  0.2673 -0.0106
22504W        W38398  12.817   2.376   2.358 -0.1941  0.0246  0.1912
22505W        W38399   3.943   5.284   6.042  0.0315 -0.0282 -0.1213
22506W        W38400  17.038  14.085  14.190 -0.2934  0.0910 -0.2465
22507W        W38401   1.570   3.544  14.712 -0.0598  0.0656 -0.4539
22508W        W38402   1.932  15.942  13.552 -0.1218  0.2434  0.1328
22509W        W38403   2.554  14.729   0.412 -0.0115  0.0049  0.1528
22510W        W38404  11.572   9.959   3.410  0.0680  0.0418  0.0570
22511W        W38405   1.148  15.386  15.325  0.1835  0.1189 -0.0753
22512W        W38406   1.794   4.977  13.957  0.1835  0.2204 -0.0643
22513W        W38407  13.543   0.945   4.270  0.1021  0.1090 -0.2652
22514W        W38408  11.697  12.761   3.462 -0.0453 -0.1467  0.0216
22515W        W38409  12.245   0.930  12.896  0.3360 -0.0205 -0.1499
22516W        W38410  11.872   4.355  15.898  0.0756  0.1357  0.1599
22517W        W38411  10.626  14.054   0.272 -0.4418  0.0854  0.0208
22518W        W38412  11.994   0.645   5.244 -0.1455  0.3634  0.0283
22519W        W38413   2.790  17.736   1.580  0.1252  0.2277  0.0638
22520W        W38414   5.444   3.121  13.793  0.0978 -0.0689  0.0614
22521W        W38415   1.283   1.193   6.019  0.0705 -0.0791  0.3128
22522W        W38416   6.812  15.920   5.740  0.2986  0.0384 -0.0005
22523W        W38417   5.975   1.062  16.047 -0.0737  0.0961  0.2014
22524W        W38418  10.045  11.244  13.191 -0.1166  0.1669  0.0296
22525W        W38419  10.195   2.023  15.785  0.6203 -0.0278 -0.0883
22526W        W38420  17.460  15.997   2.079 -0.1199  0.2118  0.0721
22527W        W38421   2.301   3.185  14.802 -0.0152 -0.0151  0.2057
22528W        W38422  14.984  12.755  15.993  0.0687  0.1108  0.2566
22529W        W38423  10.646   7.621   0.907 -0.0501  0.2671  0.1085
22530W        W38424  14.295  15.646   5.674  0.7243  0.0117  0.3811
22531W        W38425   6.041   6.126  11.939  0.2484 -0.4856  0.0432
22532W        W38426   3.333  16.639   1.065  0.0499 -0.1592 -0.1364
22533W        W38427  15.052   6.001  14.048 -0.3437 -0.1476  0.1409
22534W        W38428  17.077   6.288   6.138 -0.1013 -0.2093 -0.1651
22535W        W38429   3.477  12.330  12.031  0.1705  0.0171 -0.3045
22536W        W38430   3.417  12.173   1.747 -0.0882  0.0905 -0.1788
22537W        W38431   6.385   9.392  14.738 -0.0106 -0.1486  0.0496
22538W        W38432   3.987   8.262   3.676 -0.0065 -0.3902  0.1816
22539W        W38433   6.245   0.629  11.772 -0.2700  0.1835 -0.0099
22540W        W38434  10.198   1.573  14.812  0.2886  0.1272  0.2702
22541W        W38435  14.449   4.342   1.952 -0.1990 -0.0574  0.1324
22542W        W38436   7.831  12.986   1.398 -0.2075  0.2008  0.1984
22543W        W38437   9.313  11.944  14.318  0.4826 -0.0540 -0.2540
22544W        W38438  12.538   3.303  14.339  0.0493  0.0971  0.3554
22545W        W38439  13.458  15.923   2.964 -0.1784  0.0751  0.0415
22546W        W38440  16.609   3.264   4.300  0.0397 -0.2741 -0.0766
22547W        W38441   6.308  15.312   2.454 -0.0725  0.1122 -0.0713
22548W        W38442   8.222   3.777  13.370  0.2158  0.0575  0.1943
22549W        W38443  13.167  13.203   4.169  0.2837 -0.0197 -0.0664
22550W        W38444  11.080  16.563  13.445  0.0328 -0.1235  0.2651
22551W        W38445   7.941   4.181  16.183  0.1813  0.0110 -0.0543
22552W        W38446   0.714  12.446   1.402 -0.2995  0.1563  0.2185
22553W        W38447  10.612  18.090   4.648 -0.3122  0.1367 -0.0101
22554W        W38448   6.330   3.788   1.402  0.3847 -0.3546 -0.2293
22555W        W38449   9.473  16.902   0.344  0.1622  0.0856 -0.0079
22556W        W38450   4.434  18.184   1.473  0.0700  0.0766 -0.2155
22557W        W38451   4.158  11.733  12.914  0.1528 -0.3016 -0.1170
22558W        W38452   5.339   4.390   4.623 -0.3238 -0.0626 -0.4873
22559W        W38453  13.654   3.694   4.135 -0.4778 -0.1519 -0.1643
22560W        W38454   1.182  16.166  12.901  0.1413 -0.1189  0.0136
22561W        W38455   5.752  12.271  15.083 -0.1505 -0.3024  0.1675
22562W        W38456  15.963  16.071   0.402 -0.1399 -0.3157  0.1137
22563W        W38457  15.299   0.307  14.031  0.0118  0.0763  0.2802
22564W        W38458  11.086   3.874  10.191  0.1766 -0.1280 -0.1288
22565W        W38459   5.133   4.503  11.532 -0.1833  0.1314  0.0044
22566W        W38460   5.314   8.468  13.583 -0.1864  0.1437 -0.2923
22567W        W38461   7.477   6.636   3.950 -0.0309  0.1142  0.0746
22568W        W38462   7.009   9.654  14.934 -0.0870 -0.1466  0.2049
22569W        W38463  16.356  11.369   5.348  0.0057 -0.2415 -0.1834
22570W        W38464   2.628  16.440   0.395  0.1351 -0.4656 -0.0466
22571W        W38465   0.747   2.023  15.747  0.1593  0.1957 -0.1153
22572W        W38466  11.618   3.581  12.625 -0.2128 -0.0613 -0.0929
22573W        W38467  10.196  10.756   2.672  0.1242 -0.2087  0.0231
22574W        W38468   3.919   4.184  13.676  0.0981  0.3129 -0.3329
22575W        W38469  14.167   1.615  15.977  0.2184 -0.0562 -0.2013
22576W        W38470  15.453   1.746  14.578 -0.0125  0.2311 -0.0979
22577W        W38471  10.921   8.680  13.682  0.2729 -0.2633 -0.0789
22578W        W38472  18.014  11.629   6.067  0.2786 -0.0953 -0.0627
22579W        W38473   0.348   3.649   1.857  0.3159  0.1237 -0.0982
22580W        W38474  13.205  12.535  13.658  0.1199  0.1653  0.1651
22581W        W38475  11.298  16.776   5.676  0.1944 -0.0779 -0.1183
22582W        W38476   1.515   4.009  14.862  0.1540  0.0051 -0.1141
22583W        W38477  17.957   1.741  13.303  0.1626  0.1814 -0.0654
22584W        W38478   2.186  17.814  14.621  0.2337 -0.3112 -0.0447
22585W        W38479  17.713  13.892   0.582 -0.0496  0.0745 -0.0367
22586W        W38480   9.436   3.339   1.053 -0.1332  0.4799 -0.3473
22587W        W38481  15.668   1.030   2.534 -0.0969  0.2901  0.1362
22588W        W38482  17.091   6.693  15.637 -0.0212 -0.0007 -0.1071
22589W        W38483  15.502   4.014   4.672 -0.5670  0.1477 -0.0940
22590W        W38484  14.084  13.204  16.350 -0.2190 -0.0365 -0.0112
22591W        W38485   8.953   5.688  15.312 -0.1494  0.1842 -0.5499
22592W        W38486   6.052   4.339  12.082 -0.0249 -0.2514 -0.1339
22593W        W38487   9.829   3.303  11.585 -0.0633 -0.1382 -0.1820
22594W        W38488  16.844  11.730   0.406  0.0300 -0.2241 -0.1321
22595W        W38489  12.717  12.081   5.213 -0.0611 -0.1507 -0.1047
22596W        W38490   1.651   4.844  14.591  0.0516 -0.1272  0.0791
22597W        W38491  13.741  10.211  14.322 -0.0189  0.1579  0.0221
22598W        W38492  11.288   3.224  13.686 -0.3217 -0.2613 -0.0410
22599W        W38493  12.847  12.214  14.395  0.3070  0.0629 -0.0481
22600W        W38494   3.112   4.427   2.949 -0.0341  0.0741  0.0108
22601W        W38495  16.750   6.752   6.525 -0.0534  0.4338  0.2228
22602W        W38496   6.400  11.196  11.591 -0.1662 -0.0893  0.0671
22603W        W38497   9.001   1.122  11.084 -0.1911 -0.2558  0.2360
22604W        W38498  11.498  10.768   1.397  0.0179  0.1532 -0.0514
22605W        W38499  16.026   5.139  15.857  0.3688  0.2242 -0.1418
22606W        W38500   0.563  13.717   5.505 -0.0108 -0.0391 -0.2400
22607W        W38501  13.415  14.347   0.593  0.1703  0.0104  0.2224
22608W        W38502   5.880  12.624  13.606 -0.3046  0.0390 -0.3612
22609W        W38503   7.910   2.751   5.374 -0.3106  0.0382  0.3274
22610W        W38504  17.648   8.543   1.607 -0.3816  0.1998  0.0555
22611W        W38505  17.539   7.552  14.228 -0.1008 -0.0487 -0.1546
22612W        W38506  15.976   1.197   3.031  0.2983  0.1120  0.1740
22613W        W38507  14.438  17.018   5.135  0.0276  0.0425 -0.4383
22614W        W38508   6.639   0.829  13.995  0.1643  0.0399 -0.2911
22615W        W38509  12.552   8.705  14.207  0.0371  0.0935  0.0897
22616W        W38510   5.453   6.841   5.638  0.0465  0.0579  0.3243
22617W        W38511   2.279   8.475  14.467  0.3831 -0.1668 -0.0085
22618W        W38512  11.428  12.475  14.288 -0.1122 -0.0172  0.2014
22619W        W38513   7.751   3.590   9.934 -0.2425  0.0961  0.1453
22620W        W38514  15.024  12.092   0.912 -0.0453 -0.1548 -0.1725
22621W        W38515   4.991   3.009  16.237  0.1735 -0.0094  0.0268
22622W        W38516   4.893   7.103   3.802  0.0632  0.0515 -0.2013
22623W        W38517   5.798   5.125  12.891 -0.0035  0.1809  0.2988
22624W        W38518   2.527   4.394  12.933  0.2557  0.1108  0.2946
22625W        W38519  10.720   4.679   2.892 -0.0040 -0.2868  0.0470
22626W        W38520   0.048  12.677  15.606  0.3416 -0.2913  0.0262
22627W        W38521   5.670   2.765  15.251  0.3302  0.0438 -0.1287
22628W        W38522   7.178   5.382   1.289  0.0650  0.2072 -0.0124
22629W        W38523   0.860   2.038  13.699  0.0671 -0.0146  0.0577
22630W        W38524   4.615  11.428   4.257 -0.1577 -0.4030 -0.5541
22631W        W38525  15.496   0.689  16.147  0.1524 -0.4184 -0.1540
22632W        W38526  17.778   0.224  15.893  0.2306 -0.1738  0.0390
22633W        W38527   9.267  15.180  13.082  0.1702  0.2153  0.2268
22634W        W38528   1.853  18.098   2.599  0.0771  0.4415  0.0250
22635W        W38529   5.175   0.602   4.623  0.0032  0.1496 -0.1745
22636W        W38530   1.930   2.813   3.432  0.1135  0.3099  0.0662
22637W        W38531   9.926  10.158   1.036  0.1516 -0.2297 -0.1370
22638W        W38532   2.589   8.137  14.337 -0.3375 -0.0789 -0.0385
22639W        W38533   4.563   2.169  11.569  0.1597  0.0383 -0.4014
22640W        W38534  13.109  11.476  13.845 -0.1514  0.0935  0.0253
22641W        W38535  10.935   6.926   5.876 -0.0710 -0.3655 -0.2358
22642W        W38536   6.640   1.734  15.962 -0.1210 -0.1477  0.1842
22643W        W38537  14.239  12.372  14.442 -0.0211 -0.3342  0.3387
22644W        W38538   7.453   3.742  15.260 -0.0795  0.1536  0.2179
22645W        W38539   7.673   3.900   0.167 -0.1257  0.3268  0.1101
22646W        W38540   0.258  10.243   5.031  0.1709 -0.2321 -0.0160
22647W        W38541  16.522   3.502  12.278  0.0494 -0.2719  0.4416
22648W        W38542   8.036   9.842  12.420  0.4526  0.0038 -0.0051
22649W        W38543   3.065  17.561  14.736 -0.1914  0.2469 -0.1867
22650W        W38544  10.738   9.991   1.467 -0.1124 -0.0605  0.0203
22651W        W38545  16.856  11.052  11.716  0.1210  0.2232  0.1583
22652W        W38546  14.028  16.787   3.046  0.1066 -0.0498 -0.1101
22653W        W38547   0.346   2.248   0.907 -0.3393 -0.0330  0.1964
22654W        W38548  10.002   9.166   0.752  0.0741  0.0298  0.1750
22655W        W38549   6.252  15.828   1.251 -0.0937 -0.0570 -0.0798
22656W        W38550   8.206   5.090  15.613 -0.0244 -0.1837  0.4396
22657W        W38551   6.776  15.843  16.050 -0.0860 -0.4520 -0.2479
22658W        W38552   0.395  15.415  13.824 -0.0321 -0.4602 -0.0669
22659W        W38553   4.217   2.932   1.567  0.3187 -0.2111 -0.0536
22660W        W38554   4.738  11.419   2.674  0.0460 -0.0895  0.2105
22661W        W38555   3.174   2.293  13.057  0.0686 -0.0179 -0.3112
22662W        W38556   3.739  10.141  11.779 -0.2541 -0.1743  0.2501
22663W        W38557  12.331  13.515   3.295 -0.0346  0.1077 -0.1304
22664W        W38558   8.041  14.102   4.269  0.3176  0.0577 -0.1054
22665W        W38559   5.466  16.049   0.944 -0.1623  0.2122  0.1278
22666W        W38560  16.756   6.927  11.767  0.0821  0.0589 -0.2577
22667W        W38561   5.661  10.699  11.986 -0.1852  0.3390 -0.0267
22668W        W38562   0.206  14.106  15.636  0.2271 -0.1962  0.1112
22669W        W38563   8.899   5.599   4.236  0.1949 -0.0212 -0.1125
22670W        W38564  15.901  16.515  14.296 -0.2758  0.2647  0.1009
22671W        W38565  18.200   0.279   5.360  0.0011  0.0613 -0.0203
22672W        W38566   0.859   7.548   3.056 -0.1028  0.4097 -0.0859
22673W        W38567  16.895  14.915   1.749 -0.0171 -0.1604  0.1248
22674W        W38568  12.789   4.775  15.240  0.2555  0.1668 -0.0090
22675W        W38569  13.233   3.657   0.997  0.1114  0.4935 -0.0927
22676W        W38570  11.020   1.868   3.090  0.0776  0.1289  0.0154
22677W        W38571  16.684  10.842   0.171  0.0588 -0.2904 -0.1731
22678W        W38572   1.119   1.940  15.312 -0.0763 -0.0611 -0.2745
22679W        W38573  16.261   6.302  14.803 -0.3173  0.3210  0.0470
22680W        W38574  17.312   5.687   5.455 -0.0642  0.0457  0.0688
22681W        W38575   3.468  11.388   3.804 -0.3999 -0.0837  0.0700
22682W        W38576  10.677   4.182   2.194 -0.1456 -0.0392 -0.2979
22683W        W38577   3.298  14.948   2.916  0.2610  0.4379 -0.1348
22684W        W38578  15.190   0.796   0.308 -0.1605 -0.0787  0.0074
22685W        W38579  16.061   0.693   1.242 -0.0205  0.0474 -0.2997
22686W        W38580   7.560   1.625  15.271  0.1982  0.1264  0.2140
22687W        W38581  16.269   2.455   0.933  0.2085  0.0073 -0.0576
22688W        W38582   4.502  16.434  12.230 -0.2358 -0.2182  0.2804
22689W        W38583   9.239  15.471   0.851 -0.1690 -0.0091 -0.1461
22690W        W38584  18.087   9.468   2.028 -0.0999  0.0483 -0.0801
22691W        W38585   1.183   3.048   1.302 -0.1957  0.0446 -0.4063
22692W        W38586  12.369  15.173   0.606  0.2449 -0.2491  0.1931
22693W        W38587  10.609   0.598   3.471 -0.0365 -0.1866 -0.2882
22694W        W38588   0.699   1.010  12.759 -0.1629 -0.1921  0.2779
22695W        W38589   0.941   6.304   1.528  0.2814  0.3500 -0.0574
22696W        W38590  13.836   4.500   1.793  0.0318 -0.1682  0.0721
22697W        W38591   1.454  12.675   2.139 -0.0407  0.1979  0.0049
22698W        W38592  15.872  10.650  12.646  0.0501  0.1785 -0.0599
22699W        W38593   9.866  12.466  14.769  0.0079  0.0831 -0.2553
22700W        W38594   6.470   6.586   0.064 -0.0198 -0.0051 -0.0598
22701W        W38595   1.277   6.609   3.098  0.1400 -0.4062 -0.2655
22702W        W38596  14.758  15.820   3.828  0.3822  0.2824  0.0104
22703W        W38597   8.166   3.349  14.733  0.2488 -0.1340 -0.0729
22704W        W38598   7.860   0.552  11.199  0.1363  0.2818 -0.1424
22705W        W38599   4.451   1.101  12.147 -0.1323 -0.0767 -0.0036
22706W        W38600  15.362   8.905   0.505 -0.3699 -0.0983  0.0725
22707W        W38601  13.885   0.482   1.953  0.0045 -0.0631 -0.0011
22708W        W38602   9.758  11.128   1.304  0.1711  0.0143  0.1497
22709W        W38603  11.136   8.571   5.414  0.0077 -0.0333 -0.1187
22710W        W38604   2.874   4.893  14.091  0.2631  0.0791 -0.1056
22711W        W38605   7.154   9.942   3.177 -0.3497  0.3473 -0.1281
22712W        W38606   2.237  15.556   0.705  0.0661 -0.1371 -0.1264
22713W        W38607  16.456  15.904   3.124  0.0073 -0.1065  0.0309
22714W        W38608  14.191   7.566   3.071  0.0694  0.2937  0.3509
22715W        W38609   0.561   8.093  12.847 -0.2939 -0.1691 -0.0920
22716W        W38610   3.309   3.057   0.892  0.0491 -0.0982  0.0650
22717W        W38611   4.542   9.235  14.493 -0.3538 -0.2115 -0.0964
22718W        W38612   6.367   0.214   3.084 -0.0945  0.2804  0.2098
22719W        W38613  12.354  17.999   0.860 -0.0146 -0.2342 -0.0994
22720W        W38614   9.063  15.324   3.018  0.0886  0.2319  0.4699
22721W        W38615   5.990   6.998  15.747  0.2116  0.0031  0.1286
22722W        W38616  18.199  12.332   4.256 -0.1267  0.1095 -0.0615
22723W        W38617   3.734  15.446   0.515  0.2292 -0.3878  0.2361
22724W        W38618   1.945   5.142   0.928 -0.0716  0.0791 -0.3341
22725W        W38619  13.128  12.430  15.867 -0.1962  0.0361 -0.3611
22726W        W38620   7.305   1.929   1.921  0.0738 -0.1505  0.1019
22727W        W38621  16.134  15.255   1.405 -0.0486 -0.1663 -0.0510
22728W        W38622   8.136   7.722   3.806  0.0301  0.0279  0.1031
22729W        W38623   0.230   1.126  11.469  0.2786  0.0367 -0.2127
22730W        W38624   8.881  10.150  15.619 -0.3256 -0.3417  0.1548
22731W        W38625   7.450  11.264   2.394  0.0870  0.0685 -0.0021
22732W        W38626  12.710  10.559  15.703  0.1338 -0.0360 -0.2192
22733W        W38627  17.448  15.083  15.793  0.0533 -0.3118 -0.3547
22734W        W38628  16.834   5.418  15.645  0.1209 -0.1112 -0.1057
22735W        W38629  11.852   4.121  12.545  0.0620  0.0563 -0.0675
22736W        W38630   3.814   4.389  11.620  0.1353  0.2466 -0.1076
22737W        W38631  12.170  11.612  14.431  0.1241 -0.2103  0.0727
22738W        W38632  11.592   5.507   3.581 -0.2016 -0.0176  0.3034
22739W        W38633   0.335  10.640   1.219 -0.2713  0.0597 -0.1258
22740W        W38634   4.728   1.324  15.964  0.1732 -0.0247  0.2040
22741W        W38635   9.022   7.427   4.904  0.1615  0.3137  0.3452
22742W        W38636  11.387   5.085   1.210 -0.0564  0.2072  0.3078
22743W        W38637  12.544  11.206  13.115  0.0593  0.2417  0.1369
22744W        W38638   7.093   1.625  15.441 -0.1272 -0.2876 -0.2268
22745W        W38639   8.885  15.493   3.494  0.2275 -0.1571 -0.0991
22746W        W38640  12.973   9.824   4.872  0.1301  0.2617 -0.1948
22747W        W38641  12.610   0.668   0.709  0.2037 -0.0013  0.0580
22748W        W38642  12.589   0.763   3.733 -0.2540 -0.1041 -0.2310
22749W        W38643   0.985   9.892   0.936  0.1898  0.3877 -0.1616
22750W        W38644   0.313   4.734   0.221  0.3740  0.0000 -0.0680
22751W        W38645  15.868  10.101   2.003 -0.0623  0.0157  0.3784
22752W        W38646   9.972  10.865   4.037 -0.2722 -0.0211 -0.2371
22753W        W38647   2.239   2.816  11.986  0.0691  0.0131  0.1352
22754W        W38648  12.814   0.459  15.537 -0.0052 -0.0797  0.0639
22755W        W38649  16.323   7.218  15.981  0.0829 -0.0685  0.0502
22756W        W38650   6.157   4.088   0.182  0.2735 -0.3006  0.3727
22757W        W38651  11.762  17.584  14.510  0.0868  0.1599  0.3930
22758W        W38652   9.740   2.556  13.142 -0.0287  0.0988 -0.3198
22759W        W38653   8.389   5.308   1.028 -0.1398  0.2174  0.0635
22760W        W38654   3.390  14.600  14.679 -0.1786  0.2883  0.1347
22761W        W38655  11.103   0.099   3.001 -0.1179  0.2578  0.0723
22762W        W38656   4.546  16.721  16.405 -0.0502 -0.4492 -0.1839
22763W        W38657   7.021   6.996   3.938  0.0560  0.1517  0.1821
22764W        W38658  15.233  14.536   3.806  0.0394  0.0735  0.0755
22765W        W38659  13.517   7.939  12.186 -0.1932  0.0182 -0.0380
22766W        W38660  15.867  13.513   4.734 -0.0856 -0.0051 -0.3774
22767W        W38661  14.796   9.730   5.234 -0.0305  0.0534  0.0220
22768W        W38662  12.784  11.289   3.168  0.1604 -0.4504  0.2461
22769W        W38663   8.322  16.611   5.139  0.0930  0.1705  0.2066
22770W        W38664   8.996   4.247   0.959  0.1722 -0.0000  0.3351
22771W        W38665  16.737   7.293  12.131  0.0813 -0.3111 -0.0512
22772W        W38666  15.078  12.880   2.837 -0.0786 -0.2131 -0.1890
22773W        W38667   6.277   9.055  11.135 -0.1116  0.0774 -0.3363
22774W        W38668  16.712   9.714  14.280 -0.1330  0.1415  0.1152
22775W        W38669  12.605   5.846   0.419 -0.2356 -0.0688  0.0062
22776W        W38670  14.676   6.676  14.977  0.2628 -0.0140 -0.0812
22777W        W38671  13.774  16.981  13.447  0.2124  0.1267  0.3107
22778W        W38672  17.153   3.068   4.295 -0.0314  0.2730 -0.2091
22779W        W38673  11.229  15.947   1.374  0.1326  0.0296 -0.1345
22780W        W38674   3.841  17.022   2.199  0.3795 -0.1140 -0.0263
22781W        W38675  14.857  11.138  12.640  0.0410  0.1916  0.1647
22782W        W38676  14.013   5.645   2.327  0.1766  0.2298 -0.1446
22783W        W38677   5.188  12.761   5.103 -0.2688  0.1899 -0.1783
22784W        W38678  13.246   5.265  12.567  0.1723 -0.0596  0.0818
22785W        W38679   7.585   8.388   1.524  0.0834 -0.0610  0.1705
22786W        W38680  15.334   1.085   2.959  0.1341 -0.4515 -0.0289
22787W        W38681   6.193   5.460   2.618  0.1071 -0.1674 -0.3120
22788W        W38682   9.840  13.351  14.628  0.0196  0.2760  0.0547
22789W        W38683   2.858  15.713   5.195 -0.1418 -0.0806 -0.1271
22790W        W38684  12.717  13.216  16.208 -0.1778 -0.3239  0.1133
22791W        W38685   7.156  10.073  11.460  0.0174 -0.2106  0.1014
22792W        W38686  11.055  11.017   4.611 -0.1575  0.1487 -0.3889
22793W        W38687   4.253   7.421  16.014 -0.1753 -0.1501 -0.2036
22794W        W38688   9.422   7.766  10.511 -0.2798 -0.0488 -0.0974
22795W        W38689  13.068   1.071  14.521  0.2982 -0.0679  0.0001
22796W        W38690   6.004   4.652  14.262 -0.1131 -0.0359  0.2916
22797W        W38691  15.494   3.979   3.687  0.2879  0.0188 -0.2168
22798W        W38692   6.634   7.447   2.386 -0.2340  0.1035 -0.1590
22799W        W38693   6.430   5.018  13.349  0.2505  0.1409 -0.0958
22800W        W38694   1.834   3.112  14.435 -0.0461 -0.1178  0.0130
22801W        W38695   2.696  14.649   3.896 -0.0469 -0.0091 -0.1959
22802W        W38696  15.890   1.127   5.088  0.2693  0.0389  0.2940
22803W        W38697  13.078   8.858  14.137 -0.1960  0.0626  0.1385
22804W        W38698   1.980   7.782   2.209  0.1400 -0.3239 -0.1440
22805W        W38699   2.586  14.828   1.842 -0.0302 -0.0638 -0.1621
22806W        W38700  16.283   7.290   3.463 -0.1050 -0.1386  0.1249
22807W        W38701   2.608  12.786  13.886 -0.0545  0.0268  0.3519
22808W        W38702   0.952   1.840   3.680  0.0283 -0.1267  0.0014
22809W        W38703   3.862   3.253  15.130  0.0581 -0.0370  0.1462
22810W        W38704   8.028   4.156  13.117  0.2647  0.2305 -0.1463
22811W        W38705  10.868   3.902  13.528 -0.2148 -0.0602  0.3189
22812W        W38706   1.254  13.371  13.413 -0.1532  0.0916  0.1106
22813W        W38707  12.137   6.119   4.723  0.1191  0.3143  0.0513
22814W        W38708  15.161  14.139  14.924 -0.1568 -0.3323  0.0371
22815W        W38709  13.400   6.393  11.245  0.0667  0.4648  0.1584
22816W        W38710   5.883  18.050   1.641 -0.0975  0.3292  0.1481
22817W        W38711   8.148   3.782  14.458  0.2792 -0.2666 -0.1884
22818W        W38712  13.922  16.516   6.217 -0.2706 -0.0909 -0.1401
22819W        W38713  17.525  15.692   4.110 -0.0089  0.0913 -0.0615
22820W        W38714   2.586   8.137   6.139 -0.1777 -0.3518  0.1044
22821W        W38715   2.572  13.486  13.134 -0.0858  0.2826  0.1029
22822W        W38716  13.956   8.327  13.902 -0.0529 -0.0152 -0.1100
22823W        W38717   8.910   1.780  13.401 -0.1638 -0.0485  0.0896
22824W        W38718  17.795   4.085   2.462 -0.2306 -0.0626  0.1250
22825W        W38719   6.371  12.361  15.931  0.1411 -0.1077  0.0661
22826W        W38720   3.146   0.362  13.652 -0.0597 -0.1290  0.1261
22827W        W38721   0.476   3.601   0.378 -0.2589 -0.1388 -0.2318
22828W        W38722   9.774   7.495  16.124 -0.0842 -0.3190  0.1607
22829W        W38723  14.303  16.232  15.190  0.4212  0.1292  0.1369
22830W        W38724   8.278   1.016  13.490  0.1726 -0.1486  0.0254
22831W        W38725   1.537   4.495   2.161 -0.0438  0.3022  0.1154
22832W        W38726  12.183  17.376  11.710 -0.1889  0.0733  0.2751
22833W        W38727  14.450  13.838  12.465 -0.0379 -0.0921  0.1183
22834W        W38728  14.344   5.940  11.494 -0.0527 -0.1215  0.0212
22835W        W38729   4.285   9.425   3.793  0.1941  0.1113 -0.1706
22836W        W38730  14.313  14.899  15.478 -0.1507  0.2021 -0.2694
22837W        W38731   6.434   8.302  10.546  0.1588  0.3077  0.3343
22838W        W38732  13.940  17.459   2.451 -0.1181  0.1824 -0.1624
22839W        W38733   1.785   0.151  12.530 -0.3473 -0.0352 -0.0468
22840W        W38734  12.263  15.964  14.664  0.4601  0.1633  0.0445
22841W        W38735  14.810   3.862   0.779 -0.1038 -0.1257 -0.1675
22842W        W38736   0.616   3.631   3.450  0.1308  0.2268  0.0621
22843W        W38737   8.747  15.697   2.794 -0.1427 -0.3769  0.1629
22844W        W38738  18.049   0.273   2.110  0.2637  0.1515  0.2164
22845W        W38739   5.475  16.707  14.618  0.1495  0.1046  0.3176
22846W        W38740   1.273   3.095  13.719  0.0645  0.4690 -0.2408
22847W        W38741  13.049  15.987  14.776  0.0482 -0.2250 -0.1174
22848W        W38742  12.643  14.927   3.578  0.0892 -0.2779 -0.4407
22849W        W38743   7.962   4.597   4.197 -0.0545 -0.0262  0.1948
22850W        W38744  10.950   6.173   0.675 -0.0788 -0.1563  0.0071
22851W        W38745  16.744   7.648  14.536  0.1735  0.1126 -0.3323
22852W        W38746  15.331   8.069   0.606 -0.2269 -0.1687 -0.1296
22853W        W38747   7.756  10.484  15.048 -0.2842  0.0143  0.0494
22854W        W38748   6.536   6.402  14.674  0.1829  0.1552  0.1733
22855W        W38749   7.874  13.339   1.769  0.1355  0.1223  0.1619
22856W        W38750   6.405   5.231  11.588 -0.2551  0.0062  0.2226
22857W        W38751  12.523   8.968   2.219  0.3138  0.0976  0.0473
22858W        W38752   2.409   1.215   5.859  0.2633 -0.0914 -0.2161
22859W        W38753   3.039  12.637  15.339 -0.3328 -0.2226 -0.0288
22860W        W38754   2.394  17.109  14.009  0.0062  0.1238  0.3173
22861W        W38755  10.353  14.382   0.540 -0.0567 -0.2500 -0.0358
22862W        W38756  12.706  15.147   3.004  0.0612  0.1282  0.0662
22863W        W38757  12.223   7.698   2.197 -0.1136 -0.0253 -0.0267
22864W        W38758  12.239  16.552   4.527 -0.1070 -0.0311 -0.3094
22865W        W38759  14.505   6.699  16.010  0.1127 -0.0692  0.1071
22866W        W38760   0.467   7.839  13.819  0.0280 -0.0333 -0.2900
22867W        W38761  10.868   3.557   5.298 -0.2402 -0.1378 -0.3987
22868W        W38762  13.872  12.388   1.666 -0.1915  0.1604 -0.0838
22869W        W38763   5.649  16.876  11.426 -0.1087  0.4168  0.2290
22870W        W38764   0.793   3.267   4.917  0.2452 -0.1906  0.0714
22871W        W38765  16.761   3.388  12.685  0.1502 -0.0355  0.1186
22872W        W38766   4.785  15.462   5.226 -0.4086  0.2087 -0.0182
22873W        W38767   8.480   7.565  11.516  0.1182 -0.1962 -0.3615
22874W        W38768  13.217   3.111   5.858 -0.0169  0.0822  0.0175
22875W        W38769   3.794  12.929  16.148  0.1528 -0.3359  0.0169
22876W        W38770  15.742   8.483  14.286 -0.1293 -0.1475  0.0344
22877W        W38771   0.710   1.693  16.157 -0.2989  0.0862 -0.1363
22878W        W38772   3.750   4.034  11.946  0.0369  0.1496 -0.2398
22879W        W38773   5.462  11.490   3.185 -0.0061  0.2228 -0.0454
22880W        W38774   7.429   2.131   4.740 -0.2652  0.1999  0.0313
22881W        W38775   0.681   4.689   1.118 -0.2246 -0.2514  0.0212
22882W        W38776   9.540   5.105   2.907  0.0256 -0.0590  0.0205
22883W        W38777  10.852   3.230  13.931 -0.0450  0.1961 -0.0047
22884W        W38778  17.013   7.567  14.984  0.1087  0.0246 -0.2878
22885W        W38779  12.430  18.175   5.115  0.0119  0.0584  0.1917
22886W        W38780  10.796  11.528  12.826 -0.1479 -0.1180  0.2047
22887W        W38781  14.789  13.772   2.349 -0.1444  0.1771  0.3004
22888W        W38782  14.398   8.850  16.323 -0.1242  0.1892  0.1819
22889W        W38783   8.838   2.773  13.511 -0.3145  0.4359 -0.0114
22890W        W38784  12.785   2.958  11.664  0.0659  0.2317  0.2229
22891W        W38785   3.668   7.533  15.447  0.2217 -0.2941  0.2706
22892W        W38786   2.002   8.607  11.713 -0.1002 -0.1956  0.1327
22893W        W38787   5.432  10.941  14.620 -0.0372 -0.0188  0.0986
22894W        W38788   1.047   7.091  15.674 -0.0047  0.0293 -0.2133
22895W        W38789  16.464   8.379  12.891 -0.0404  0.0068  0.1260
22896W        W38790   8.846   9.228   2.715 -0.2932  0.2733 -0.0402
22897W        W38791   2.908  17.211   1.798  0.0926  0.1293 -0.0688
22898W        W38792   7.059   3.710  13.907 -0.1712  0.3614 -0.2373
22899W        W38793  13.367  18.176   4.211 -0.0477  0.1475  0.1488
22900W        W38794  15.869   5.553  13.890 -0.0090  0.0911  0.0881
22901W        W38795  13.594  12.773   1.771  0.2785  0.3039 -0.0035
22902W        W38796   4.731  10.472   5.643  0.0565 -0.0921  0.3741
22903W        W38797  14.162  15.819  15.645 -0.0944  0.0986  0.1017
22904W        W38798   3.479  11.802   4.529 -0.0978  0.1295 -0.2658
22905W        W38799   3.969  14.556  13.725  0.0752  0.0219  0.0758
22906W        W38800   4.015   6.337  12.201  0.1628  0.1796  0.0081
22907W        W38801  12.363  17.812  15.507  0.3763  0.1151 -0.0545
22908W        W38802   2.208   8.795  13.454  0.0275  0.0483  0.2668
22909W        W38803  15.312   5.701   5.191 -0.2379  0.0680  0.0894
22910W        W38804  13.121  13.967  14.750 -0.1951  0.0748 -0.0770
22911W        W38805  12.756   2.373   4.035 -0.2892 -0.3844 -0.2233
22912W        W38806   6.202  16.277   0.437  0.1618  0.0269  0.2826
22913W        W38807   6.166   9.753   4.129  0.0916  0.1511  0.0231
22914W        W38808   3.715  12.844  10.453  0.2342 -0.0098 -0.0304
22915W        W38809  12.517  11.121  11.462 -0.2143  0.4614 -0.0125
22916W        W38810   5.249  15.241  12.511 -0.2128  0.0671 -0.1613
22917W        W38811  11.631   1.915   5.184  0.1648 -0.2765  0.1417
22918W        W38812   7.569  10.426   4.929  0.3800  0.3199 -0.2701
22919W        W38813  14.570  11.954  14.270  0.4943 -0.0169 -0.1419
22920W        W38814   0.463   9.625   3.777 -0.0549  0.1157 -0.0449
22921W        W38815   6.518   6.194  12.187 -0.2293 -0.1913 -0.0429
22922W        W38816   0.189  10.463  11.864  0.2106  0.2345 -0.1599
22923W        W38817  14.368  17.480   3.856  0.3325 -0.3858 -0.1116
22924W        W38818   9.499   3.475   6.303 -0.1573 -0.2200  0.0289
22925W        W38819  14.204   1.827  15.532  0.1775  0.2266  0.0230
22926W        W38820   9.729   5.616   3.115  0.2010 -0.3359  0.1923
22927W        W38821   0.897  12.893   2.709  0.2889  0.0124 -0.2476
22928W        W38822  15.055   1.821  12.634 -0.2968 -0.1788 -0.4331
22929W        W38823  11.309  11.727  16.308 -0.1930 -0.0562  0.3172
22930W        W38824  15.181   1.690   4.729  0.3403  0.0985  0.1369
22931W        W38825  13.176   1.205   4.531  0.0877  0.0177 -0.0337
22932W        W38826  11.957   4.874  15.993 -0.3804  0.2121  0.2654
22933W        W38827  11.664   7.485  14.755 -0.1562 -0.2208 -0.1641
22934W        W38828   8.636  13.848   4.017  0.0648 -0.0641 -0.0586
22935W        W38829  13.204  14.743  13.415 -0.1014 -0.0845  0.3069
22936W        W38830   1.788  13.699   0.118  0.1504 -0.1840  0.0696
22937W        W38831   1.064   0.231  14.696 -0.0538 -0.0651  0.0875
22938W        W38832   8.715   6.622   5.294  0.0158 -0.0333 -0.3707
22939W        W38833  12.235  13.985  16.408  0.1372 -0.2851  0.1346
22940W        W38834   7.547   0.265  10.873  0.2127 -0.0190  0.2875
22941W        W38835   3.601   8.612   3.956 -0.4137 -0.2586 -0.1287
22942W        W38836  12.211  11.391  16.295  0.1388  0.0613 -0.0344
22943W        W38837   7.402  18.137  12.981 -0.0454 -0.1640 -0.0582
22944W        W38838   7.865  14.395   2.985 -0.0271  0.4122  0.0532
22945W        W38839  12.817   5.378  14.274  0.3256  0.2398 -0.0988
22946W        W38840   4.108   6.694  15.308  0.0988  0.0637 -0.0602
22947W        W38841  15.502   2.715  12.826 -0.1957  0.2190  0.2349
22948W        W38842   7.407   2.065  15.555 -0.4400  0.0189  0.0531
22949W        W38843   6.086   1.994  11.565 -0.1078  0.1577  0.4905
22950W        W38844   8.725  13.298  15.807  0.1524  0.1822 -0.0177
22951W        W38845  11.566  15.848   5.406  0.2099  0.0844  0.0966
22952W        W38846  10.766   0.927   1.441  0.0907  0.2708 -0.1250
22953W        W38847   4.879   6.161   0.589 -0.2543 -0.0192 -0.1284
22954W        W38848   1.012  14.343  14.736 -0.1213  0.1102  0.4324
22955W        W38849   5.018   9.250   4.349 -0.0105 -0.4640  0.1635
22956W        W38850  16.304   4.165  15.157  0.0235  0.4979  0.0022
22957W        W38851  11.107  12.563   4.210 -0.1430 -0.0313  0.0793
22958W        W38852  11.142   0.942  15.854 -0.0907  0.0245  0.0966
22959W        W38853  11.546   2.501  14.158 -0.1348 -0.1130 -0.2268
22960W        W38854  12.135  10.127   2.609 -0.1182 -0.4637  0.0307
22961W        W38855  14.625  14.069   5.007 -0.0249  0.2279  0.2537
22962W        W38856  16.896  11.647  16.290  0.1827 -0.0924 -0.1063
22963W        W38857   7.558   6.459  13.608  0.1668  0.0130 -0.1622
22964W        W38858   8.382   1.563   2.426  0.1314  0.0432 -0.2818
22965W        W38859   1.956  15.849  14.619  0.1176  0.0680 -0.0858
22966W        W38860  14.560   2.674  13.270 -0.1101 -0.0236 -0.0232
22967W        W38861  16.534  14.562  12.048  0.1339  0.1633  0.1030
22968W        W38862   0.912   2.081  12.671  0.1609 -0.2626 -0.1057
22969W        W38863   8.491  10.034  16.040 -0.0073 -0.1170  0.0510
22970W        W38864  14.431   6.631  11.666 -0.1310  0.1958 -0.0066
22971W        W38865  13.084  17.714   0.867  0.0428  0.1087  0.0181
22972W        W38866   5.483   0.474   5.638 -0.0291 -0.0251  0.0144
22973W        W38867   7.406  11.543  15.127  0.2048 -0.2613 -0.3319
22974W        W38868   8.428   9.845  12.797 -0.0436  0.2949  0.0746
22975W        W38869  17.462   2.751   0.480  0.1620  0.0381 -0.2909
22976W        W38870   1.460  12.890  16.165  0.2061 -0.2807 -0.0395
22977W        W38871   1.903  11.658   3.336 -0.0569 -0.0036 -0.2242
22978W        W38872  10.989   3.419   0.147 -0.0074 -0.0376 -0.1050
22979W        W38873   9.204   3.226  11.039 -0.1311 -0.2160  0.3150
22980W        W38874   1.853   5.019   5.059  0.1410  0.0238 -0.1006
22981W        W38875  13.844   3.217   4.194  0.1488 -0.0188 -0.1148
22982W        W38876   5.559   7.341  13.569  0.1046 -0.1114 -0.4348
22983W        W38877  13.499   6.498   2.320 -0.3665 -0.1129 -0.0742
22984W        W38878  11.733   2.148   4.414 -0.2480 -0.1083 -0.0837
22985W        W38879   7.800   8.564  16.152  0.2125 -0.2251  0.1371
22986W        W38880   5.849  17.801   5.591 -0.2127  0.1853  0.4459
22987W        W38881  11.667   8.385  13.645  0.0201 -0.0701  0.0393
22988W        W38882  16.108   6.125  14.026 -0.2697  0.1380 -0.2308
22989W        W38883   0.502  13.065   3.133  0.0161 -0.1167 -0.0088
22990W        W38884   3.575   7.513   0.545  0.4330  0.2437 -0.0544
22991W        W38885  12.474  16.826  16.307 -0.2580 -0.1456 -0.1953
22992W        W38886  15.286   4.653  14.274  0.1824  0.2138  0.1996
22993W        W38887   3.059  14.370  15.643  0.0710  0.0717  0.3622
22994W        W38888   8.808  12.110   4.343  0.1086  0.2093 -0.0389
22995W        W38889  12.953   3.139   2.606  0.0774  0.2830  0.1181
22996W        W38890   5.588   0.263   0.035  0.2512  0.1130 -0.2660
22997W        W38891  12.316   5.414  15.815 -0.3124  0.0354  0.1999
22998W        W38892  10.589   0.509  12.991 -0.0336 -0.0131 -0.2447
22999W        W38893   5.825   6.021  12.551  0.0834 -0.1269  0.0127
23000W        W38894  12.884  13.675  11.858 -0.0932  0.0686 -0.2062
23001W        W38895   2.669  13.721  11.640  0.2156 -0.0412  0.3237
23002W        W38896  15.954  18.060   6.676  0.2307  0.1265  0.3391
23003W        W38897   8.901  16.869   4.625 -0.2149  0.2724 -0.0648
23004W        W38898   8.076   4.710  14.251 -0.0301  0.1000 -0.1256
23005W        W38899   6.670  12.925  11.445  0.2302 -0.0395 -0.0732
23006W        W38900  17.350   3.686   6.218  0.0420  0.0257 -0.0208
23007W        W38901  13.084   5.306  10.754  0.0424 -0.0113 -0.1414
23008W        W38902   0.722   7.530   1.488  0.4196  0.3022 -0.3382
23009W        W38903   4.559   5.919   2.797  0.1520  0.0943  0.2308
23010W        W38904   6.738   2.399   5.517 -0.1678 -0.1174  0.3453
23011W        W38905  14.072   8.710  15.291  0.1354 -0.0297 -0.0797
23012W        W38906  12.202  11.355   2.764 -0.1692  0.1370  0.1684
23013W        W38907   6.708   2.511   3.274  0.0260  0.0461  0.3604
23014W        W38908  16.785  15.941   0.747 -0.0383  0.1817  0.0935
23015W        W38909   6.454  12.473   1.452 -0.0777  0.2947  0.0808
23016W        W38910   0.720  16.543   4.403  0.0072  0.0757  0.0982
23017W        W38911  15.959  13.326   4.206  0.1732  0.1934  0.1966
23018W        W38912  17.196   4.401   4.842  0.0789  0.0841 -0.0957
23019W        W38913   5.827   0.387  11.241 -0.0195  0.0631 -0.0026
23020W        W38914   4.427  11.989   4.945  0.0568  0.0293  0.1139
23021W        W38915   4.133  14.901   3.047  0.1567  0.0481 -0.0425
23022W        W38916   7.849  17.566   4.798  0.0335 -0.0234  0.3505
23023W        W38917   3.049  13.675  15.141 -0.4165 -0.1391  0.0663
23024W        W38918   8.003  13.402   2.724  0.1795 -0.1074  0.0569
23025W        W38919  15.167   9.773  11.587  0.2224 -0.1159 -0.1646
23026W        W38920   5.256  11.866   0.570 -0.1786  0.2142 -0.1235
23027W        W38921   5.397   6.661  16.362  0.1287 -0.1389  0.0551
23028W        W38922  11.533  12.689  15.289 -0.1303 -0.4788 -0.0029
23029W        W38923  10.100  11.763  15.212  0.1650  0.2238 -0.0573
23030W        W38924   8.876   0.447   1.800  0.0888 -0.1138 -0.0304
23031W        W38925   0.338   1.149   4.680  0.2229  0.2347  0.1884
23032W        W38926  13.389  10.340   4.301  0.0510  0.0437  0.1191
23033W        W38927   1.901   6.579   1.892  0.4921 -0.2041 -0.1527
23034W        W38928   0.306  13.125  12.223 -0.1224  0.2938  0.1721
23035W        W38929   7.868   7.356   2.819 -0.0620  0.4507 -0.0198
23036W        W38930   6.838   5.647   0.119  0.0884 -0.2156  0.2569
23037W        W38931  16.824  15.106   4.468  0.1840  0.1858  0.1044
23038W        W38932   9.918   7.955   0.919  0.0262 -0.3158  0.3197
23039W        W38933  17.536  16.256   0.369  0.1987 -0.0913 -0.1690
23040W        W38934   1.887  14.975  12.289  0.2140 -0.1222  0.4711
23041W        W38935   9.224   7.031   3.554  0.1099  0.4121 -0.1505
23042W        W38936  14.011  15.276  15.695  0.1279 -0.1223 -0.0543
23043W        W38937   9.927   6.430   5.022  0.0134  0.1288 -0.1575
23044W        W38938  10.039   8.637  14.962  0.0966 -0.1354 -0.2903
23045W        W38939   7.146   0.323  11.188  0.2540 -0.2260  0.3338
23046W        W38940  13.636  15.233   2.891 -0.0521 -0.2379 -0.1289
23047W        W38941   0.658  15.112   2.597 -0.1338 -0.1296 -0.1942
23048W        W38942   1.121   6.157   2.220  0.2171 -0.3092  0.1163
23049W        W38943  14.035  11.408   2.586  0.1360 -0.2499  0.4574
23050W        W38944   6.541   5.050   0.061 -0.1368 -0.0819 -0.0486
23051W        W38945   9.724   2.617   4.356  0.0390  0.1255 -0.2069
23052W        W38946   4.995  16.110  15.001 -0.4254 -0.1267 -0.0550
23053W        W38947   4.620   7.347  12.347  0.2165 -0.1498 -0.2566
23054W        W38948  11.755   7.663  15.377  0.1532  0.1020 -0.0338
23055W        W38949  11.324   1.665   0.193 -0.2612  0.2464 -0.2429
23056W        W38950   7.206   3.916  14.343 -0.2595 -0.1417  0.0758
23057W        W38951   6.772   9.283  15.691 -0.0766 -0.0944  0.0285
23058W        W38952  15.127  11.678   0.160  0.1778 -0.1184  0.2620
23059W        W38953   3.064  15.696   2.399  0.0018  0.0564 -0.0837
23060W        W38954   2.691   3.878  12.124  0.2854 -0.4496 -0.1487
23061W        W38955   8.375   4.035   2.717  0.0421 -0.2244 -0.2895
23062W        W38956   4.355  14.529   3.656 -0.0786 -0.0137  0.3861
23063W        W38957   8.816   6.759  15.874  0.3514 -0.3290  0.0033
23064W        W38958  11.709   3.966   5.594  0.2226  0.1757  0.0160
23065W        W38959   4.837   8.283   1.849  0.0403 -0.2249 -0.1582
23066W        W38960   8.187  14.556   0.419  0.1372  0.2331 -0.1523
23067W        W38961  17.702   8.902   5.119 -0.0657  0.0642 -0.3353
23068W        W38962  15.488  12.194   0.850  0.2662  0.1562  0.1941
23069W        W38963  10.227  16.194  11.323 -0.0171  0.2778  0.2268
23070W        W38964   0.099  15.893  13.010  0.0583  0.2211  0.2205
23071W        W38965   9.788   6.918   3.770  0.3029  0.0584  0.1073
23072W        W38966  10.299  10.171  13.558 -0.1729 -0.2790 -0.0065
23073W        W38967   2.476   1.632   0.108  0.1485 -0.0650 -0.0774
23074W        W38968  11.321   4.713  10.948  0.1150  0.0929 -0.0269
23075W        W38969   6.539   6.058   0.184 -0.1115 -0.1974 -0.1128
23076W        W38970   9.265  14.401  11.661  0.1108 -0.2758 -0.2804
23077W        W38971   9.307  17.826   0.251  0.1492  0.1528 -0.1482
23078W        W38972  16.090   9.177  16.020 -0.0460  0.0535 -0.0101
23079W        W38973   7.340   9.819  12.004  0.3067  0.1161  0.1131
23080W        W38974   9.688  15.995  15.563  0.1054 -0.1723  0.0226
23081W        W38975   7.859   0.693  16.088  0.4899 -0.0833  0.0532
23082W        W38976   4.786  16.233  11.275 -0.1896  0.2485 -0.3606
23083W        W38977   2.653  14.409   3.147  0.3392 -0.1294  0.0852
23084W        W38978   8.050   5.857  15.002  0.0239 -0.2132 -0.3479
23085W        W38979  11.628   7.169  15.389  0.1652  0.0135  0.0766
23086W        W38980   5.884   5.264   4.558  0.0022 -0.1877 -0.3731
23087W        W38981   3.426  15.480  14.639  0.1953 -0.1092 -0.2542
23088W        W38982  10.821  12.581  15.734  0.2884 -0.3105  0.1042
23089W        W38983   5.783   1.647   4.863  0.0965  0.0527  0.0411
23090W        W38984  15.912   5.551   4.646  0.1206 -0.5205  0.0297
23091W        W38985  13.819   2.625  15.170 -0.2323  0.1944 -0.2574
23092W        W38986   6.576  12.665   0.084 -0.2757 -0.0149 -0.0501
23093W        W38987  12.410  10.238   0.718 -0.0899  0.0987 -0.1510
23094W        W38988   6.007   5.092   1.880  0.1162  0.1802  0.3003
23095W        W38989   9.226   8.079  13.065  0.1971 -0.0237  0.0216
23096W        W38990   3.851   3.850  14.499 -0.0581  0.0318 -0.0584
23097W        W38991   3.780  12.384   3.273  0.0395  0.1221 -0.1454
23098W        W38992  17.327   8.308   1.875 -0.2454  0.0386 -0.0735
23099W        W38993   0.665  17.583   5.309 -0.0896  0.0991 -0.0823
23100W        W38994   8.600  14.054   1.624 -0.0916 -0.3780 -0.0386
23101W        W38995  15.367  14.649  13.689  0.1661  0.0764  0.0264
23102W        W38996  14.126   4.408  15.989 -0.0512  0.1144 -0.1473
23103W        W38997   7.340  16.260  10.777  0.0547 -0.0087  0.0736
23104W        W38998  13.021   2.611   0.180  0.2491  0.0401 -0.1292
23105W        W38999  16.420   6.773  16.183  0.1888  0.0151 -0.3113
23106W        W39000   9.819   7.794  15.347 -0.1118 -0.2221 -0.1849
23107W        W39001   9.723   1.994  12.902 -0.0334 -0.0155 -0.1477
23108W        W39002   9.026  13.615  12.281  0.2364 -0.1472  0.3417
23109W        W39003  16.956   2.110  14.899  0.0232 -0.2675  0.2287
23110W        W39004   4.707   1.664   0.868  0.2392 -0.2013  0.1689
23111W        W39005  15.277   6.891  13.709 -0.0916  0.2297  0.0699
23112W        W39006  18.008  14.577  11.806 -0.1360 -0.0204  0.2949
23113W        W39007  13.731   7.078  12.699 -0.1297  0.3292 -0.1436
23114W        W39008  10.187   4.673   2.403  0.0679 -0.1774  0.0695
23115W        W39009  12.629   7.466  13.748  0.1099  0.1748  0.0898
23116W        W39010  12.177   6.018  11.406  0.1024  0.1251  0.1425
23117W        W39011  15.221   6.450   2.286 -0.1497  0.0640 -0.0593
23118W        W39012   1.687   1.721  11.638  0.1717  0.2109  0.2427
23119W        W39013   4.063  12.030  13.326 -0.0931  0.1151  0.1123
23120W        W39014   5.794  15.644  16.314  0.0285  0.1561 -0.2929
23121W        W39015   0.255   9.417   1.277  0.0756 -0.1889 -0.1348
23122W        W39016  15.748  10.589   3.055  0.0203 -0.2806 -0.1197
23123W        W39017   4.137   7.040  13.891  0.2902 -0.0179 -0.1638
23124W        W39018  12.212   1.987  13.561 -0.1725  0.1598  0.1075
23125W        W39019   7.588  13.783   1.519 -0.2982 -0.2029 -0.0778
23126W        W39020   8.713  16.760  11.932 -0.0670 -0.0100  0.0771
23127W        W39021   6.710   8.944   1.269 -0.0808 -0.1609  0.3903
23128W        W39022  10.896   7.481  12.894 -0.2869  0.3697 -0.0572
23129W        W39023   4.265  12.129   1.127  0.1410 -0.5561 -0.2246
23130W        W39024  10.333  15.018   3.176  0.1709  0.0764  0.1082
23131W        W39025   0.488   1.480  12.832 -0.2830 -0.1907 -0.1517
23132W        W39026  13.426  12.113  15.255  0.0739 -0.2193  0.1380
23133W        W39027   6.815   4.824  15.520 -0.0665 -0.0078 -0.3541
23134W        W39028  17.033  14.225   3.065  0.2529 -0.1504 -0.0817
23135W        W39029   2.797   8.293   4.256  0.1294  0.3732 -0.0404
23136W        W39030  12.304   2.963  15.801  0.0976  0.1169 -0.0501
23137W        W39031   3.949   8.424   4.242 -0.0025  0.1414  0.2221
23138W        W39032  12.886   3.210   3.693 -0.2542 -0.2686  0.1712
23139W        W39033  16.514  10.150   0.562 -0.4712  0.1147  0.2069
23140W        W39034   2.670  16.485  16.393 -0.0773 -0.0044 -0.3194
23141W        W39035   9.469   0.588   5.036  0.0630  0.0266  0.0368
23142W        W39036  12.921   5.440  14.832  0.4690 -0.0379  0.1129
23143W        W39037   1.027  17.040   0.497  0.2053  0.1536 -0.0726
23144W        W39038   3.843   8.603  15.648  0.2032  0.0274 -0.1239
23145W        W39039  15.295  14.507   1.342  0.2207 -0.0251 -0.0728
23146W        W39040   3.404   5.088  14.840  0.1996 -0.3018 -0.2390
23147W        W39041   1.791  16.827   1.176 -0.1615  0.0857 -0.2960
23148W        W39042  16.581  10.224  13.031 -0.2118 -0.0961 -0.0197
23149W        W39043   9.956   3.334   2.223 -0.0804  0.1213  0.1890
23150W        W39044   0.163  12.351   2.685 -0.0210 -0.0436 -0.2345
23151W        W39045  17.371  15.785   6.224  0.0872 -0.0321 -0.2003
23152W        W39046   4.651   1.727   2.268 -0.0702  0.2641  0.1743
23153W        W39047   5.181   6.383   2.922  0.2121  0.0353  0.5890
23154W        W39048   3.207  15.290   0.012  0.1330  0.0091  0.3010
23155W        W39049   8.796   1.604  11.151  0.1491  0.1128 -0.0160
23156W        W39050  12.326   7.180   2.079  0.3023 -0.0141  0.2436
23157W        W39051   0.786   4.889   5.346  0.0442 -0.2558 -0.3455
23158W        W39052  16.185  13.493   1.850 -0.1539 -0.2736 -0.1456
23159W        W39053   9.164   9.309  16.327  0.0660  0.3306 -0.0794
23160W        W39054   2.948   9.697  16.091  0.3510 -0.0761  0.0510
23161W        W39055  13.790  13.590   3.443  0.2859 -0.1958  0.0573
23162W        W39056   6.286   7.120  15.166 -0.2058 -0.3743  0.2841
23163W        W39057   4.533  17.265  16.259  0.0785 -0.3563  0.0459
23164W        W39058  16.299   8.436   0.724  0.0053  0.0418 -0.0351
23165W        W39059   4.454   1.157   0.002  0.3968  0.0456 -0.0681
23166W        W39060   4.878  13.452   5.704  0.0331 -0.0487  0.1748
23167W        W39061   9.837   6.017   2.045 -0.2755  0.2124 -0.1274
23168W        W39062   4.752  18.076   4.134  0.0878 -0.2374  0.1983
23169W        W39063  17.828   9.343  14.754  0.0091  0.0004 -0.1559
23170W        W39064   7.298  13.611   0.111 -0.1887 -0.0978  0.0166
23171W        W39065  10.335   6.919  11.723  0.0006 -0.3093 -0.0556
23172W        W39066   7.496   8.287   5.831  0.1549  0.2051  0.1425
23173W        W39067   7.765   9.602   3.233  0.0619  0.0430 -0.1058
23174W        W39068   7.053   9.177  11.431  0.0026  0.0469  0.2883
23175W        W39069   5.397   4.575   0.777  0.1298  0.0218  0.0976
23176W        W39070   0.659  13.212  14.903  0.2250  0.1582  0.0356
23177W        W39071  17.518  15.737  15.838  0.0077 -0.2843 -0.1746
23178W        W39072   2.052  13.070   3.569 -0.1849 -0.1534 -0.0622
23179W        W39073   0.933  12.668   3.170 -0.1210 -0.1672  0.0701
23180W        W39074   7.701   9.037   1.730 -0.2507 -0.1122  0.1206
23181W        W39075  13.151   7.419  15.473 -0.0952 -0.2520  0.0501
23182W        W39076   1.299   9.814  15.990 -0.0868 -0.0302  0.1726
23183W        W39077  10.413   9.977  11.028 -0.1694 -0.0345 -0.1302
23184W        W39078   6.368   2.048   0.710  0.0181  0.0182  0.0119
23185W        W39079   1.036  17.975   0.903 -0.2705  0.0448 -0.0661
23186W        W39080   4.277   8.877  11.608 -0.0396 -0.0807 -0.0720
23187W        W39081  16.094  10.112  13.499  0.4177  0.1924  0.1312
23188W        W39082   7.574  16.178   1.446  0.1093  0.0246 -0.2160
23189W        W39083   8.348   3.837   3.704  0.0493 -0.1058  0.0068
23190W        W39084  14.452   7.515  15.403  0.0017  0.0576 -0.0102
23191W        W39085   7.324  17.269  14.744  0.0941  0.0819  0.1925
23192W        W39086   8.254  15.626   2.428 -0.0675 -0.2213  0.0738
23193W        W39087   1.760   7.700   4.605  0.1025  0.1011  0.0066
23194W        W39088   3.903  16.420  12.869 -0.3660  0.0241 -0.4916
23195W        W39089   7.749  16.751   3.629 -0.0329 -0.0963  0.0796
23196W        W39090   5.159   5.647  14.618 -0.0878  0.0473 -0.2129
23197W        W39091  10.718   6.505  12.823  0.1428 -0.0036  0.2081
23198W        W39092  10.532   5.569  13.879  0.1986 -0.1687 -0.2319
23199W        W39093  12.776   6.301   3.831 -0.0399 -0.0035 -0.1677
23200W        W39094   8.694  15.347   2.378 -0.0299 -0.2157  0.0771
23201W        W39095   7.007  11.805  16.373  0.3001  0.4175  0.0118
23202W        W39096   4.494  14.639   0.147 -0.2831 -0.0675 -0.1972
23203W        W39097   4.770   5.706   0.852  0.3685  0.1721 -0.2493
23204W        W39098  12.702   2.730   3.605  0.1623 -0.0338  0.1843
23205W        W39099   3.262  10.203   4.491  0.3165  0.2189 -0.1974
23206W        W39100   8.608   3.152  11.670 -0.1322 -0.2399  0.2171
23207W        W39101  10.339  12.857   3.877  0.2567 -0.1723  0.1139
23208W        W39102  17.075  10.372   1.458 -0.2577 -0.1745  0.1179
23209W        W39103   7.432   0.781  13.326  0.0358  0.3655 -0.1003
23210W        W39104   6.502   1.096   0.401 -0.2883 -0.0835  0.0377
23211W        W39105  13.023   8.514   0.390  0.0669  0.0520  0.2090
23212W        W39106  14.046   0.807   2.848  0.0704  0.0692  0.1449
23213W        W39107   4.602  11.377  14.043  0.1593 -0.1042  0.1435
23214W        W39108  13.730   1.192   2.719  0.0160 -0.0519 -0.1131
23215W        W39109   5.848   9.492  16.154  0.1703  0.0019 -0.0697
23216W        W39110  12.424   0.905   2.454  0.1963 -0.0756  0.3738
23217W        W39111  14.113  12.206  12.877 -0.2229  0.1045  0.0959
23218W        W39112   8.813   2.320  15.496  0.0230 -0.1101 -0.1379
23219W        W39113   8.114  16.638   2.332 -0.2109 -0.0385 -0.0341
23220W        W39114  16.287   8.048   0.392  0.0593  0.1454  0.2210
23221W        W39115   4.407  11.661  13.332 -0.1003  0.2860  0.1549
23222W        W39116   7.579   5.634   1.602  0.3036 -0.1451  0.3124
23223W        W39117   5.940   2.748  13.729  0.2080  0.1501 -0.2272
23224W        W39118  14.163  15.958  12.784 -0.0389 -0.0513  0.2007
23225W        W39119   6.815   3.264   1.083  0.0404  0.2478 -0.1378
23226W        W39120  11.456  17.881  13.815  0.0276  0.0035  0.1719
23227W        W39121  13.359   0.361   0.188  0.0055 -0.4488  0.1127
23228W        W39122   5.723   6.203  13.037 -0.0688 -0.2046  0.0761
23229W        W39123  18.173  17.725  14.642 -0.2010 -0.4478 -0.2104
23230W        W39124  11.831  16.126   2.586  0.2288 -0.0485  0.3248
23231W        W39125   3.557  14.690  13.985  0.2199 -0.1134  0.1291
23232W        W39126  16.999   4.623  11.577 -0.0180 -0.2320 -0.0778
23233W        W39127  10.410  13.249  15.142  0.0981  0.0453 -0.2442
23234W        W39128   3.309   2.041  16.229  0.1908 -0.1695  0.4018
23235W        W39129  17.488  14.268  12.702 -0.2549  0.2973 -0.0014
23236W        W39130   4.753   4.794  11.696 -0.1292 -0.0892  0.0516
23237W        W39131   2.527   6.722  10.658  0.1026 -0.0254  0.2506
23238W        W39132   2.454   2.857  13.284 -0.2016 -0.1039 -0.0042
23239W        W39133   3.862   5.117  11.440  0.2780  0.0890  0.2121
23240W        W39134   8.925   0.793   6.363  0.4086 -0.1220  0.0010
23241W        W39135   8.434  18.058  11.361  0.1553  0.0971  0.0819
23242W        W39136   4.993   3.896   5.334  0.3942  0.3626  0.0265
23243W        W39137   3.638  12.087  11.580 -0.1793 -0.2016 -0.0831
23244W        W39138  12.689   5.473   0.784 -0.0589  0.0683  0.2840
23245W        W39139   5.239  17.975   1.077 -0.0372 -0.1584 -0.1611
23246W        W39140  16.447   7.088   3.879  0.1769 -0.3016  0.0624
23247W        W39141  11.810   4.579   0.558  0.0725  0.0058  0.3752
23248W        W39142   9.803  16.813  15.004  0.3443  0.0471 -0.0243
23249W        W39143  10.174   8.236   1.854 -0.1895  0.2173  0.1288
23250W        W39144   9.363   7.600   1.950 -0.2716 -0.0579 -0.3836
23251W        W39145  14.761  15.319   1.519  0.1798 -0.0252  0.0336
23252W        W39146  11.938  11.253   5.139  0.4136 -0.1100 -0.1293
23253W        W39147  14.087   4.151   1.335  0.1988  0.1159  0.0294
23254W        W39148   1.083   7.156   6.267  0.1528 -0.1125 -0.0517
23255W        W39149  14.986   5.384  15.093 -0.1503  0.3854 -0.0707
23256W        W39150   8.755   7.958   2.472  0.0675 -0.2565 -0.1023
23257W        W39151  16.327  11.096   1.462  0.2034  0.1036  0.0218
23258W        W39152   0.774  15.773  15.730  0.0574 -0.4799 -0.0366
23259W        W39153  13.369   3.089  12.248  0.1651  0.0466 -0.1705
23260W        W39154   3.193   2.275   0.237 -0.0661 -0.0433 -0.1894
23261W        W39155  14.574  17.890   3.550  0.4293  0.0352  0.1909
23262W        W39156   3.527   9.290   0.851 -0.0763  0.1552  0.2824
23263W        W39157  14.810   2.612  14.475  0.1667 -0.1474  0.2717
23264W        W39158   5.812   8.686   3.390  0.0006  0.1044 -0.1057
23265W        W39159  10.353   8.059   5.280 -0.0260 -0.2033  0.1277
23266W        W39160  17.666   7.190   0.906 -0.1067 -0.2521  0.0501
23267W        W39161  10.578   9.064   1.526  0.0080  0.2242  0.2037
23268W        W39162  12.299  17.326  16.202 -0.0999  0.0865  0.2638
23269W        W39163  10.308  17.871   0.288  0.1810 -0.1653 -0.1679
23270W        W39164   9.508   9.138  13.700  0.2361  0.5066 -0.1428
23271W        W39165   5.419   7.169  12.878  0.1246 -0.4727 -0.1375
23272W        W39166  15.541  17.194  12.785  0.0789  0.2552  0.1974
23273W        W39167   7.496   8.988  15.311 -0.2947 -0.1598  0.0987
23274W        W39168   0.930  11.636   2.448 -0.0112  0.0254 -0.0408
23275W        W39169  15.982  14.470   0.893 -0.4708  0.1153  0.0741
23276W        W39170  10.293   2.517  16.076  0.2592 -0.1294  0.1292
23277W        W39171   3.217   7.632   5.570 -0.2586 -0.0616  0.0475
23278W        W39172   2.215   2.639   4.159  0.0568  0.3115  0.0022
23279W        W39173  17.068  12.013   2.089  0.0955  0.3081  0.2114
23280W        W39174  11.465  10.181  11.714 -0.0806  0.2926 -0.0692
23281W        W39175   6.146   0.584   2.049  0.2820 -0.1165 -0.1507
23282W        W39176   0.237  18.192   2.032  0.3776  0.1976 -0.0649
23283W        W39177  17.561   3.325  13.841 -0.3157 -0.0875 -0.1726
23284W        W39178  11.055  10.391  16.228 -0.2039 -0.0705  0.0057
23285W        W39179   7.899  15.649  13.005 -0.3643  0.0872  0.0791
23286W        W39180   3.609  12.100   5.671 -0.0532  0.0086  0.3311
23287W        W39181   9.427  13.226   4.072  0.4472 -0.0972 -0.0453
23288W        W39182   7.201   8.379  15.350 -0.4217 -0.4570  0.0013
23289W        W39183   6.415  11.518   3.290  0.0302  0.1469  0.1347
23290W        W39184   3.453  15.453   3.597  0.5670 -0.1255  0.3724
23291W        W39185  13.078  17.272   1.236 -0.2439 -0.4021 -0.2410
23292W        W39186  16.884  16.856   3.411 -0.0412 -0.2328 -0.1272
23293W        W39187   6.573  10.135  12.186  0.1155 -0.0218 -0.0334
23294W        W39188   0.313  12.790   6.276 -0.3314 -0.1271  0.0823
23295W        W39189  14.903  10.166  11.623 -0.1112 -0.0248 -0.4881
23296W        W39190   3.412   0.723  16.145  0.0504  0.1170  0.0133
23297W        W39191  16.251  18.034  15.439 -0.0999  0.0438  0.0719
23298W        W39192   8.726  13.963   3.157  0.2460  0.0012 -0.0134
23299W        W39193   0.307   0.694  15.912 -0.0352 -0.2353  0.2555
23300W        W39194   2.498  13.854   4.003 -0.1609 -0.1939  0.4658
23301W        W39195   2.028   7.694   2.675 -0.3379 -0.2687 -0.6093
23302W        W39196  15.144   0.973  15.284 -0.2743  0.2353  0.4464
23303W        W39197   3.782   3.629   0.199  0.2596 -0.1454  0.0113
23304W        W39198  10.702  12.251  12.285  0.0766 -0.0345  0.0184
23305W        W39199   4.634   8.483   5.273 -0.1443  0.1819 -0.0611
23306W        W39200  15.144  17.527  15.798  0.1084  0.2790 -0.3979
23307W        W39201   5.177  16.739   2.668  0.2670  0.2161  0.1087
23308W        W39202  11.677   5.892  16.333  0.0113  0.0269 -0.1589
23309W        W39203  16.898  16.987   5.052 -0.0431  0.0480 -0.4498
23310W        W39204  13.634   2.519   0.930  0.1724 -0.0618  0.3688
23311W        W39205   3.675  18.069   4.316  0.0794 -0.0753  0.2191
23312W        W39206  13.238   5.183  11.737  0.1358 -0.0401 -0.1390
23313W        W39207  11.944   3.035   0.283 -0.2045 -0.3188 -0.2314
23314W        W39208  15.797  18.004   3.103 -0.2169  0.0759 -0.1752
23315W        W39209  13.740  16.403   1.180 -0.0230  0.1633  0.0076
23316W        W39210  14.472   7.150  11.564 -0.0160 -0.0894  0.1659
23317W        W39211  16.828   0.094   4.263 -0.0520 -0.1640 -0.1522
23318W        W39212  13.748   3.186  13.397  0.0522  0.5115 -0.0378
23319W        W39213  14.580  16.531   0.453  0.0101  0.0729 -0.0671
23320W        W39214   0.355   7.106  12.385 -0.0605 -0.1967 -0.3191
23321W        W39215   9.574   2.612  14.854  0.1436  0.1056 -0.1620
23322W        W39216  17.784   4.360   4.010  0.1010 -0.1366 -0.3568
23323W        W39217   7.340   7.947  13.412 -0.0820  0.0404  0.0314
23324W        W39218   3.074  13.208   3.727  0.0607  0.2510  0.1491
23325W        W39219   0.284  11.687  13.226 -0.0940  0.0827 -0.1531
23326W        W39220   7.690   9.720  14.135 -0.2516 -0.0703 -0.0745
23327W        W39221   8.104   7.262   4.358 -0.2056  0.1287  0.1123
23328W        W39222   1.253   4.158   1.881 -0.0070  0.4883 -0.0824
23329W        W39223   9.810   2.273   0.580  0.0954  0.0266  0.1774
23330W        W39224   9.659   5.986  13.281  0.1507  0.3362  0.0337
23331W        W39225  12.454   5.472  12.035 -0.0865  0.0975 -0.1817
23332W        W39226  14.300  15.668   0.400  0.3699  0.0115 -0.2065
23333W        W39227   6.009   1.756   5.337 -0.0026  0.1226  0.1437
23334W        W39228  14.433  12.636   1.952 -0.4217  0.2260 -0.3680
23335W        W39229  12.664  12.492   3.991 -0.1608  0.4102  0.2510
23336W        W39230   6.532  17.309  11.234  0.0935  0.5187  0.0436
23337W        W39231   7.479   9.607   2.864 -0.2475 -0.0099 -0.2140
23338W        W39232   5.516   1.112   3.694 -0.1434 -0.4186  0.2281
23339W        W39233  13.072   5.918  13.274 -0.0604  0.2205  0.0337
23340W        W39234   5.831   5.869  14.795  0.1803  0.2098  0.0858
23341W        W39235  14.046  10.072   1.634  0.0226 -0.0056  0.0290
23342W        W39236  16.742   2.974  11.688  0.0088 -0.0561  0.0590
23343W        W39237   7.905   4.986   4.619 -0.1312  0.0910  0.1893
23344W        W39238   6.233   1.526  15.152  0.3172  0.3056 -0.1019
23345W        W39239  13.836  17.969   0.407 -0.2119 -0.0749  0.1975
23346W        W39240  10.300   2.370   2.772  0.1364  0.1971  0.1720
23347W        W39241   6.166   8.126   0.203  0.3120 -0.2334  0.0580
23348W        W39242  14.417   7.340   5.500  0.1203 -0.0268  0.4248
23349W        W39243   8.464  11.413   1.322  0.0299  0.2189 -0.0539
23350W        W39244   4.002  15.768   4.704 -0.3975 -0.2220 -0.1973
23351W        W39245   0.304   7.481   0.257  0.2492  0.0435  0.3862
23352W        W39246   0.554  13.727  15.060 -0.0609  0.0849  0.0904
23353W        W39247  12.495   8.935   0.353 -0.3487 -0.0454 -0.2281
23354W        W39248  10.818  10.009   2.774  0.0288 -0.0542  0.0639
23355W        W39249  15.550  14.819  12.167  0.0287  0.1735 -0.1573
23356W        W39250  16.850   1.963   4.908  0.0089 -0.0898  0.0052
23357W        W39251   1.661   2.957   5.089 -0.2198  0.0871 -0.0616
23358W        W39252   0.494  14.117   5.224  0.2245 -0.0311 -0.2218
23359W        W39253  13.302  10.453  11.611 -0.2467  0.0656 -0.0081
23360W        W39254   0.701  16.804  12.294 -0.1104 -0.2495  0.1543
23361W        W39255  12.622  10.453   3.723 -0.0571 -0.1387 -0.0558
23362W        W39256   4.191   4.765   3.514  0.1505 -0.2844 -0.0136
23363W        W39257  11.211   2.104  12.139 -0.1413  0.2150 -0.2431
23364W        W39258  17.194   2.474   4.230 -0.0674 -0.0304 -0.0962
23365W        W39259   4.299   8.650  11.111  0.0139  0.0008  0.3500
23366W        W39260   0.357   4.143  13.317 -0.2321 -0.3057 -0.1222
23367W        W39261   8.422   5.388  11.208 -0.2049  0.0304  0.0510
23368W        W39262  11.052  10.912   1.564  0.1137  0.0925  0.2187
23369W        W39263   8.917  10.511  11.494 -0.3180  0.1878 -0.2057
23370W        W39264   4.470  17.443   5.416  0.0455 -0.0074 -0.0077
23371W        W39265   9.853   2.924  11.194  0.3591 -0.0924 -0.0653
23372W        W39266   8.807  10.894  16.151  0.1022  0.0609 -0.0443
23373W        W39267   9.549   6.045  16.197  0.0172  0.3649 -0.0258
23374W        W39268   7.956  13.910   1.834 -0.0014  0.2551 -0.1892
23375W        W39269   8.180   9.075   0.725  0.2072  0.2472  0.0617
23376W        W39270  12.190   0.128  11.953 -0.4307  0.3455  0.0690
23377W        W39271   6.192   8.918   4.199  0.1646 -0.1126  0.1507
23378W        W39272  12.093  17.802   5.116 -0.0129  0.0302  0.0056
23379W        W39273   8.169  13.218   0.931 -0.0975  0.0172 -0.0972
23380W        W39274  10.678   0.381   0.337  0.0303 -0.1391  0.1218
23381W        W39275   4.880   1.828   2.720  0.0449  0.4468  0.0761
23382W        W39276   3.459  13.205   5.148 -0.1748 -0.1473  0.3012
23383W        W39277   8.162  15.274  12.647 -0.1360 -0.4476  0.0312
23384W        W39278  17.685   5.769  15.685 -0.3377  0.2680  0.0050
23385W        W39279   3.324  14.852  15.597 -0.2200 -0.1484 -0.1093
23386W        W39280  16.734   6.039   4.756 -0.1357  0.0215  0.2140
23387W        W39281  10.323   3.185   1.305 -0.0357  0.2076 -0.0799
23388W        W39282   6.447   9.286   4.441 -0.2476  0.1101 -0.4310
23389W        W39283   1.695   3.141   1.472 -0.2369  0.0087  0.2028
23390W        W39284  12.818   5.923   2.506 -0.0867  0.2860 -0.1418
23391W        W39285   3.162  11.690  15.613 -0.1071 -0.2585 -0.1525
23392W        W39286  11.600   3.122   3.059  0.1065 -0.1148  0.0570
23393W        W39287   3.050   4.717  11.013 -0.2988 -0.0953 -0.2239
23394W        W39288  17.162  12.232   2.594  0.0947  0.0652 -0.1999
23395W        W39289  13.194   5.848  10.590 -0.1586  0.1750  0.1280
23396W        W39290   5.071   0.959  11.126 -0.0849 -0.2150  0.2506
23397W        W39291   8.365  14.346   5.544  0.0631 -0.4427 -0.0129
23398W        W39292   9.682   5.165  15.532  0.0066  0.0272  0.1607
23399W        W39293   3.029   9.080  14.101 -0.3120  0.1599  0.0511
23400W        W39294   3.012  12.102  14.275 -0.0850  0.1527  0.0632
23401W        W39295   0.221  16.052   1.427 -0.0722 -0.1435  0.2460
23402W        W39296  18.174  16.230   3.625 -0.2814 -0.0212 -0.0244
23403W        W39297  17.455   9.560  15.431  0.2702 -0.1810  0.3994
23404W        W39298  13.142  12.057   4.431 -0.0295 -0.1429 -0.2270
23405W        W39299  11.488   6.786   1.640 -0.0601  0.1714  0.0213
23406W        W39300  15.942  14.224   2.486 -0.2599  0.1310 -0.1794
23407W        W39301  11.621   6.044   3.890  0.0927 -0.0417 -0.3306
23408W        W39302  11.566  12.279  15.623  0.2983 -0.2083  0.1493
23409W        W39303   7.031   7.908   0.360 -0.1549 -0.1203  0.0069
23410W        W39304   3.808   3.442   1.627  0.1024 -0.0422  0.3108
23411W        W39305  13.656  15.467   4.408  0.1923 -0.1057 -0.0764
23412W        W39306  17.223   1.955   3.251 -0.2178 -0.1688 -0.0406
23413W        W39307  12.014  13.988  12.227  0.0938  0.2013 -0.3294
23414W        W39308   0.924  17.118  12.664 -0.0563  0.1933 -0.1848
23415W        W39309  14.226   9.224  15.475  0.0305  0.1229 -0.0031
23416W        W39310  16.859  14.157   1.416 -0.0548 -0.0508  0.1597
23417W        W39311  17.282  14.350   4.033 -0.0384  0.2068  0.2996
23418W        W39312  11.347   4.809   2.887  0.1982 -0.0367 -0.0783
23419W        W39313   5.912  16.631   3.100 -0.1860  0.1554  0.0786
23420W        W39314  17.937  15.994  12.036  0.1372  0.1091 -0.0994
23421W        W39315   6.119   3.743   6.147  0.1465  0.1191  0.0486
23422W        W39316   3.434   3.467  16.172  0.0275 -0.1506  0.4827
23423W        W39317  13.766   9.670  14.299  0.0110  0.0995  0.1698
23424W        W39318  12.168   2.080  15.831 -0.0359 -0.0584  0.3771
23425W        W39319  11.960  12.898  15.290  0.2669  0.0564  0.0923
23426W        W39320  16.341  15.717  16.373 -0.4008  0.2187 -0.0284
23427W        W39321   2.379  12.253  12.569  0.0417 -0.0097 -0.0396
23428W        W39322  13.801   1.204   0.236  0.3048  0.2085 -0.4056
23429W        W39323  17.970  14.107   3.415  0.3297 -0.0818 -0.0557
23430W        W39324  16.447  14.284  14.802  0.1449  0.0406  0.2392
23431W        W39325   5.768   3.189  12.181 -0.0396 -0.2558 -0.4732
23432W        W39326  14.125   2.664   5.400 -0.0674  0.0710 -0.1958
23433W        W39327  17.199  12.738   3.802  0.0075  0.3255 -0.1751
23434W        W39328   5.378  11.371  14.949  0.0969 -0.4269  0.2809
23435W        W39329  14.487  16.284  14.736  0.1009 -0.1256 -0.1066
23436W        W39330  14.360  11.100   2.840 -0.4392 -0.0391 -0.0464
23437W        W39331   3.682  10.576   4.497  0.1859 -0.1449  0.1248
23438W        W39332  10.194   9.484  10.685  0.0428 -0.1308 -0.0664
23439W        W39333  16.833   7.254  11.391  0.1440  0.0875 -0.0854
23440W        W39334  16.637   7.079  13.366  0.1761 -0.3470 -0.1305
23441W        W39335  13.764   6.768   4.527  0.3540 -0.0272 -0.3163
23442W        W39336  11.963   6.370   2.198 -0.1677 -0.3019  0.0026
23443W        W39337  10.082   8.992  14.594 -0.0051  0.4124  0.0906
23444W        W39338   6.753   8.656   0.473 -0.1542  0.3298 -0.0060
23445W        W39339  10.858   1.121   4.167 -0.0846  0.3037  0.0540
23446W        W39340   3.286   3.594   3.221  0.0911  0.3235  0.1366
23447W        W39341   9.256  10.909   1.134 -0.1100  0.0032  0.1186
23448W        W39342  12.093   1.093   1.864  0.1492 -0.1054 -0.2867
23449W        W39343   7.604   7.153  14.534 -0.1934 -0.1138 -0.1027
23450W        W39344  10.334   9.022  16.246  0.0399 -0.3526  0.1970
23451W        W39345   1.071   4.287   1.384 -0.2082  0.0750  0.2683
23452W        W39346   2.792  16.366  13.542  0.0215  0.0874 -0.0570
23453W        W39347   7.789  14.485   3.949  0.1084  0.0911 -0.1930
23454W        W39348  15.145   7.258   2.184 -0.2505 -0.1010 -0.0320
23455W        W39349  13.276  11.578   2.345  0.3317  0.1364 -0.1370
23456W        W39350   9.890  12.680   1.004  0.1432 -0.1676 -0.1689
23457W        W39351   8.280  11.092   0.347 -0.2123 -0.0659 -0.0580
23458W        W39352  11.660   9.242   2.885  0.0788  0.4366 -0.3021
23459W        W39353   4.780  12.881   3.594  0.5726  0.1340  0.4942
23460W        W39354   1.087  16.692  15.462 -0.1095  0.0251 -0.1201
23461W        W39355  13.907   0.600   0.983  0.0285 -0.2724  0.0221
23462W        W39356   5.207  13.916  12.455 -0.0770 -0.1484  0.1344
23463W        W39357   0.006   7.312   4.713 -0.0348  0.1749 -0.0649
23464W        W39358   2.503  14.407  13.872  0.1370 -0.0298 -0.0901
23465W        W39359  15.686   9.589   1.070  0.0427 -0.1398 -0.2805
23466W        W39360   9.457   6.906   0.975 -0.0990 -0.0154 -0.2139
23467W        W39361   3.765   4.507  12.749 -0.0747 -0.0465  0.2646
23468W        W39362   1.227   7.620  12.247 -0.1474  0.1760 -0.0109
23469W        W39363  11.935   1.839  15.067 -0.2659  0.1126 -0.1645
23470W        W39364   9.466   3.627  13.803  0.1830 -0.0314  0.3502
23471W        W39365  16.441  17.679  12.145 -0.2047  0.2308  0.4232
23472W        W39366  15.656  11.047   3.180 -0.2564  0.3083 -0.0673
23473W        W39367  15.880  14.193   1.871  0.1035  0.2403 -0.1728
23474W        W39368   4.741   3.941  12.029  0.0216  0.1658  0.0798
23475W        W39369   8.606  12.124  11.625  0.0203  0.1978  0.0844
23476W        W39370   7.847  10.610   1.271  0.0705 -0.0663  0.1134
23477W        W39371   3.922   2.454  14.235 -0.2792 -0.2894  0.1306
23478W        W39372   3.257   9.612  14.129 -0.2663 -0.1468 -0.5416
23479W        W39373   4.213   2.142   3.876 -0.2217 -0.0871 -0.0700
23480W        W39374  14.547  14.727  14.365 -0.0539 -0.0601 -0.5749
23481W        W39375   4.106   9.036  14.430  0.2603 -0.0664 -0.0571
23482W        W39376   9.233   0.970   4.177  0.5489  0.1721 -0.1206
23483W        W39377   8.242   3.266   5.378  0.2578  0.2088 -0.0173
23484W        W39378   9.484   6.486  13.041  0.2249  0.1433 -0.0278
23485W        W39379  11.373   9.387  12.893  0.0090 -0.2270  0.0298
23486W        W39380   2.318  12.468  16.302  0.0210 -0.0428 -0.0882
23487W        W39381  10.616  18.162   0.055 -0.1025  0.0405 -0.0252
23488W        W39382   0.672  16.635  12.831  0.2004  0.1625 -0.1008
23489W        W39383   1.878   3.057  15.768  0.0327 -0.0662  0.2314
23490W        W39384   6.248   0.675   3.254 -0.1599  0.0503  0.2912
23491W        W39385  15.279   8.066  14.914 -0.0076 -0.3742 -0.1384
23492W        W39386  13.516  11.752   5.207  0.1467  0.0956 -0.0726
23493W        W39387   6.232   6.852   1.795 -0.0203 -0.1107  0.2401
23494W        W39388  11.320  15.307  16.439 -0.1500  0.0793 -0.3751
23495W        W39389   0.258  11.914   5.788  0.1832 -0.0994  0.0802
23496W        W39390  14.578  10.840  13.114  0.1921 -0.0486  0.0121
23497W        W39391   7.331   9.680   1.538 -0.1174 -0.0640 -0.0378
23498W        W39392   6.163  16.579   4.185  0.1029  0.1125  0.1326
23499W        W39393  14.553   3.063   4.308 -0.0167 -0.2007  0.0718
23500W        W39394   2.396   3.834  11.147  0.0352 -0.1110  0.0185
23501W        W39395  10.889  11.344   5.430 -0.0039 -0.0216  0.0696
23502W        W39396   0.723  17.079   5.493 -0.2893  0.0084  0.1326
23503W        W39397   1.575  16.669   5.109 -0.0053 -0.0106 -0.1201
23504W        W39398   3.551  15.568  12.409 -0.1565 -0.0486  0.1508
23505W        W39399   4.050   5.206  13.844 -0.0082 -0.3306  0.0206
23506W        W39400   3.923  14.075   4.796 -0.2890 -0.1854  0.3904
23507W        W39401   5.897  15.209   2.847 -0.2323 -0.2684 -0.1834
23508W        W39402  11.985   5.658  14.907 -0.0510 -0.2180 -0.1254
23509W        W39403   2.401  11.120  16.290 -0.1447 -0.2005 -0.0152
23510W        W39404  13.931   0.116   4.933  0.0884  0.3591 -0.0826
23511W        W39405  14.807  14.421   0.287 -0.0307  0.1882 -0.0339
23512W        W39406   8.354  17.373  14.539  0.1588 -0.0725  0.1144
23513W        W39407   2.424   3.186  12.305  0.4359 -0.0600  0.1952
23514W        W39408   5.922   2.904   2.814 -0.1263 -0.0069  0.0919
23515W        W39409  17.134  11.007   2.838 -0.1042 -0.2433  0.4765
23516W        W39410  10.515   6.584  12.298 -0.0423  0.0300 -0.1733
23517W        W39411  17.319   4.015   2.258  0.5180  0.0470  0.2304
23518W        W39412  10.819   6.509  15.863  0.1484  0.0797  0.2140
23519W        W39413  10.629   6.030   5.020  0.2266  0.0049  0.1395
23520W        W39414  18.175   7.740  12.205 -0.0246 -0.0710 -0.2550
23521W        W39415   5.094   8.600  15.749 -0.2623  0.2120 -0.2688
23522W        W39416  15.619   1.545  11.411 -0.2756  0.0123  0.3000
23523W        W39417  10.343   7.036   3.741  0.3118 -0.3907 -0.0571
23524W        W39418   0.109   8.230  12.020 -0.0540  0.0335  0.1861
23525W        W39419  16.423  10.129  16.051 -0.0453 -0.0153 -0.0318
23526W        W39420   5.406  15.368   1.850  0.1258 -0.1066  0.2027
23527W        W39421  10.399  13.999   5.384 -0.0948  0.2468  0.0428
23528W        W39422  15.319  15.152  16.430 -0.2161  0.2778  0.2370
23529W        W39423   8.843   9.165   1.665  0.2671  0.3651  0.0493
23530W        W39424   1.859   3.639  15.257  0.2143 -0.0017  0.3467
23531W        W39425  17.920   9.209  15.529  0.1918  0.0723  0.1292
23532W        W39426  18.016   4.395   2.010 -0.1270 -0.3137  0.1118
23533W        W39427   1.150  10.080   3.123 -0.0868 -0.0692 -0.0935
23534W        W39428   9.597   6.337  11.979 -0.0328  0.1801  0.0610
23535W        W39429   5.775  17.329  13.315 -0.1247 -0.2050 -0.1480
23536W        W39430   5.335   1.991  13.943 -0.3167  0.0645  0.1382
23537W        W39431  13.105  10.492  15.047 -0.2129 -0.2486  0.1832
23538W        W39432   0.664  12.064   3.168 -0.0577  0.0418 -0.1489
23539W        W39433  15.688   4.985   2.191  0.0922  0.0010 -0.1276
23540W        W39434   9.338   9.677  13.574 -0.0320  0.0012 -0.0533
23541W        W39435  15.059  13.919   4.095 -0.1892  0.0775 -0.1900
23542W        W39436   4.730  14.213   1.449  0.0630 -0.1395  0.2836
23543W        W39437  15.874  15.674   0.655  0.1365  0.0942  0.1590
23544W        W39438   4.099   8.309   4.765  0.1757  0.1549 -0.2570
23545W        W39439  16.829   0.193  13.994 -0.0885 -0.1067 -0.4477
23546W        W39440   3.365   3.509   3.750 -0.1196  0.0937 -0.1987
23547W        W39441   6.613  15.855   3.090  0.1813  0.1486  0.1181
23548W        W39442   3.455  13.868  10.478  0.1974 -0.0823  0.2006
23549W        W39443  10.671  14.937  15.888  0.0358 -0.1007  0.0338
23550W        W39444  11.023   0.010  13.659  0.1193  0.3167 -0.3916
23551W        W39445  14.289   2.628   4.189 -0.1946 -0.0144  0.2600
23552W        W39446   3.991   6.249   4.728  0.2010 -0.0182  0.2008
23553W        W39447  15.110   8.219  10.474 -0.0520 -0.1360 -0.1499
23554W        W39448  12.175  10.636   3.774 -0.3162  0.1609  0.3090
23555W        W39449   5.031   7.661   2.586  0.1874  0.2794  0.0136
23556W        W39450  14.713   3.391  13.773 -0.2144 -0.0091  0.0054
23557W        W39451  13.231   0.583  15.726  0.1534  0.0190 -0.0414
23558W        W39452   9.989   3.842  15.172 -0.0783  0.0214  0.1558
23559W        W39453   8.057   7.882   0.231 -0.1406 -0.1024  0.1623
23560W        W39454  14.774  13.358   2.053 -0.2679  0.2073 -0.0630
23561W        W39455  15.305   2.383  16.016  0.0384 -0.0383 -0.0750
23562W        W39456   5.125   3.123  11.570 -0.1162  0.0981 -0.3052
23563W        W39457  10.377   7.982   3.981 -0.2278 -0.3797 -0.0769
23564W        W39458   1.312   9.627   2.105  0.3711 -0.1748 -0.0807
23565W        W39459   3.767  11.254   1.766  0.1913 -0.0479 -0.0943
23566W        W39460  17.417  17.657   3.753 -0.2308 -0.0307  0.0557
23567W        W39461  10.106   6.062   2.483  0.1329  0.3113 -0.0678
23568W        W39462   6.370  17.352  12.318  0.0972  0.0249  0.2715
23569W        W39463  16.988  15.442   4.046 -0.3533 -0.2046  0.0177
23570W        W39464   4.162   3.609   2.955  0.1544 -0.0564  0.2359
23571W        W39465  13.266  11.836  12.583  0.2526 -0.2648 -0.0431
23572W        W39466   3.953   2.176  11.824 -0.2485  0.0266 -0.1354
23573W        W39467  16.802   5.112  12.694 -0.0952 -0.1888 -0.0043
23574W        W39468   1.165   5.384   5.893  0.5161 -0.0644  0.2238
23575W        W39469   8.495  11.043   3.125  0.3054  0.2076 -0.4403
23576W        W39470  13.875   5.881   0.902  0.0040  0.2215 -0.1401
23577W        W39471   2.133   3.619   6.197 -0.1012 -0.1325 -0.2882
23578W        W39472  14.242   8.643  14.783  0.2588  0.0303 -0.0829
23579W        W39473   7.806  10.748   3.042 -0.2139 -0.1322  0.0308
23580W        W39474   1.536  16.925  15.829 -0.1703  0.1612 -0.1451
23581W        W39475   0.961  14.050  15.203  0.2320 -0.1043  0.1521
23582W        W39476   8.014   8.065  16.232  0.3073  0.0276 -0.0449
23583W        W39477   6.451  16.643   4.742 -0.3207  0.1881  0.1765
23584W        W39478  18.236   7.154  13.623  0.2544 -0.0551 -0.0049
23585W        W39479  10.666  16.944   3.761  0.0375 -0.0287  0.1756
23586W        W39480   8.326  14.209   4.642  0.4447  0.1134 -0.0520
23587W        W39481   1.922  13.054  14.510  0.1111  0.0552  0.2421
23588W        W39482   6.823   7.463  16.183  0.0651  0.0453 -0.0524
23589W        W39483   2.501   2.743   1.274  0.2988  0.1490 -0.1280
23590W        W39484   7.562  17.324   0.760  0.1308 -0.1158 -0.2124
23591W        W39485  11.433  11.284   1.352  0.0284  0.2002 -0.0509
23592W        W39486  12.035   2.550  11.533  0.2229 -0.1426  0.0532
23593W        W39487   6.895   6.926  11.842  0.0013 -0.0859 -0.2171
23594W        W39488   3.564   4.048   1.860 -0.1891  0.1071  0.4182
23595W        W39489   9.742   7.936   0.460 -0.0771  0.1441 -0.0068
23596W        W39490   1.922  15.627  15.095  0.0655 -0.0190 -0.1837
23597W        W39491   6.762   4.807  11.711 -0.0312 -0.3217 -0.1849
23598W        W39492  17.560   6.956  14.334  0.0312  0.1170  0.0450
23599W        W39493   7.712   1.217  11.973  0.0116 -0.2515  0.0710
23600W        W39494   4.004   4.685   0.946 -0.1358  0.1933 -0.0292
23601W        W39495   2.121   3.141   1.191  0.0590 -0.0550 -0.1137
23602W        W39496  16.062  11.460  15.114  0.2274 -0.1135  0.0690
23603W        W39497   1.029   7.102  13.278  0.0515  0.0479  0.1678
23604W        W39498  10.610  10.705  15.670 -0.2920  0.1706 -0.3432
23605W        W39499  16.404  17.018  16.434  0.0116  0.0387  0.1602
23606W        W39500  17.476   0.736   2.550  0.0877  0.1447  0.0096
23607W        W39501   7.632   4.832  13.020 -0.4582  0.1503 -0.0299
23608W        W39502  11.444   1.740   0.754 -0.0149 -0.1293 -0.0301
23609W        W39503   4.490  14.027  13.031 -0.0329 -0.0038 -0.2665
23610W        W39504   0.385  12.445  14.321  0.0917  0.2234  0.0161
23611W        W39505   0.465  12.268   4.260  0.3644 -0.2978 -0.3120
23612W        W39506   3.142  12.161  12.446 -0.1612 -0.0215  0.0915
23613W        W39507   6.853  11.608   4.969 -0.1875 -0.2136  0.1643
23614W        W39508   1.230  11.284   4.148  0.1719 -0.0027 -0.0327
23615W        W39509  15.135   7.825   1.027 -0.2304  0.1375 -0.0115
23616W        W39510   4.746   4.592  11.035 -0.0508  0.0818  0.1451
23617W        W39511   3.822  17.424  12.031 -0.3557  0.1120 -0.2143
23618W        W39512   6.925  13.317  11.703  0.0750 -0.0029 -0.0219
23619W        W39513   5.108   2.442   4.888  0.1477  0.1717  0.0609
23620W        W39514  18.072   1.551   2.792 -0.0455  0.1021  0.2604
23621W        W39515  13.482  17.746   2.634 -0.1944  0.2120 -0.1266
23622W        W39516  15.050   7.370  14.804 -0.0137  0.1612  0.2112
23623W        W39517  10.748  10.266   5.226  0.1834  0.0397 -0.1337
23624W        W39518   4.406  13.600   2.934 -0.3403  0.0178  0.0401
23625W        W39519   3.966   0.677  15.323 -0.1661 -0.3105 -0.3359
23626W        W39520   7.149   3.694  14.760  0.1774 -0.1970  0.1133
23627W        W39521  15.333  12.095   3.252 -0.0753 -0.1048  0.1240
23628W        W39522   8.967  13.715  16.054 -0.0692 -0.1436 -0.0700
23629W        W39523   4.757  11.525   1.327  0.0169 -0.2257  0.1540
23630W        W39524   4.155  12.749  13.897  0.0152 -0.0954 -0.0924
23631W        W39525   6.618   0.514   0.357 -0.2067  0.0616 -0.2618
23632W        W39526  13.252   8.886   5.767 -0.0264  0.1440 -0.0739
23633W        W39527   9.082   5.584  13.199 -0.0160  0.1934  0.1887
23634W        W39528   8.119  17.729   3.859 -0.0695 -0.0194 -0.1333
23635W        W39529   4.770  14.107   1.976  0.0722 -0.1381 -0.4087
23636W        W39530   3.710  16.215   0.929 -0.5419  0.5608  0.0559
23637W        W39531  13.502   3.750   5.135  0.1785 -0.0945  0.2016
23638W        W39532   1.474   4.062  12.400 -0.1355  0.0722 -0.2224
23639W        W39533   0.724   4.938  12.250 -0.1506  0.1635 -0.0333
23640W        W39534  10.327  11.299  12.715  0.0836  0.3457  0.2523
23641W        W39535  11.703   5.933   4.999 -0.3970 -0.2652  0.0093
23642W        W39536   0.702   2.028   1.229 -0.1649 -0.0989 -0.0793
23643W        W39537   9.009  14.057  12.780 -0.0341 -0.2118 -0.1633
23644W        W39538  18.110   0.740   4.700 -0.3616 -0.0359  0.2784
23645W        W39539   4.815  11.689  12.282  0.0380  0.1369 -0.4096
23646W        W39540   0.138  16.224   5.326  0.2172  0.0129 -0.2597
23647W        W39541  16.444  17.984   4.530  0.2773  0.2329 -0.1219
23648W        W39542   5.689   4.422   4.239  0.1122 -0.0062  0.1944
23649W        W39543   6.087   9.600   1.602  0.1000 -0.0055 -0.3191
23650W        W39544  17.992   6.295   4.603 -0.3565  0.1129 -0.0899
23651W        W39545   7.298  14.975   0.982 -0.2637 -0.0371 -0.3586
23652W        W39546   1.800  14.193   0.850  0.1164  0.0436 -0.2533
23653W        W39547  17.729   8.011  16.032  0.0305 -0.1156 -0.0256
23654W        W39548  10.323   9.018   2.885  0.0436  0.0084 -0.1462
23655W        W39549  10.466   4.688  13.974 -0.2075  0.1692  0.1748
23656W        W39550   8.698   5.809  11.329  0.3486 -0.2677 -0.2224
23657W        W39551  13.496  10.295   3.812 -0.0919 -0.0311  0.0880
23658W        W39552   7.587   1.373   2.374 -0.0334 -0.1165  0.2180
23659W        W39553  18.106  16.845   2.031 -0.0144  0.1274  0.0095
23660W        W39554  11.971   7.282  14.117  0.0906 -0.1724  0.1718
23661W        W39555   9.149   1.662  12.081  0.2597 -0.1104  0.0191
23662W        W39556   4.623  15.808  11.025  0.0269  0.0515  0.0899
23663W        W39557   7.858   3.982   2.844 -0.3486  0.1892 -0.2530
23664W        W39558   8.218  11.093   5.139 -0.1842  0.2751 -0.2261
23665W        W39559   2.396   6.344   2.368  0.1522 -0.1315  0.0205
23666W        W39560   5.002   2.105  14.694 -0.0482  0.1055 -0.3448
23667W        W39561   3.275  17.500  11.876 -0.0361 -0.1150  0.1333
23668W        W39562   2.584  16.227   3.687 -0.1030  0.0199  0.1047
23669W        W39563   0.740   3.680  13.279 -0.3354  0.0851 -0.1007
23670W        W39564   0.983  12.442   0.781  0.0280  0.0848 -0.0664
23671W        W39565  11.886   5.664  10.843  0.0573 -0.0424  0.0618
23672W        W39566  16.017   9.011   5.690 -0.0668 -0.0927 -0.1924
23673W        W39567   6.348   5.604  11.255  0.1166 -0.1652 -0.2185
23674W        W39568   5.866   6.646  16.412  0.2321  0.0569  0.1388
23675W        W39569   2.287  14.257  16.219  0.2479  0.1626 -0.0499
23676W        W39570  10.535  14.591  12.828  0.1581 -0.4070 -0.3187
23677W        W39571   2.503  12.184   4.569 -0.3433  0.0046  0.1164
23678W        W39572  11.443  11.207  11.085 -0.0879  0.0378  0.0482
23679W        W39573   8.214  17.993  13.560  0.0117 -0.1453  0.1927
23680W        W39574  15.356   3.388   0.086  0.3896 -0.0760  0.0949
23681W        W39575  15.917   3.369   0.657 -0.0523  0.1461 -0.1487
23682W        W39576   0.531  15.478   6.363 -0.1126 -0.3678  0.1638
23683W        W39577  12.908   1.544  14.851 -0.2771 -0.0787  0.0986
23684W        W39578  10.910   4.190  16.164 -0.1191  0.3182  0.1336
23685W        W39579  14.868   1.476   1.510 -0.0850 -0.0542  0.2632
23686W        W39580   2.316  10.670  13.611 -0.2064 -0.1999 -0.0420
23687W        W39581   9.962   3.160  14.427 -0.0150  0.0314  0.0182
23688W        W39582   8.810  11.976   0.758 -0.0033 -0.2391  0.0214
23689W        W39583   6.445   6.005  10.780 -0.1145  0.1739 -0.1400
23690W        W39584   9.643  14.703   1.003 -0.3043 -0.3920  0.0802
23691W        W39585  15.843   0.317   4.509  0.1155  0.0279  0.3449
23692W        W39586  12.253  10.600   3.301 -0.2754 -0.2476 -0.0678
23693W        W39587   6.470  14.515   4.871  0.0013  0.2146 -0.0890
23694W        W39588   9.633   8.562  11.058  0.1448 -0.2977 -0.2917
23695W        W39589   3.623  12.762   2.478  0.3183 -0.0310  0.0207
23696W        W39590   7.461   2.834   4.405  0.1424 -0.2599  0.4173
23697W        W39591   9.136   3.296  14.729  0.0251 -0.0256 -0.7257
23698W        W39592   9.987  14.739   4.590 -0.0007  0.1226  0.0802
23699W        W39593   4.050   7.388  11.602 -0.4252 -0.1047  0.1939
23700W        W39594   8.151  17.276   0.694  0.0508 -0.1537 -0.2633
23701W        W39595  16.646  13.425   2.047  0.1523 -0.1448  0.1690
23702W        W39596   8.837   0.120   2.764 -0.1726  0.1082  0.2072
23703W        W39597  12.158   9.899   1.714  0.1497  0.0179 -0.3948
23704W        W39598  12.175   9.080  12.307 -0.2237 -0.0718 -0.0185
23705W        W39599  15.532  12.698  15.227  0.2010 -0.2086 -0.0457
23706W        W39600   9.042   9.956   3.722 -0.1281 -0.0952  0.0126
23707W        W39601   8.530  17.223  12.182  0.0759 -0.0450  0.1593
23708W        W39602  10.380   1.752   3.133 -0.3001  0.1754  0.2002
23709W        W39603   5.450  17.342  14.723 -0.2538  0.3293 -0.2853
23710W        W39604  16.782   1.172  14.440 -0.1331  0.1019 -0.1651
23711W        W39605   7.484   5.513  11.893 -0.1476 -0.1849 -0.0825
23712W        W39606  14.317   2.693  14.505 -0.2901 -0.2090 -0.1495
23713W        W39607   3.534  16.748  14.405  0.5131 -0.2489  0.1127
23714W        W39608   8.392   1.475  13.244  0.1039  0.0587  0.0902
23715W        W39609   3.629   3.326  14.203  0.0551 -0.1335 -0.0116
23716W        W39610   9.257  15.564   2.608 -0.1295  0.3632  0.4134
23717W        W39611   3.921  15.377  12.759  0.1445 -0.0518 -0.0193
23718W        W39612   2.064   8.195  14.828 -0.0289 -0.0055 -0.2347
23719W        W39613  11.407  11.572   0.848  0.0092  0.0473  0.0456
23720W        W39614  13.524   0.040  12.240 -0.1207 -0.0877 -0.2626
23721W        W39615  13.808   1.527  15.014  0.1404  0.5576  0.0946
23722W        W39616  17.093   7.815   0.497  0.0098  0.4239 -0.1825
23723W        W39617   9.891  15.302   3.283  0.1243 -0.0801 -0.0567
23724W        W39618   8.687   6.802   1.027 -0.0043 -0.1769  0.2137
23725W        W39619   8.325   7.000  11.450 -0.1074  0.0420 -0.2126
23726W        W39620  10.020   7.659   3.827  0.1574 -0.1120  0.0553
23727W        W39621   2.953   7.332  14.011  0.3747  0.0594  0.1357
23728W        W39622  13.887  12.637   4.152 -0.1229 -0.1259 -0.1048
23729W        W39623   2.168   3.992  13.636  0.1821 -0.1112  0.0857
23730W        W39624  15.367   2.329   1.913  0.1990 -0.2607 -0.0112
23731W        W39625   6.319   7.572  16.248  0.1687  0.1370 -0.1283
23732W        W39626   0.303   6.815   2.136  0.0450 -0.0114 -0.2823
23733W        W39627  11.266  11.914  12.997  0.2406 -0.0320  0.1569
23734W        W39628  17.111   2.257  13.444  0.0819 -0.2277  0.0573
23735W        W39629  16.264   4.677  15.316 -0.2077  0.2179  0.2686
23736W        W39630   1.301  13.221   2.080 -0.0382 -0.1303  0.0721
23737W        W39631  13.217  12.545   2.054  0.1422 -0.1036  0.3999
23738W        W39632   5.340   8.965   4.590 -0.0857 -0.0212  0.2186
23739W        W39633   2.119   3.393  11.453  0.0775  0.2787  0.3734
23740W        W39634   6.779  13.760   4.895  0.2920  0.0571  0.0134
23741W        W39635  13.438   3.638  12.223  0.1000  0.1610  0.3333
23742W        W39636  17.183  16.088  15.813  0.0167  0.1701  0.1251
23743W        W39637   5.974   2.034  14.853 -0.0458  0.0310  0.2057
23744W        W39638  12.983  13.783   2.278  0.1107  0.2578 -0.2540
23745W        W39639   6.778   5.391   4.026 -0.0239 -0.1619  0.0950
23746W        W39640   6.443   3.845  16.009 -0.2052  0.1384 -0.2556
23747W        W39641   3.193  13.647   4.309  0.0118 -0.0266  0.0139
23748W        W39642  17.464  11.874  14.685 -0.2330  0.1348  0.0455
23749W        W39643   6.733  12.790   2.703  0.0194  0.1061  0.1816
23750W        W39644  14.237   0.860  13.289 -0.3277 -0.2430  0.1637
23751W        W39645   3.406  11.783  14.156 -0.1235 -0.4005 -0.0209
23752W        W39646   7.543  16.328   3.937  0.1251 -0.1739  0.0798
23753W        W39647  16.015   4.591   1.379 -0.2294 -0.0186 -0.0089
23754W        W39648   5.494  11.326   4.575  0.0197  0.1431 -0.0661
23755W        W39649   4.211   0.212  12.987  0.1889  0.1880 -0.2181
23756W        W39650   3.015   3.202  14.770  0.2567  0.2025  0.0904
23757W        W39651   1.393  12.554  12.775 -0.1833  0.0285 -0.1610
23758W        W39652  12.401  11.088   0.272 -0.1228 -0.1010  0.1784
23759W        W39653   8.866  10.946   1.479 -0.2794 -0.0910  0.0502
23760W        W39654  14.284   8.053   2.934 -0.0264 -0.0654 -0.3187
23761W        W39655   0.922   5.201   1.309  0.1209 -0.1847 -0.0795
23762W        W39656  16.838   3.428  14.292  0.1083 -0.0590  0.0265
23763W        W39657   5.512  12.045  12.850 -0.0275  0.3073 -0.0293
23764W        W39658  17.864   7.933  14.970 -0.0443  0.2676  0.3118
23765W        W39659   0.582   8.376   2.360 -0.1457  0.2592  0.0521
23766W        W39660   3.793  17.974  16.231  0.2708  0.2599 -0.1024
23767W        W39661   1.201  10.727   5.382  0.2730  0.1483 -0.0167
23768W        W39662  10.520   4.566   5.231  0.1027 -0.4727  0.1170
23769W        W39663  15.611   4.407  15.944  0.0724 -0.1222  0.0291
23770W        W39664   5.821  10.509   1.584 -0.1428  0.0203  0.2185
23771W        W39665  17.589  11.774   5.255 -0.0824  0.1345  0.1491
23772W        W39666   5.093  11.853  14.377  0.0372  0.2059  0.0077
23773W        W39667  13.899   9.045   6.841 -0.1000  0.0946 -0.2361
23774W        W39668   8.651   5.034  15.799 -0.1185 -0.2278 -0.2205
23775W        W39669  10.884  14.988  12.805  0.1397 -0.2231 -0.1245
23776W        W39670  16.853   5.353  13.988  0.4657 -0.2964  0.0145
23777W        W39671  16.657   8.163   4.722 -0.1389  0.2921  0.0828
23778W        W39672   1.835  10.478   1.327  0.0071  0.0233 -0.1590
23779W        W39673   4.327  11.435   0.630 -0.2707 -0.1428 -0.1321
23780W        W39674   6.006   6.479   1.551 -0.1152 -0.0479 -0.4030
23781W        W39675   4.503  16.467  11.587  0.2610 -0.3970  0.3086
23782W        W39676  13.069   0.615   3.643 -0.2778 -0.0447  0.2274
23783W        W39677  14.475  16.147  13.617 -0.2449  0.0103  0.1715
23784W        W39678  17.231  18.205   0.095 -0.3360 -0.0889 -0.0669
23785W        W39679   6.622  13.201  14.697  0.3584 -0.0696  0.3085
23786W        W39680   2.069   2.314   0.644 -0.0580 -0.0478  0.0660
23787W        W39681  10.520   6.254  16.238 -0.1780 -0.0286  0.2823
23788W        W39682  10.591  11.167  16.301 -0.2033 -0.3650  0.2477
23789W        W39683  14.150  15.572  11.990  0.1101 -0.2408 -0.1749
23790W        W39684   8.507  17.725  13.976  0.3084  0.5561 -0.0259
23791W        W39685  11.275  14.746   4.906 -0.0913 -0.1567  0.0252
23792W        W39686   0.717  16.320  12.424  0.1781 -0.0988 -0.1193
23793W        W39687   2.509   7.157   5.653  0.3249 -0.0193 -0.3758
23794W        W39688  13.412   2.827  14.902 -0.1333 -0.0850  0.1322
23795W        W39689   2.126   7.351  11.678  0.0125 -0.2042  0.3340
23796W        W39690  16.956  14.691   0.572 -0.2274  0.3582 -0.2350
23797W        W39691  13.231   2.751   5.500  0.3072 -0.0411  0.3246
23798W        W39692  10.007  15.029   1.315  0.1852 -0.1429 -0.0974
23799W        W39693  17.253  18.132  12.908  0.0644  0.1389 -0.0792
23800W        W39694  17.221   7.586  11.982  0.2368  0.2513 -0.2386
23801W        W39695  13.467   0.416   1.153 -0.0016 -0.0659  0.2803
23802W        W39696   4.414  14.616   5.508  0.1108  0.0579  0.0356
23803W        W39697   9.932  11.597  12.766  0.0210 -0.0571 -0.1006
23804W        W39698  10.566   5.675  15.297 -0.2607 -0.2777 -0.0321
23805W        W39699   7.379  11.483   1.898  0.2447  0.1278  0.1004
23806W        W39700   3.367   8.078  11.452 -0.2494 -0.2854 -0.0725
23807W        W39701   7.452  13.978  11.087 -0.0498 -0.1702 -0.1084
23808W        W39702  17.820  14.996  13.644  0.2232  0.2286 -0.0314
23809W        W39703  11.375   8.721  15.440 -0.3005  0.1834 -0.0539
23810W        W39704   7.373  15.536   4.128  0.0977 -0.1225  0.1684
23811W        W39705  12.041   3.429   2.539 -0.0804 -0.3103 -0.1988
23812W        W39706  16.241  15.928  11.617 -0.0145 -0.0010  0.0450
23813W        W39707  12.693   3.644  12.972 -0.0741 -0.1791 -0.2805
23814W        W39708   6.472   8.655   3.819  0.3748  0.0490 -0.1676
23815W        W39709  10.098   7.422  11.877  0.3147  0.0053  0.0633
23816W        W39710  13.936   4.674  10.952  0.2419 -0.1191  0.1329
23817W        W39711   1.268  14.699   1.167 -0.1771 -0.1458  0.0205
23818W        W39712  13.271   9.108  15.053 -0.0948 -0.2151  0.0655
23819W        W39713   8.489   9.047   2.063  0.0502  0.1488 -0.1144
23820W        W39714  17.234   8.350   2.894 -0.0019  0.0117  0.3978
23821W        W39715   0.555   5.183  13.668 -0.1926  0.0233 -0.1223
23822W        W39716   1.194   4.680  12.058 -0.2584 -0.0633 -0.1285
23823W        W39717  15.860  16.438  11.538  0.0913  0.2654  0.1430
23824W        W39718  11.056  13.985   1.369 -0.1968 -0.0738 -0.0525
23825W        W39719  15.876   5.460   0.838  0.0712 -0.1459  0.2225
23826W        W39720  14.986   5.961   1.934 -0.0425  0.0496  0.1247
23827W        W39721  11.428  14.375  15.803  0.1457  0.1876 -0.4196
23828W        W39722   4.901  10.817   3.718 -0.1940 -0.4799 -0.0555
23829W        W39723  14.277  10.346  13.031 -0.0504 -0.0675 -0.1316
23830W        W39724  15.386  13.983   3.704 -0.1560  0.1377  0.0095
23831W        W39725  14.638  12.552   5.187 -0.1010 -0.4075  0.0185
23832W        W39726  10.855  11.464   4.905  0.0292 -0.1297  0.2403
23833W        W39727  15.387   8.471  12.479  0.0906 -0.0101  0.1697
23834W        W39728   7.168  16.624   5.123  0.1479  0.0839 -0.3410
23835W        W39729  12.342   8.931  16.297 -0.1176  0.0641  0.1029
23836W        W39730   6.685  16.026   5.262  0.1111 -0.0999 -0.0352
23837W        W39731   7.257   1.475  13.588  0.1302 -0.1412  0.1310
23838W        W39732  15.998   7.271  12.324  0.1236 -0.1060  0.0403
23839W        W39733   5.854   0.753  12.031  0.2917 -0.2163 -0.0059
23840W        W39734   9.552  10.140   1.511 -0.0541 -0.2597  0.0696
23841W        W39735  17.570   9.910   4.625 -0.0582  0.2157 -0.0982
23842W        W39736   5.494  13.640  14.242 -0.3368  0.0238  0.2143
23843W        W39737  10.548   8.957  14.902  0.1517 -0.3829  0.1877
23844W        W39738   2.843   4.801   1.716  0.3517  0.0171 -0.0229
23845W        W39739   6.841   5.144  13.798 -0.1012  0.5405 -0.2356
23846W        W39740   4.944  17.441  15.170  0.1885  0.1163  0.0491
23847W        W39741  13.319   1.615  16.102 -0.0548  0.2170 -0.0641
23848W        W39742   1.314   3.329   4.992 -0.2238  0.2670  0.0916
23849W        W39743   0.056  15.771  15.179  0.0408 -0.0574 -0.1425
23850W        W39744   9.848   6.899  13.540 -0.1328  0.1986  0.0911
23851W        W39745  12.967   6.753   0.100 -0.1752  0.0560 -0.0692
23852W        W39746  15.975   5.982   0.332 -0.1689  0.2058 -0.1084
23853W        W39747  11.940   2.891  12.047 -0.0578  0.0963 -0.0454
23854W        W39748   9.047  14.038   0.571 -0.0107  0.0297  0.1512
23855W        W39749   2.268   4.900  15.999  0.1423  0.0517  0.2967
23856W        W39750  10.504   8.809   1.074 -0.5938  0.1737  0.3241
23857W        W39751   4.157  10.267  11.988 -0.0730  0.1099 -0.2359
23858W        W39752   5.293   8.071  11.569 -0.3572 -0.2249  0.2043
23859W        W39753   0.240  18.049   3.879 -0.2406 -0.2631 -0.1058
23860W        W39754  15.026   6.430   3.724 -0.0387 -0.1181 -0.2135
23861W        W39755   8.475  16.818  15.018  0.2173  0.1884 -0.0939
23862W        W39756  17.444  13.370  12.138 -0.2300  0.1691  0.1014
23863W        W39757  13.010   7.925   0.305  0.1426 -0.3446  0.1057
23864W        W39758   3.369   4.483   1.709 -0.1406 -0.0945  0.3271
23865W        W39759   4.420   9.876  14.965  0.0550 -0.5927 -0.3700
23866W        W39760  17.150  16.760   6.085 -0.1587 -0.0377  0.0633
23867W        W39761   7.237   6.139  14.911 -0.0119 -0.1555 -0.2240
23868W        W39762   5.294   4.086   1.020  0.1058 -0.0994  0.1402
23869W        W39763   7.473  17.960  14.174 -0.0749  0.1410 -0.1125
23870W        W39764  12.909   2.909  15.055 -0.0961  0.0863 -0.2884
23871W        W39765   2.227   9.740   5.257 -0.2745  0.0500 -0.2041
23872W        W39766   7.175   0.214   3.667 -0.2303  0.5572 -0.5404
23873W        W39767   2.748   2.841   4.180  0.0227 -0.1020 -0.1695
23874W        W39768  14.582  14.847   5.977 -0.1238 -0.1873  0.1906
23875W        W39769  13.517  15.899   4.087 -0.0732 -0.1238  0.0176
23876W        W39770  11.601   5.199   3.113  0.1997 -0.0316 -0.1140
23877W        W39771  13.581   4.629  12.537 -0.0373 -0.0028  0.2556
23878W        W39772   9.705  11.572  11.417 -0.0729 -0.1731 -0.1667
23879W        W39773  12.124  14.817  14.432  0.0167  0.1608  0.0984
23880W        W39774   3.168  13.779   0.827  0.1152 -0.0804 -0.1544
23881W        W39775   4.119   7.298  12.197  0.1374  0.0304 -0.0551
23882W        W39776  13.664   4.110  10.875  0.2547  0.2393  0.0106
23883W        W39777   9.848  16.925  14.033  0.2429 -0.2818 -0.3017
23884W        W39778  17.592   5.168   4.887 -0.1203 -0.0450 -0.0792
23885W        W39779   0.626  15.177  12.653 -0.1862  0.2367  0.1704
23886W        W39780   2.510  10.792  11.827  0.2760  0.0966 -0.2921
23887W        W39781  10.113   3.288   4.657  0.0638  0.1697 -0.1992
23888W        W39782   6.712   9.024   2.278 -0.2362 -0.2374  0.1743
23889W        W39783   8.825  15.499  13.844  0.2683 -0.1905  0.0178
23890W        W39784   8.134   6.950  10.844 -0.2234 -0.2131 -0.0493
23891W        W39785  14.895  17.712   1.720 -0.1523  0.0294  0.1504
23892W        W39786   0.976   5.614   4.666  0.2138  0.1773  0.0249
23893W        W39787   5.970  10.802  13.372 -0.1724  0.0459  0.1798
23894W        W39788   9.697   0.129   4.386  0.0670 -0.2364 -0.0716
23895W        W39789  10.662  11.974  15.032 -0.1718 -0.1557 -0.2285
23896W        W39790   7.033  11.936  13.802 -0.3068  0.1659 -0.1450
23897W        W39791  10.593   3.338   4.520 -0.0453 -0.1050 -0.1708
23898W        W39792   5.020  14.195   3.948 -0.1518 -0.0809  0.0096
23899W        W39793   7.017   5.649   2.612 -0.0580  0.0797 -0.1038
23900W        W39794  14.933   6.292   4.873 -0.0698  0.2779 -0.1143
23901W        W39795  11.111   1.469  15.241  0.1364  0.2734 -0.2564
23902W        W39796  12.287  15.838  13.694 -0.2938  0.3542  0.2055
23903W        W39797  17.471  14.777   2.447 -0.3716  0.1566 -0.2282
23904W        W39798   2.719   1.448   0.528  0.2958  0.2593  0.0211
23905W        W39799  10.100  15.761   5.292 -0.0122 -0.2332 -0.0995
23906W        W39800   4.821   4.092   0.808  0.3278  0.1172 -0.3686
23907W        W39801   8.860   9.646  12.580  0.2720 -0.1642  0.0522
23908W        W39802  15.673  15.049  13.006 -0.1511  0.1545  0.0448
23909W        W39803   5.520  16.286   3.018 -0.1385  0.0266  0.0338
23910W        W39804   0.308  13.799   1.153  0.0803 -0.2410 -0.2242
23911W        W39805   9.690  15.641   2.884 -0.2646 -0.2382 -0.2710
23912W        W39806  16.115   6.486   1.721 -0.2078 -0.0801 -0.1288
23913W        W39807   1.655   4.908   1.321 -0.0364 -0.0251 -0.0324
23914W        W39808   8.392   7.017   5.341  0.2230 -0.2505 -0.1395
23915W        W39809  16.579  15.618  13.257 -0.0530  0.0324 -0.1190
23916W        W39810   5.890  10.517  11.542  0.4054  0.0853 -0.0154
23917W        W39811   5.048  14.607   0.092 -0.1031 -0.0818 -0.2218
23918W        W39812  11.375  11.635   4.617 -0.2066  0.2767  0.0482
23919W        W39813  16.726  12.705  13.046  0.0073  0.2126  0.0533
23920W        W39814   6.580  17.619   3.572 -0.0484  0.0007  0.1365
23921W        W39815  11.998   6.391   0.787  0.1662 -0.3981  0.0975
23922W        W39816   3.513   3.051  12.502  0.2326  0.0886  0.1282
23923W        W39817   1.796   0.011  13.765  0.1554  0.1811 -0.0463
23924W        W39818   7.605  13.145   4.707 -0.1598  0.1613  0.0121
23925W        W39819  14.588   0.897  11.523 -0.0685 -0.1986 -0.2971
23926W        W39820   0.686   2.437  12.431  0.0691  0.3171  0.1289
23927W        W39821   9.248  18.165  15.045 -0.0008  0.1635  0.2806
23928W        W39822  10.107  10.835  11.482 -0.0713  0.0094 -0.1045
23929W        W39823   4.361  10.967   3.419  0.2644  0.2621  0.0340
23930W        W39824   8.328   7.424   0.232  0.1540 -0.1375  0.0858
23931W        W39825  15.767  10.672   1.186 -0.0244 -0.0018  0.1826
23932W        W39826   4.899   8.628   2.825 -0.2913 -0.1228  0.1644
23933W        W39827   8.567   9.088  13.315 -0.0257  0.0772 -0.0137
23934W        W39828   8.736  14.985  14.521 -0.1485  0.0830 -0.1412
23935W        W39829   9.888   9.802  14.425  0.3092 -0.1287  0.1081
23936W        W39830   1.346  17.005   4.781  0.2544  0.2442 -0.1917
23937W        W39831   5.026  13.632   4.250 -0.0445 -0.0025  0.1912
23938W        W39832   1.588   1.478   1.439 -0.0781  0.1214  0.3159
23939W        W39833  11.235  11.117   5.115  0.3863 -0.0919 -0.0201
23940W        W39834   6.197   8.802  15.511  0.0141  0.0769  0.1805
23941W        W39835  16.985  13.216   0.747 -0.0183 -0.0510 -0.1312
23942W        W39836  12.463  16.782  12.280  0.1773  0.2025  0.2732
23943W        W39837   6.620  16.316   3.331 -0.1717  0.0366 -0.0777
23944W        W39838   3.789  10.735   2.512 -0.1957  0.0139  0.0931
23945W        W39839   7.534   3.015  14.047 -0.2481  0.3491 -0.1031
23946W        W39840  15.963  11.008  13.036 -0.1421 -0.0244  0.0693
23947W        W39841  11.018  12.851   2.825  0.2860 -0.3273  0.0248
23948W        W39842  13.404   1.382   4.096  0.1354 -0.2256  0.1051
23949W        W39843   7.681   6.647   2.329 -0.1213  0.2347  0.1563
23950W        W39844  13.907   6.914  15.385  0.2803 -0.1279  0.1445
23951W        W39845  16.615   1.287   0.193  0.1171  0.0217  0.0390
23952W        W39846   1.702   0.822   4.718  0.0081 -0.1085  0.0661
23953W        W39847  15.482  15.724   1.201  0.0160  0.2197  0.1916
23954W        W39848  14.408   2.940   0.535  0.0506 -0.2719  0.4219
23955W        W39849   1.068   9.353   3.711  0.1151 -0.1052  0.0218
23956W        W39850  16.325   8.972   5.186  0.3038 -0.1953  0.3406
23957W        W39851  14.551   3.027   3.453 -0.2295  0.0497  0.0072
23958W        W39852   9.074   5.885  13.615 -0.0225  0.3861  0.1215
23959W        W39853   0.052  14.304   2.599 -0.3062  0.0513  0.2230
23960W        W39854  11.460  10.479   1.806  0.4234 -0.0663  0.1839
23961W        W39855   7.571   6.908  12.059  0.0947  0.0335 -0.1641
23962W        W39856   3.243   3.657  13.908 -0.2629  0.0699 -0.0637
23963W        W39857   6.233   7.726   1.457  0.0066  0.3545  0.2547
23964W        W39858   5.677   5.168   3.131  0.2309 -0.3737  0.1579
23965W        W39859  12.780  16.140   2.778 -0.1954  0.1541 -0.2135
23966W        W39860  15.909   4.024  11.118  0.0578 -0.0645 -0.1123
23967W        W39861   1.578   9.952  15.352 -0.3326 -0.1233  0.3188
23968W        W39862   2.259  14.371   4.048  0.0799  0.3626  0.1499
23969W        W39863  16.590  12.120   3.684 -0.2145  0.0094  0.2044
23970W        W39864   2.892   8.710   2.920 -0.1192 -0.2453  0.0196
23971W        W39865   8.132   7.866  10.406  0.0504 -0.2024 -0.4603
23972W        W39866  14.084   3.385  11.164 -0.1884  0.2853 -0.0348
23973W        W39867   9.397   1.200   2.337 -0.0042 -0.0782 -0.0150
23974W        W39868   0.593  11.188  12.408 -0.3271 -0.0970  0.0814
23975W        W39869   4.221  10.618  13.151  0.0664  0.0959 -0.0092
23976W        W39870  13.180  12.715   6.690  0.0926  0.0803 -0.0296
23977W        W39871  16.605  13.967  14.104  0.0962 -0.1412 -0.0506
23978W        W39872   4.479   1.942  12.042 -0.1224 -0.1140 -0.1401
23979W        W39873  10.079  14.034   1.771 -0.1157 -0.0009 -0.0374
23980W        W39874  18.111  15.699  12.518 -0.0754 -0.4429 -0.1234
23981W        W39875   6.459   1.873  13.289  0.1541 -0.3112  0.2248
23982W        W39876  11.960  16.937  11.474 -0.0680  0.2711 -0.2066
23983W        W39877  11.281   0.846  13.562 -0.1437  0.1101 -0.0183
23984W        W39878  12.455  11.573   4.886  0.2441  0.1870  0.0978
23985W        W39879   5.535   5.335   1.188 -0.0685 -0.1723 -0.1776
23986W        W39880  10.315  13.567   3.284  0.1193  0.0814 -0.0396
23987W        W39881   6.403   4.866  13.945 -0.1092  0.1095  0.2628
23988W        W39882   2.454   3.969   4.942 -0.1823  0.0262 -0.3941
23989W        W39883  16.850  13.285   3.275 -0.0702 -0.4094 -0.4388
23990W        W39884  16.130  17.008  12.990 -0.2161  0.0206  0.0855
23991W        W39885   8.258   5.761  11.580  0.0609  0.1814  0.1284
23992W        W39886   6.881  15.685  13.089 -0.0888 -0.1803  0.1566
23993W        W39887  11.696  17.855   2.221  0.0146  0.0894  0.0096
23994W        W39888   6.327  17.519   4.463 -0.1574  0.0454 -0.2429
23995W        W39889   0.509   0.768   6.430 -0.2761 -0.1728 -0.1055
23996W        W39890  12.840  14.286   5.989  0.1157  0.0941  0.1452
23997W        W39891  17.926  10.386   1.987  0.0736  0.1277  0.2522
23998W        W39892  17.116   4.699   4.202  0.0973  0.1856 -0.0527
23999W        W39893   5.196  15.465  16.128  0.0339 -0.1258  0.0479
24000W        W39894  13.648  17.239  12.085  0.0804  0.0921 -0.1512
24001W        W39895  13.226   7.567   4.765  0.4312 -0.0437 -0.2765
24002W        W39896   2.886  17.605   4.488  0.0032  0.2415 -0.0982
24003W        W39897   1.477   4.470   1.127  0.4171 -0.3833  0.1752
24004W        W39898   2.988   8.146  13.424  0.1025  0.2319  0.4604
24005W        W39899   6.890   5.887  12.178  0.0178 -0.1659  0.2320
24006W        W39900   5.515   9.915  11.035 -0.1208  0.0764  0.2964
24007W        W39901   8.725   0.763  10.732 -0.0520 -0.0728 -0.1329
24008W        W39902  16.672   6.647  12.589 -0.1480 -0.3710 -0.1619
24009W        W39903  15.364   9.404  14.551  0.0768 -0.0464 -0.3608
24010W        W39904   3.429  14.409   5.303 -0.1009 -0.4630 -0.4060
24011W        W39905   4.239   5.663   3.113 -0.1036  0.0512 -0.1971
24012W        W39906  15.244  12.814  14.389 -0.2122 -0.1952  0.2527
24013W        W39907  10.752   8.764  11.814 -0.0877 -0.1542  0.0551
24014W        W39908  12.824  11.966  16.126  0.0993  0.1347  0.0682
24015W        W39909  14.600  12.993  13.121 -0.1015  0.2349  0.2301
24016W        W39910  10.047  16.353  14.893  0.0043  0.1404 -0.0028
24017W        W39911   6.347   8.655   2.447 -0.1185 -0.3753 -0.1335
24018W        W39912  15.412   1.247   1.367 -0.3671  0.0118  0.1128
24019W        W39913  16.678  11.519   4.872  0.0154 -0.0739  0.0927
24020W        W39914   7.640  10.265   0.195 -0.0410 -0.1006 -0.1374
24021W        W39915   0.843  17.995  14.843  0.0513 -0.2183  0.1346
24022W        W39916   2.386  12.411   1.758 -0.2013 -0.2901  0.0712
24023W        W39917   8.543   6.635   3.086 -0.2500 -0.3379 -0.1376
24024W        W39918   8.510   1.137  11.725  0.0391 -0.1301 -0.1985
24025W        W39919   9.423  16.093   1.204  0.0890  0.2611 -0.0649
24026W        W39920  18.127   2.772  11.989 -0.0270 -0.4482 -0.2686
24027W        W39921  17.727   0.206   1.390  0.2153 -0.1780 -0.1593
24028W        W39922  12.547  13.768   1.364  0.0481 -0.0793  0.0019
24029W        W39923   8.764   0.945  15.339  0.1052  0.0403 -0.1713
24030W        W39924  12.920  10.464  13.966 -0.1582  0.2920  0.2792
24031W        W39925  12.167   1.989   4.191  0.3923 -0.3260  0.0405
24032W        W39926   0.759   9.922  12.153  0.1043  0.0193  0.0392
24033W        W39927   5.161  11.691  12.638  0.0736  0.0866 -0.0598
24034W        W39928   9.772   6.056   4.746 -0.3955 -0.1839 -0.1969
24035W        W39929   4.978   5.568   4.443  0.1650 -0.1247 -0.1969
24036W        W39930   6.684  13.755   4.086 -0.2861 -0.0464 -0.0240
24037W        W39931  16.175   5.857   0.755  0.1672 -0.0524 -0.0026
24038W        W39932  10.089  17.241  11.386  0.0456 -0.2625  0.2333
24039W        W39933   9.870  11.436  14.890 -0.0011 -0.3375  0.0547
24040W        W39934   7.169   9.888   4.256 -0.1593  0.1755  0.1488
24041W        W39935  10.342   9.821   0.157 -0.0641 -0.1834 -0.0178
24042W        W39936  15.899   9.428   3.604 -0.1962  0.0620  0.2913
24043W        W39937   3.001  14.778  11.826  0.0870 -0.1139 -0.1101
24044W        W39938  12.761   8.760   0.006 -0.0283 -0.2726 -0.0165
24045W        W39939  17.992  13.162   3.419 -0.1443  0.1189 -0.1920
24046W        W39940   3.822  14.935  11.616  0.0821 -0.1527  0.1239
24047W        W39941   9.814  15.135  12.983 -0.1809  0.0187 -0.1172
24048W        W39942   7.295  16.277   0.349  0.1835 -0.1226  0.5099
24049W        W39943  11.402   7.749   2.827 -0.0007  0.0056  0.0094
24050W        W39944   0.003  12.645   2.175 -0.2711 -0.0931 -0.1740
24051W        W39945  12.813  11.801   5.605 -0.2119  0.0367  0.2010
24052W        W39946  13.293  11.438   4.871 -0.1649 -0.0577 -0.0858
24053W        W39947  10.906  17.380   4.036 -0.0096 -0.1563  0.0715
24054W        W39948  12.484   7.827  12.940  0.0114 -0.2560 -0.1050
24055W        W39949  10.168   1.293   3.386 -0.0148  0.0190  0.2667
24056W        W39950   0.995  14.476  12.301  0.1716  0.3240 -0.3939
24057W        W39951   6.088  17.357   3.560 -0.2062  0.1084 -0.1267
24058W        W39952   6.817  15.959  12.425 -0.1356 -0.4543 -0.1368
24059W        W39953  11.743   7.517  12.333 -0.1623 -0.1496 -0.0664
24060W        W39954  12.232   9.329  11.835  0.2308 -0.1728 -0.1866
24061W        W39955   1.481   0.960   2.372  0.0064  0.0136  0.1155
24062W        W39956  17.585  14.217   5.353  0.0571  0.1074 -0.2877
24063W        W39957  14.022   0.668   3.315  0.1449  0.3731 -0.1232
24064W        W39958  11.457   4.169  11.062  0.0705  0.1771  0.3766
24065W        W39959  16.334  11.017  12.721  0.0445 -0.0295 -0.1682
24066W        W39960   4.286   3.688   2.434  0.1069 -0.3921 -0.1256
24067W        W39961   2.694  13.455   4.311 -0.2317 -0.1574  0.2529
24068W        W39962   0.238   6.676   3.713 -0.0980 -0.2502 -0.1032
24069W        W39963  16.280   8.639  14.152 -0.0097  0.1698  0.1497
24070W        W39964  17.535   6.639   4.615 -0.4765 -0.0540 -0.2422
24071W        W39965  14.243   4.616  11.872  0.3995  0.0155 -0.3177
24072W        W39966  15.509  10.946   4.077 -0.2797 -0.1983  0.0597
24073W        W39967   4.203   5.924  15.661 -0.0267  0.0297  0.1237
24074W        W39968  14.586  17.123  11.808  0.1166 -0.0100 -0.0885
24075W        W39969  11.167  10.712  10.957 -0.0115  0.0313 -0.0217
24076W        W39970   0.392   9.860  13.936 -0.2936  0.3083 -0.0724
24077W        W39971   7.259   1.177  15.269 -0.0963 -0.2000 -0.0161
24078W        W39972   7.224  17.808  12.087  0.0931 -0.1642  0.1290
24079W        W39973  15.127  16.493  12.395  0.0012  0.0495 -0.3020
24080W        W39974   7.188   3.694   0.254 -0.1776 -0.2529 -0.0825
24081W        W39975   2.289   1.816  10.827 -0.1626  0.3954  0.0228
24082W        W39976   3.143  17.529   5.437 -0.0203  0.0021 -0.0201
24083W        W39977  11.792   8.387   0.778 -0.2046 -0.0559  0.0906
24084W        W39978   9.320  13.861  11.582  0.1306  0.0993  0.0094
24085W        W39979   1.181  14.708   4.179 -0.3285 -0.2212 -0.2882
24086W        W39980   7.676   2.802   2.333 -0.1626 -0.0709 -0.0225
24087W        W39981  13.531   9.370  12.934 -0.1711 -0.1083 -0.0602
24088W        W39982   7.801  15.913   4.180  0.0284 -0.0248 -0.2862
24089W        W39983  12.664  12.012  15.096  0.2394 -0.0758 -0.1880
24090W        W39984  13.404   6.679  12.430  0.1631 -0.2953  0.1016
24091W        W39985   4.126  11.616  15.752  0.1490 -0.3036 -0.4875
24092W        W39986  17.733  14.366   0.963 -0.1173 -0.0721 -0.0962
24093W        W39987  14.325   7.951   4.260 -0.1289  0.2778  0.0531
24094W        W39988   2.164   9.376   3.334  0.0651  0.2356 -0.0290
24095W        W39989  13.001  15.747  14.177 -0.1256 -0.4247  0.1141
24096W        W39990   2.366   5.284  11.743 -0.2884  0.0150 -0.0531
24097W        W39991  16.584   2.439  14.128 -0.0640  0.3868  0.3019
24098W        W39992   6.272  10.563  14.570  0.1355 -0.2929 -0.0583
24099W        W39993   7.509  17.419   5.741 -0.0703  0.1332  0.1536
24100W        W39994   4.680  16.099  15.463  0.1560  0.5406 -0.1383
24101W        W39995   7.571  10.157  12.288 -0.1236 -0.0913 -0.2388
24102W        W39996   1.951  10.149   5.949 -0.0379  0.1113  0.1225
24103W        W39997  17.883  12.012  14.486  0.0225  0.0692 -0.0794
24104W        W39998   5.549   9.679   1.431 -0.0273 -0.3036 -0.1372
24105W        W39999   4.236   9.248  15.926 -0.0527 -0.0134  0.4408
24106W        W40000  16.084  16.907  14.980  0.4189  0.2572 -0.3990
24107W        W40001   6.588   4.631   1.287  0.1270  0.1372 -0.0320
24108W        W40002  11.440   1.367   1.232 -0.2051 -0.1322 -0.2227
24109W        W40003   1.653  13.469  16.177 -0.4272 -0.0617 -0.1920
24110W        W40004   9.633  12.887  14.687  0.2453 -0.1436  0.0541
24111W        W40005  14.406  10.336   4.062  0.2898  0.0904 -0.5764
24112W        W40006   1.378   7.143   2.967  0.2482 -0.2599  0.3574
24113W        W40007   8.675   8.578   1.789 -0.0640  0.4159  0.0739
24114W        W40008  10.612   0.487  14.370 -0.0461  0.0183 -0.0272
24115W        W40009  13.924  10.680   0.178 -0.1796 -0.1092  0.2335
24116W        W40010  15.615   8.633   6.315  0.4294  0.0123 -0.1307
24117W        W40011   6.438   0.525  14.360  0.3494  0.1269 -0.2221
24118W        W40012   6.004   0.808   0.494  0.2761  0.6285  0.3458
24119W        W40013   0.430   5.589   5.741  0.0313  0.1893 -0.3578
24120W        W40014   3.897   9.770   2.415  0.2131 -0.2402 -0.0056
24121W        W40015  16.187   8.439  14.634  0.0325 -0.0064 -0.3641
24122W        W40016  16.215   5.584   5.423 -0.0184  0.3426  0.1150
24123W        W40017  16.105  16.177  16.335 -0.0200 -0.2645 -0.0670
24124W        W40018   6.546   4.148   4.748 -0.0833  0.3076 -0.2199
24125W        W40019  12.936   7.176   3.770  0.3934 -0.2606  0.0192
24126W        W40020  10.381  17.090  13.338 -0.0213 -0.1943 -0.0477
24127W        W40021   8.757  11.234   0.157  0.0619  0.0623  0.2725
24128W        W40022   0.652   0.799  16.262 -0.2525 -0.1563 -0.3558
24129W        W40023   1.305  17.876   1.901 -0.0950  0.0129 -0.2049
24130W        W40024   5.355  11.493  13.566 -0.2490 -0.0481  0.0382
24131W        W40025  13.812  14.105   3.288  0.2022 -0.1973  0.1557
24132W        W40026   7.745   4.204  10.727  0.1903  0.3435  0.2726
24133W        W40027   4.747  11.245  12.071 -0.2839  0.0490 -0.1495
24134W        W40028   1.817   8.545   4.455 -0.2607  0.1496 -0.1204
24135W        W40029   2.970  16.853   4.340  0.0151  0.0994 -0.0676
24136W        W40030   3.083  14.902  12.983  0.2012  0.0269  0.1728
24137W        W40031  14.580  15.674  13.745  0.1538 -0.0193 -0.1715
24138W        W40032   2.574   4.654   2.101  0.1626  0.0039  0.2497
24139W        W40033  17.467   0.652   3.826  0.1697 -0.1024  0.0493
24140W        W40034   8.878  16.381  15.453 -0.0616  0.1854 -0.1356
24141W        W40035   3.689   1.528   2.129 -0.0703  0.1425  0.1254
24142W        W40036   4.387  15.982  11.547 -0.1895 -0.2398 -0.0226
24143W        W40037   9.869  17.386   5.661  0.0801 -0.3568  0.0991
24144W        W40038  12.795   1.705  12.820 -0.0166  0.0105 -0.1197
24145W        W40039  15.209   7.325  13.841 -0.0624 -0.4051  0.1175
24146W        W40040  14.481   5.486  11.338  0.0617  0.0262 -0.2107
24147W        W40041   2.707   6.700   1.401 -0.0520 -0.0365  0.0795
24148W        W40042  14.099   2.420   5.959 -0.1667 -0.3681 -0.1356
24149W        W40043   0.047  12.033  11.765  0.1792  0.1208  0.0835
24150W        W40044   9.100  16.014   1.704  0.0364 -0.0239 -0.0203
24151W        W40045   4.795   6.402   3.647  0.0104  0.0294 -0.1269
24152W        W40046   5.166   4.645  14.532  0.1255  0.0888 -0.1344
24153W        W40047  13.493   5.591   1.042 -0.0398  0.1689  0.2097
24154W        W40048   8.143  11.276  13.027  0.2799  0.1610  0.0971
24155W        W40049   8.461  11.164  14.801  0.0450 -0.0796 -0.3639
24156W        W40050  14.234  12.497  12.471  0.0977  0.1064  0.1307
24157W        W40051  16.883  11.437  13.636 -0.0639 -0.0539  0.0174
24158W        W40052   9.886   7.006   0.613  0.1424 -0.0748  0.2713
24159W        W40053   2.786  10.332  14.341  0.0623  0.0203 -0.1427
24160W        W40054   0.618   9.417   0.170 -0.1330 -0.0266 -0.1099
24161W        W40055   8.206  15.624   0.938  0.1283  0.2760 -0.0010
24162W        W40056   7.031   7.348   1.740  0.2010 -0.0246  0.0837
24163W        W40057   6.901   3.917  16.108 -0.2754  0.2336  0.3694
24164W        W40058   1.672   9.252   3.276 -0.1814  0.0450  0.0240
24165W        W40059   6.263  14.711  11.879 -0.2731 -0.2334  0.1262
24166W        W40060  17.093  10.009   3.660 -0.0033 -0.2027 -0.0782
24167W        W40061   2.443  14.325  13.370  0.0210  0.0636  0.1360
24168W        W40062   1.543   7.033   4.896 -0.1248  0.0976  0.0726
24169W        W40063  14.527  15.834   4.250  0.0623 -0.0590 -0.0685
24170W        W40064   4.378  15.522  12.883 -0.1996  0.3198 -0.0065
24171W        W40065   5.913  16.099  14.978  0.0876  0.2161  0.2479
24172W        W40066   5.526  11.168   5.367 -0.0332  0.1876  0.0971
24173W        W40067   2.103   7.432  15.605  0.0152 -0.3623  0.0559
24174W        W40068   2.100   6.798  14.356  0.3032  0.4003  0.3538
24175W        W40069   7.763  17.601  15.548 -0.1426 -0.2465 -0.2014
24176W        W40070  14.120  10.609   5.178  0.1131 -0.1955  0.0606
24177W        W40071  18.125   7.688   1.987 -0.2252 -0.2127 -0.1624
24178W        W40072  12.745   1.659   1.941  0.1359 -0.3327  0.0298
24179W        W40073   3.335  16.203   1.922 -0.3179  0.1056 -0.2003
24180W        W40074   1.425   1.841  12.497  0.5374  0.1672 -0.0930
24181W        W40075   6.312   1.033   4.113 -0.0642  0.0073 -0.1802
24182W        W40076   3.377  15.414   5.362 -0.3396 -0.0643 -0.3649
24183W        W40077   2.842  11.127  11.615  0.5032 -0.1218  0.1273
24184W        W40078  15.004  13.911  11.671  0.1026 -0.2996  0.3533
24185W        W40079   0.421  11.338   6.765 -0.1495  0.0920 -0.1381
24186W        W40080  11.695   0.238  11.960 -0.0098  0.0074 -0.0022
24187W        W40081  15.303   8.614  12.026 -0.1577  0.1181  0.1996
24188W        W40082   8.401  10.860  15.511  0.0133 -0.0493 -0.2359
24189W        W40083   0.811   1.800   0.190  0.2226 -0.0798 -0.0606
24190W        W40084  17.209   0.296   5.094  0.1349  0.0196  0.0794
24191W        W40085   7.391   0.801   4.275 -0.3306  0.0629 -0.0494
24192W        W40086   8.583  12.568   5.344  0.1653 -0.0169 -0.2713
24193W        W40087  17.959   4.265  15.768 -0.0038 -0.0021  0.0188
24194W        W40088   4.824   0.247   4.466 -0.3153  0.2190  0.0403
24195W        W40089  13.551  13.798  14.638 -0.3011 -0.1086 -0.0970
24196W        W40090   0.360   0.498   1.324 -0.0803  0.1941 -0.1918
24197W        W40091  15.015   9.130  14.212 -0.2051  0.2168  0.1556
24198W        W40092  13.842  16.396   5.304  0.2302  0.0651 -0.1208
24199W        W40093   1.136   1.181  13.546 -0.3951  0.0684  0.3275
24200W        W40094   1.365  17.523   2.953 -0.3786 -0.0343 -0.0112
24201W        W40095   2.060   1.696  11.282 -0.1256 -0.2290  0.1284
24202W        W40096   5.480  11.979   3.168 -0.1369 -0.0001 -0.4472
24203W        W40097  11.587  10.650  15.205  0.3046 -0.0933  0.0627
24204W        W40098  15.591   6.661   5.423 -0.2746 -0.1054  0.0615
24205W        W40099   2.893   3.386   5.495 -0.0213  0.2200 -0.0904
24206W        W40100  17.033   5.439  14.966 -0.2807 -0.0666  0.2447
24207W        W40101  17.232   7.605  11.441  0.2799 -0.3270  0.1002
24208W        W40102   9.680   6.498  12.572 -0.1692 -0.2165  0.4112
24209W        W40103   0.383   0.662   4.571 -0.3150  0.4085  0.0177
24210W        W40104  14.184   3.655  12.561  0.0873  0.2115  0.0390
24211W        W40105  15.465  13.790  15.794  0.2361 -0.0761 -0.3802
24212W        W40106  10.210   4.804  12.958  0.0748  0.1339  0.0388
24213W        W40107   9.368  13.709   4.538 -0.1141 -0.2111  0.0737
24214W        W40108   5.296   8.748   3.124  0.2297 -0.0867  0.2563
24215W        W40109  15.717   0.586   2.779 -0.2422 -0.1758  0.0794
24216W        W40110   7.776   1.182   0.556  0.2768 -0.1700  0.2523
24217W        W40111  11.953  14.234  15.591  0.0941 -0.0932  0.2269
24218W        W40112   7.677   2.952  11.084  0.3909 -0.2372  0.0538
24219W        W40113   8.026  10.881  11.412 -0.1126  0.0381  0.0146
24220W        W40114  15.230   2.228   1.449 -0.0605  0.0964  0.1325
24221W        W40115  16.425   1.881   3.242  0.2090 -0.4334 -0.0472
24222W        W40116   8.080   2.171  14.837  0.1244  0.2784 -0.0546
24223W        W40117  13.098   0.235   3.248 -0.1308 -0.1008  0.0352
24224W        W40118   1.295   1.843   2.291  0.0842  0.1720  0.2239
24225W        W40119  17.327  13.157  13.976  0.0962  0.0862 -0.1583
24226W        W40120   0.446   4.425   3.734 -0.0067  0.0853 -0.2445
24227W        W40121  11.345  15.437   4.596  0.1137  0.1318 -0.2745
24228W        W40122  17.949  15.261  12.601 -0.1869 -0.0219  0.1597
24229W        W40123   8.039  13.745   2.300  0.1588 -0.2750  0.1184
24230W        W40124   8.331  10.233  11.929 -0.2599 -0.1218  0.1437
24231W        W40125   1.934  13.147   5.565 -0.1835 -0.1139  0.0662
24232W        W40126  12.256   0.478   0.314 -0.0677  0.0831 -0.1233
24233W        W40127  11.257  12.475  13.104  0.1792 -0.0018 -0.0338
24234W        W40128  10.850   5.353  11.790 -0.1120  0.1530  0.1504
24235W        W40129   7.602  16.091  10.424  0.0973 -0.2216 -0.2206
24236W        W40130   5.481  13.034  13.158  0.1211 -0.1097  0.2666
24237W        W40131   6.434  16.037  15.673  0.2550 -0.1679  0.1561
24238W        W40132   8.339   7.355  11.095  0.3130 -0.0008  0.2606
24239W        W40133   2.774   7.439   1.265  0.3790  0.2094  0.0956
24240W        W40134  17.815  13.086  13.239 -0.1120  0.1955  0.4210
24241W        W40135   8.042  14.856  13.804  0.0741 -0.0935  0.2241
24242W        W40136   3.253  13.581   5.680  0.2659 -0.1366 -0.2823
24243W        W40137   8.908   2.056  14.829 -0.1496  0.1044  0.3508
24244W        W40138   7.483  14.352   2.599  0.1695 -0.0483  0.3750
24245W        W40139   2.500   7.163  12.225  0.0325  0.3339  0.0164
24246W        W40140  10.594  15.001   5.318  0.1367 -0.0990 -0.1559
24247W        W40141  16.099  15.328  16.185  0.0029 -0.0112  0.0526
24248W        W40142   3.687  15.444   4.260 -0.2028 -0.3261 -0.0538
24249W        W40143  12.414   3.099  15.217  0.1854  0.4310  0.2742
24250W        W40144   5.185  18.171   4.349 -0.4335 -0.0867 -0.0420
24251W        W40145  13.200  10.197  14.560 -0.2161  0.0804 -0.3105
24252W        W40146   7.003   9.793  15.500 -0.4497 -0.3646  0.0004
24253W        W40147  13.906  11.703   1.235 -0.1608 -0.0661  0.0321
24254W        W40148   6.500   0.182   2.130 -0.1309 -0.2236 -0.2042
24255W        W40149   8.345   3.291  15.195 -0.4297 -0.0823  0.0633
24256W        W40150  13.930   3.806   2.764 -0.2775 -0.0730  0.2927
24257W        W40151   8.711   8.184  13.926 -0.1113 -0.1669  0.4781
24258W        W40152   2.243  15.676   2.978  0.0528  0.1212  0.1312
24259W        W40153  15.236  18.188   0.964  0.2308 -0.1095 -0.1374
24260W        W40154  11.804   0.132   3.897 -0.1649  0.2014  0.0584
24261W        W40155   1.567   3.630   1.782 -0.0061 -0.2059  0.0256
24262W        W40156   4.833  11.188  14.924 -0.0086 -0.0129 -0.1776
24263W        W40157   7.511   0.897  15.657  0.1183  0.1091 -0.0138
24264W        W40158   6.111  15.414   1.494  0.1249 -0.1440  0.0235
24265W        W40159   3.096   6.146   1.327  0.0905 -0.0463 -0.2339
24266W        W40160   3.292   5.530  15.211 -0.1345  0.0571  0.0323
24267W        W40161   8.242   0.249   1.210 -0.0100  0.0782 -0.2446
24268W        W40162  11.915   5.631   3.053 -0.0743  0.1354  0.1934
24269W        W40163  12.519   4.712   2.107  0.3559  0.1280  0.3796
24270W        W40164   5.344   9.490   5.294 -0.1219  0.2730  0.0349
24271W        W40165   9.440  12.207  12.192 -0.2320 -0.0625  0.1760
24272W        W40166   2.870   7.578  15.495 -0.0204 -0.2699  0.1361
24273W        W40167   6.329  13.069  13.437 -0.0148 -0.1480  0.1121
24274W        W40168  15.950   6.397   4.339  0.0708 -0.1263 -0.0271
24275W        W40169   4.400  12.669   3.851  0.0147 -0.1310 -0.0907
24276W        W40170   9.164  12.791   1.744  0.1789  0.0319  0.0041
24277W        W40171   1.413  12.194   2.097  0.2384 -0.2759 -0.1848
24278W        W40172   9.924   1.180  14.983 -0.1026  0.1894  0.0231
24279W        W40173   7.088   6.919  12.353  0.0205  0.0854  0.0542
24280W        W40174   6.340  11.452   3.950  0.1865  0.2358  0.0396
24281W        W40175  14.743  16.495   3.569  0.2438  0.1230 -0.1438
24282W        W40176   0.871   5.875  13.132 -0.0702 -0.6568 -0.0149
24283W        W40177   6.200   1.013   2.378 -0.0490 -0.2598  0.2454
24284W        W40178  10.406  13.797   2.095 -0.2590 -0.1499  0.3234
24285W        W40179   7.781   8.567   3.601 -0.0047  0.0026 -0.0982
24286W        W40180   5.815   8.823   0.516 -0.4954 -0.0979 -0.0832
24287W        W40181   0.562   6.700  13.013  0.1183 -0.0938 -0.4207
24288W        W40182  16.946  17.321  14.826  0.1344  0.0215 -0.0865
24289W        W40183  17.060   2.645  11.843  0.1929 -0.4879  0.0380
24290W        W40184   5.548   1.736  13.031  0.0296  0.0663  0.1971
24291W        W40185  16.023   7.648   5.564 -0.0152 -0.0669  0.0112
24292W        W40186   7.905  16.705  11.553  0.1500 -0.0140 -0.0840
24293W        W40187   2.900  17.687   0.024  0.0902 -0.0517 -0.3062
24294W        W40188   2.509   2.134  12.576 -0.0816  0.1668  0.5456
24295W        W40189   0.380  14.355   4.433  0.0383 -0.2691  0.0927
24296W        W40190  13.049  17.433  11.653 -0.0238 -0.2648 -0.3056
24297W        W40191   2.270   7.366   2.420  0.0097 -0.3082 -0.2169
24298W        W40192  13.656   7.205  13.175  0.1044 -0.0808  0.1659
24299W        W40193  17.430  16.595   5.611  0.3328 -0.0771 -0.2322
24300W        W40194  17.238   6.880  11.981  0.1069  0.1503 -0.2909
24301W        W40195  16.348  12.203   1.504  0.2466 -0.0737 -0.0857
24302W        W40196   9.762   9.262   1.380  0.2395 -0.3935  0.2950
24303W        W40197   1.689   8.965  14.329 -0.0439 -0.4091  0.0990
24304W        W40198  12.564  12.005   1.393 -0.3754  0.4340  0.1761
24305W        W40199  13.495   9.535  15.958 -0.3445  0.0537 -0.3095
24306W        W40200   0.945   3.948   3.303 -0.0311  0.3807  0.2439
24307W        W40201   0.784  16.853  16.448  0.2232 -0.2709 -0.5533
24308W        W40202  10.068  12.877   2.882 -0.1495  0.0987  0.0726
24309W        W40203  10.916   8.066   0.416 -0.2192 -0.0133 -0.0478
24310W        W40204  12.223  17.256   6.023 -0.0796  0.2336  0.3404
24311W        W40205  12.768   7.496   2.960  0.1751 -0.2852  0.2135
24312W        W40206   5.230  16.971   5.465 -0.0995 -0.0924  0.1150
24313W        W40207   0.360   4.099   1.502 -0.0883  0.3496  0.3697
24314W        W40208   7.866   8.526  14.548 -0.2320 -0.0820 -0.3588
24315W        W40209  14.536  10.751  14.644  0.1040  0.0381 -0.2851
24316W        W40210  16.771  16.395  15.847 -0.4720  0.3618  0.2029
24317W        W40211   1.769   9.456   2.140 -0.0750  0.0565 -0.3424
24318W        W40212   9.743   8.092  10.726  0.1103 -0.0645 -0.0061
24319W        W40213   4.315   3.989  11.789 -0.2806  0.1967 -0.3563
24320W        W40214   7.440  16.546  12.921 -0.0305 -0.1713  0.0320
24321W        W40215   5.335  13.488   3.374  0.0733  0.0118 -0.1383
24322W        W40216  11.105  10.037  15.875  0.2151  0.0212 -0.0056
24323W        W40217   8.177  13.809  13.586 -0.0474  0.0063 -0.1483
24324W        W40218  11.417  13.764   0.416  0.2328  0.0441  0.1747
24325W        W40219  15.655   9.277  16.175 -0.3718 -0.2343 -0.0156
24326W        W40220  10.134   1.090   6.277  0.0116 -0.1968  0.0265
24327W        W40221   4.580   5.596  12.558  0.4343 -0.1115  0.2120
24328W        W40222  13.299   4.480   1.673 -0.0187  0.1663 -0.3419
24329W        W40223  12.478  16.269  12.439  0.2068  0.0670  0.0151
24330W        W40224   5.722  15.099   2.296  0.3908  0.1531  0.1952
24331W        W40225  11.876  17.368   3.696 -0.1819 -0.3949 -0.3524
24332W        W40226  12.201   3.217  13.996  0.3228  0.1869  0.1408
24333W        W40227   1.207   6.146   0.196  0.0549 -0.0128 -0.2552
24334W        W40228   7.654  15.394   2.484 -0.2975  0.0853  0.2898
24335W        W40229  13.583   9.872  14.668  0.0909  0.0952 -0.0041
24336W        W40230  16.654  15.458   3.123 -0.1988  0.0691 -0.3667
24337W        W40231   5.192  15.053  13.832 -0.2662  0.1749 -0.1754
24338W        W40232   7.982  17.803  14.325 -0.0911  0.3182  0.0134
24339W        W40233   9.769   3.100   5.560 -0.3625 -0.0596  0.2107
24340W        W40234   0.260  15.244   4.144  0.1059  0.1477 -0.2530
24341W        W40235   4.104  10.455   1.008 -0.1250 -0.1572  0.2297
24342W        W40236   4.619  16.845  14.044  0.0007 -0.0038 -0.2333
24343W        W40237   3.644   4.074  10.655  0.1514  0.0520 -0.1499
24344W        W40238   6.230   9.711   2.607  0.0049 -0.0786  0.1733
24345W        W40239   0.491  12.169   1.714  0.1121  0.2142  0.2176
24346W        W40240  15.924   7.601  14.552  0.0402 -0.3854  0.1843
24347W        W40241   7.949  12.976   0.544  0.3063 -0.4897 -0.1613
24348W        W40242   6.960   4.558   1.693 -0.3086 -0.0894  0.0064
24349W        W40243   7.308   3.129   2.478  0.0485 -0.0295  0.0114
24350W        W40244  16.280   4.533   0.389  0.2152  0.4169  0.1515
24351W        W40245   3.250   9.552  11.723 -0.2995  0.2703 -0.1115
24352W        W40246  14.024  17.206  15.733  0.3023  0.1396  0.0004
24353W        W40247   2.435   3.072   4.549 -0.0076  0.1428 -0.0228
24354W        W40248   9.234   3.658   4.487  0.0233 -0.0313 -0.1029
24355W        W40249  10.915  11.504   4.451 -0.0196  0.2320  0.3341
24356W        W40250   5.869  15.574  14.982 -0.2807  0.2231  0.0901
24357W        W40251   6.139  10.813  11.165 -0.0814 -0.1120  0.1051
24358W        W40252   2.088   6.966   1.668  0.0157 -0.4182 -0.2718
24359W        W40253   6.783  10.694   1.888  0.3082 -0.0582 -0.2223
24360W        W40254   5.862   4.663   0.843  0.2670  0.0473 -0.1481
24361W        W40255   9.193   8.553   0.841 -0.2688 -0.2093 -0.2440
24362W        W40256   5.504   0.074  11.040 -0.0762 -0.3419  0.0087
24363W        W40257  14.678   6.371   3.298  0.1321  0.2962 -0.2355
24364W        W40258   2.465  11.899   1.381  0.2323 -0.0669  0.1739
24365W        W40259  15.395   0.146   4.300 -0.1493 -0.1560  0.2144
24366W        W40260   4.025   7.155  16.376 -0.0913  0.0233  0.0401
24367W        W40261  16.255  17.017   0.648  0.0134 -0.1588 -0.2059
24368W        W40262  16.084  12.562   5.518 -0.0960 -0.1961  0.2218
24369W        W40263   8.986  11.714   2.151  0.0064  0.0013 -0.4657
24370W        W40264   2.557   6.120  13.715 -0.0142 -0.4792 -0.0868
24371W        W40265  14.149   1.728   3.051 -0.0966 -0.1055 -0.1505
24372W        W40266   5.172   5.692  15.535 -0.0259  0.1236  0.2024
24373W        W40267  15.595  15.952   5.631 -0.3249  0.1490  0.1189
24374W        W40268   1.801  14.598   1.101 -0.0229  0.0361  0.0046
24375W        W40269   4.879  13.732   4.792 -0.0917 -0.1413 -0.3006
24376W        W40270  12.247   3.553   4.488 -0.1134 -0.2596 -0.1173
24377W        W40271  13.580   3.624  14.857 -0.0903  0.2401  0.0939
24378W        W40272  14.173  13.267  13.133 -0.1096  0.0470 -0.0822
24379W        W40273   7.976  16.505   1.388 -0.0201 -0.1891  0.2607
24380W        W40274  11.793   0.268   4.866  0.1741 -0.0625 -0.0987
24381W        W40275  14.744   8.841   5.895  0.1031  0.0233  0.0647
24382W        W40276   8.174   1.672   3.392  0.0189  0.0413 -0.2590
24383W        W40277   6.058   4.588   2.616  0.0317  0.0122  0.1484
24384W        W40278  10.251   3.086   5.218  0.0635  0.0712 -0.2259
24385W        W40279   3.563  12.245  14.455  0.2531 -0.2415  0.1239
24386W        W40280   2.198  13.015  11.328  0.0509  0.0557  0.0014
24387W        W40281   3.206  12.338  11.601  0.4341  0.1735 -0.0282
24388W        W40282   4.469   3.137  16.116 -0.1437 -0.0819 -0.0484
24389W        W40283  13.627   7.142  12.057  0.3834 -0.3438 -0.2071
24390W        W40284  16.796   7.772  11.175  0.0389 -0.0751 -0.0557
24391W        W40285   4.733   6.544   1.517 -0.1393 -0.0067  0.2008
24392W        W40286   9.184  13.283   1.735  0.4127 -0.1452  0.1773
24393W        W40287   1.677  11.724  12.763 -0.3852  0.1750 -0.3211
24394W        W40288   7.182   8.641   4.950 -0.0807 -0.0984 -0.0157
24395W        W40289   5.630  11.582   1.854  0.0154 -0.2265 -0.1664
24396W        W40290   4.171   4.550  13.917 -0.1708  0.0432 -0.1847
24397W        W40291   1.101  13.026   4.038 -0.0092 -0.0759 -0.0174
24398W        W40292  15.763  12.155  15.919 -0.1636  0.3914  0.1860
24399W        W40293   8.929   4.305   0.395  0.0043  0.1873  0.2421
24400W        W40294  13.087   7.691  14.630 -0.1337  0.0241 -0.0420
24401W        W40295  10.099   5.659   4.640  0.4384  0.2309 -0.4743
24402W        W40296   2.419  16.420   1.349  0.1217 -0.0701  0.2847
24403W        W40297   7.408  15.785  13.175 -0.0620  0.0776  0.0614
24404W        W40298  16.730  17.678  13.580  0.1973 -0.0059 -0.2162
24405W        W40299   3.222   8.287   0.721 -0.0824 -0.2195  0.0277
24406W        W40300   2.588  15.905   2.543 -0.3154  0.0692  0.2577
24407W        W40301  18.140  13.916   2.923 -0.0781 -0.1934 -0.3104
24408W        W40302   4.302   9.600   2.129 -0.3151 -0.1712 -0.2406
24409W        W40303   8.667   0.893  14.622 -0.2411 -0.0474  0.2709
24410W        W40304  16.777  18.042  12.012 -0.1842 -0.1059 -0.0458
24411W        W40305   9.823   0.530   5.462 -0.2911  0.1605 -0.0281
24412W        W40306   2.616   7.363  14.519  0.1572 -0.0508 -0.4658
24413W        W40307   3.619   0.957   2.270  0.0324 -0.1808  0.2124
24414W        W40308  17.600  11.853   0.219  0.0882  0.2684 -0.0834
24415W        W40309   5.676   3.331  10.293  0.0905 -0.1226  0.0321
24416W        W40310  10.947   2.258  12.510 -0.0075  0.0254 -0.0881
24417W        W40311   1.468   0.227  16.129  0.1301 -0.0460 -0.0556
24418W        W40312   4.825  13.358  15.119 -0.2758 -0.2450  0.2992
24419W        W40313   1.265  11.866  14.595 -0.4143  0.1068  0.0470
24420W        W40314   9.012   3.130  12.749 -0.0732  0.2184  0.1013
24421W        W40315  10.005  10.637  13.945 -0.1516  0.1542 -0.1459
24422W        W40316  11.275   0.579  11.856 -0.1203 -0.1703 -0.1410
24423W        W40317  11.768   4.402  14.587 -0.2788 -0.0684  0.0709
24424W        W40318  10.539  17.308  15.364  0.2703 -0.4461  0.1926
24425W        W40319   2.819  14.240   1.801  0.0760 -0.2984  0.0146
24426W        W40320   4.526  13.314   4.449 -0.1653  0.2504  0.2397
24427W        W40321   4.954  14.378  13.194  0.0435  0.1283  0.5469
24428W        W40322   8.491  14.468  12.473 -0.0327  0.1399  0.2583
24429W        W40323  17.475  15.120   5.130  0.0597  0.0045 -0.2509
24430W        W40324  16.631   3.910   1.950 -0.2754  0.0114 -0.0128
24431W        W40325   0.227  11.308   0.143  0.2646  0.0844  0.2125
24432W        W40326  18.227  14.424   3.069  0.0636 -0.6020 -0.3188
24433W        W40327  14.919   0.434   3.307  0.1962 -0.4171  0.3773
24434W        W40328   1.734   4.152  13.296  0.1529 -0.2732  0.0540
24435W        W40329   0.008  17.903   0.171  0.1450 -0.1681  0.0761
24436W        W40330  14.946  13.669  12.223 -0.0221 -0.1123 -0.0294
24437W        W40331   7.130   1.216  10.851 -0.0733 -0.0890 -0.0156
24438W        W40332   9.479  15.248  15.043  0.3856  0.1731  0.3241
24439W        W40333  15.505   3.808   5.268 -0.1426  0.1258  0.2492
24440W        W40334   2.626   3.546  15.545  0.1250  0.1456  0.4075
24441W        W40335   7.606   7.030   0.951 -0.0062  0.0399  0.0344
24442W        W40336   1.786   1.402  12.047  0.0611 -0.3726 -0.2027
24443W        W40337   1.605  12.265  15.966 -0.1018 -0.1785 -0.3137
24444W        W40338   0.874  14.318   4.195  0.2456 -0.0998 -0.1058
24445W        W40339   3.500   6.994  14.339  0.2991 -0.0050 -0.0124
24446W        W40340  13.240   0.770   1.816 -0.1086 -0.0702 -0.1527
24447W        W40341   4.626  11.771  15.873  0.1790  0.1643 -0.1544
24448W        W40342   1.986   4.102  15.048  0.0806 -0.2373 -0.0301
24449W        W40343  15.520   0.187   1.902 -0.4145  0.0760 -0.1775
24450W        W40344  15.966   2.370  16.012 -0.0197 -0.0794  0.0284
24451W        W40345  16.848   7.806  14.084 -0.3085  0.1133  0.1370
24452W        W40346   4.406  10.537   2.198 -0.0469  0.3380  0.0521
24453W        W40347  13.270   7.416   1.806 -0.0234  0.2874  0.0864
24454W        W40348   2.019  14.114   2.496 -0.0901 -0.1553  0.2060
24455W        W40349   9.723   1.068  13.160  0.0814  0.2169 -0.1771
24456W        W40350  12.885   2.019  11.850  0.2232 -0.0621 -0.0910
24457W        W40351  15.123   1.873  15.134  0.0232  0.1230 -0.0582
24458W        W40352   2.942  14.201  13.444 -0.1347  0.1629 -0.3804
24459W        W40353  12.574   6.278  14.281 -0.0752 -0.0716  0.0103
24460W        W40354  13.532  12.857   4.940  0.0203  0.2784 -0.3359
24461W        W40355   4.061  15.306   1.864 -0.0253 -0.0008  0.4094
24462W        W40356  10.641  12.880   4.553  0.1457  0.0271 -0.4571
24463W        W40357   3.393   9.385   4.297  0.1587 -0.0934  0.2235
24464W        W40358  12.862  18.116  13.768  0.1140 -0.3527  0.1909
24465W        W40359   7.236  10.388   1.107  0.2668 -0.0003 -0.2982
24466W        W40360  10.538   7.855  11.883  0.0066 -0.1013 -0.1556
24467W        W40361  18.049  16.636  11.703 -0.0544  0.2249 -0.0355
24468W        W40362  11.308   3.584   5.549 -0.0410 -0.2056  0.0473
24469W        W40363  16.312  15.384  11.666 -0.1426 -0.0908  0.2337
24470W        W40364  14.534  11.173   6.044  0.0734 -0.1147  0.1229
24471W        W40365   5.664  15.628  11.433  0.1499  0.1899 -0.0169
24472W        W40366  14.918   3.847  16.444 -0.0014  0.1533 -0.1973
24473W        W40367  11.127  13.883  13.106 -0.1169  0.0229  0.1983
24474W        W40368  13.652  14.412  14.470  0.0021  0.1558  0.1580
24475W        W40369  13.618   3.592  12.702  0.2676  0.1715  0.1760
24476W        W40370  18.054   2.494   1.832 -0.0765  0.0595  0.1788
24477W        W40371   8.340   8.274  14.524 -0.0721  0.0400  0.2763
24478W        W40372   5.268  14.524   0.683 -0.0459  0.2871 -0.1184
24479W        W40373  14.524   1.177   0.778 -0.1716  0.2995 -0.0830
24480W        W40374   7.721  13.363  15.649 -0.3197  0.0738 -0.0991
24481W        W40375   1.022   3.193   3.859 -0.2028  0.1416 -0.1318
24482W        W40376   6.048   6.161  13.831 -0.2192  0.2199 -0.1776
24483W        W40377   5.443  18.034   0.065  0.1101 -0.0118 -0.1226
24484W        W40378   2.239  10.353  14.537  0.1699  0.1540  0.2013
24485W        W40379   1.570   8.552   5.816 -0.1910 -0.1853 -0.0805
24486W        W40380   8.828  14.906   2.124  0.2508 -0.2626 -0.1526
24487W        W40381   6.353  10.942  10.600 -0.3647 -0.1107 -0.1010
24488W        W40382  13.510   0.856   0.609  0.0751 -0.2274  0.1581
24489W        W40383   4.603   3.453   4.719 -0.1142  0.0712 -0.2263
24490W        W40384  15.223   3.150  12.850  0.1298 -0.1296  0.3407
24491W        W40385  18.018   6.738   0.890 -0.0460 -0.0088 -0.0390
24492W        W40386  13.885   0.529   4.246 -0.0324 -0.0838 -0.0541
24493W        W40387  14.656  17.303  12.873 -0.0507  0.3271  0.0971
24494W        W40388  13.172   6.917   4.655 -0.0454  0.2827 -0.2023
24495W        W40389  13.992  18.169  12.407  0.3526  0.2762 -0.3004
24496W        W40390  12.301  12.232  13.559  0.2900  0.0126 -0.1393
24497W        W40391   4.237  10.883   1.235 -0.3348  0.2218  0.0787
24498W        W40392   4.869  12.723  12.347  0.4205  0.0325  0.0774
24499W        W40393   8.658   4.788   3.518 -0.0192 -0.1135  0.0704
24500W        W40394   9.463   8.266  13.497  0.0978 -0.0248 -0.0100
24501W        W40395   5.566   2.270   2.558 -0.1131  0.3706 -0.0612
24502W        W40396   0.553  12.587  13.878 -0.4392  0.0146 -0.0542
24503W        W40397  16.901  17.431  15.358  0.1631 -0.1163 -0.0178
24504W        W40398   9.760  12.527   0.512  0.0489 -0.1816  0.1727
24505W        W40399   1.638   8.096   3.200  0.1698 -0.0327  0.0063
24506W        W40400   9.337  14.108  12.370  0.0882 -0.3232  0.1917
24507W        W40401  14.731   9.370   5.611  0.0115 -0.1420  0.0415
24508W        W40402  14.877   3.588  14.726  0.0990  0.1069  0.0098
24509W        W40403   3.554   3.040   2.329 -0.1866  0.1864 -0.1877
24510W        W40404  16.597   6.401  15.678  0.0167  0.0050  0.2170
24511W        W40405  18.127   9.894   4.481 -0.1104 -0.2376 -0.1540
24512W        W40406   0.427  15.466  15.156 -0.1690 -0.0159  0.2447
24513W        W40407  16.167  13.426  13.551  0.0288  0.0228 -0.0134
24514W        W40408   8.198   4.081  15.722  0.0454  0.2975 -0.1632
24515W        W40409   6.485   6.029   4.731 -0.2667  0.0421 -0.1073
24516W        W40410   2.913   8.821  11.365 -0.0100 -0.2595  0.0427
24517W        W40411   1.038   1.857   1.762  0.4062 -0.0242 -0.2519
24518W        W40412  13.391  16.710   4.408  0.2021  0.0928  0.0133
24519W        W40413  12.287  13.291   0.040 -0.0162  0.1146 -0.4253
24520W        W40414  14.113  11.150   5.244 -0.2573  0.1411  0.2354
24521W        W40415  14.758  11.625  14.749  0.1369  0.0474  0.0578
24522W        W40416   0.254   8.175  15.657  0.3095 -0.4185 -0.0482
24523W        W40417  16.530   9.571  12.978  0.2879 -0.1289  0.0844
24524W        W40418  11.515  14.099   2.532 -0.0867 -0.2909 -0.1675
24525W        W40419  10.087  16.198   3.393 -0.0702  0.4156  0.2476
24526W        W40420   9.726   9.027   4.420 -0.3391  0.0457 -0.0866
24527W        W40421   3.623   9.963  14.272 -0.2274 -0.1400 -0.2776
24528W        W40422   9.231   8.855   1.764 -0.0590 -0.2257 -0.2328
24529W        W40423   9.249   4.808  13.018 -0.1137  0.0017  0.3497
24530W        W40424   4.250   7.001   9.960 -0.2032  0.0120 -0.0185
24531W        W40425  15.280   7.411   2.691  0.0318 -0.0266 -0.1878
24532W        W40426  11.438   4.051   2.708 -0.0944  0.0408  0.2398
24533W        W40427   2.083   8.767   0.298 -0.2157 -0.3042 -0.1188
24534W        W40428  16.014   0.284   0.802  0.0081  0.0531 -0.3345
24535W        W40429   2.788   7.195  13.351 -0.0175 -0.0338  0.0475
24536W        W40430  11.558  10.771   5.312  0.2478 -0.2891  0.1028
24537W        W40431   4.432  18.112   3.768  0.1554  0.0195  0.0889
24538W        W40432  11.999   3.527   3.111  0.0729  0.1737  0.0543
24539W        W40433  16.748  12.927   2.309 -0.3606  0.0580  0.0879
24540W        W40434  16.903   0.263   1.846  0.0831  0.1733 -0.0342
24541W        W40435   0.568   7.897   2.407  0.0568  0.2375  0.0118
24542W        W40436  12.127  16.896  14.357  0.0634  0.2189 -0.2503
24543W        W40437  18.162   1.488  12.272 -0.2276 -0.2655 -0.0093
24544W        W40438  10.611   4.217  14.980  0.1659  0.1711 -0.1889
24545W        W40439   4.377   0.040  15.085 -0.3555  0.0665 -0.0692
24546W        W40440   9.852  12.204   3.542  0.1953  0.0293 -0.0593
24547W        W40441   2.713  15.953   1.177 -0.1545 -0.1206  0.2888
24548W        W40442   7.082  12.002   0.482  0.1373  0.2071  0.0659
24549W        W40443  11.667  16.443  10.748  0.3579  0.0352 -0.1349
24550W        W40444   1.321   3.064  11.491 -0.2324 -0.0277  0.0882
24551W        W40445  16.689   0.025  13.084  0.0418  0.1042  0.1129
24552W        W40446   1.187  17.936  10.473  0.0765 -0.1570 -0.2419
24553W        W40447   7.215   1.642   2.290  0.2187  0.2004 -0.1498
24554W        W40448   6.138   6.964   0.324  0.1252  0.1830 -0.1562
24555W        W40449   2.751   6.940  16.189  0.2938  0.3181 -0.0593
24556W        W40450   6.488   3.053  10.298 -0.1154 -0.0304 -0.2260
24557W        W40451   4.068  14.828  12.026 -0.1697 -0.2186 -0.3554
24558W        W40452   1.919  12.520   3.866  0.3602 -0.0595  0.2171
24559W        W40453  13.014  15.416  14.908 -0.2995  0.1414  0.1627
24560W        W40454  10.592   6.556   4.861  0.0488  0.3899  0.0450
24561W        W40455  13.650  13.858   1.558 -0.2769 -0.2647 -0.0635
24562W        W40456   5.058   1.466   2.270 -0.1041  0.1426  0.0269
24563W        W40457  15.785   8.756  16.322 -0.2403 -0.0316 -0.2901
24564W        W40458   4.710   7.685   4.606  0.0449 -0.0176  0.0604
24565W        W40459  13.726  17.582  15.671 -0.1500  0.0648  0.2254
24566W        W40460  10.888   0.077   1.137  0.1393  0.0258  0.3246
24567W        W40461  16.681   7.595   3.391 -0.1489  0.1131  0.2530
24568W        W40462  14.594  13.260   3.815  0.2175  0.2991 -0.3652
24569W        W40463  12.305   8.287   0.009  0.0523 -0.0455 -0.1705
24570W        W40464   5.609  15.036  14.745 -0.1303 -0.0598  0.1689
24571W        W40465   0.183   9.190  15.072 -0.3024  0.0216 -0.1925
24572W        W40466   2.783   6.174   5.223 -0.3054  0.0380  0.2139
24573W        W40467   2.781  16.634   3.560  0.1993 -0.1303 -0.0769
24574W        W40468   8.300  18.233  15.091  0.0877 -0.0998 -0.0759
24575W        W40469  13.519  11.327  15.280 -0.0733 -0.0376  0.0152
24576W        W40470   7.291   1.678   0.132 -0.0816 -0.0477 -0.2425
24577W        W40471   5.807   8.581  14.408 -0.1584  0.1381 -0.0737
24578W        W40472  13.555   4.185   2.082 -0.0658 -0.1162 -0.4302
24579W        W40473   3.908   9.275  11.399 -0.1291  0.4553 -0.2766
24580W        W40474   7.866   2.610  16.012 -0.1380  0.2099 -0.1849
24581W        W40475   1.585  10.716  14.086 -0.1337  0.2536 -0.3989
24582W        W40476   8.321  15.395   5.468  0.1352  0.1584  0.0119
24583W        W40477   8.155  15.045  15.710  0.0929 -0.0102  0.2583
24584W        W40478  14.069  16.389  16.400 -0.0359  0.0392 -0.1841
24585W        W40479   8.074   5.577  15.505  0.1911 -0.2535  0.3416
24586W        W40480   2.591  10.395  13.254  0.1814 -0.2597 -0.1583
24587W        W40481  17.140  12.169  14.308 -0.5050  0.1428 -0.0929
24588W        W40482  14.847   3.911   2.890  0.1296 -0.2372  0.0163
24589W        W40483   4.663   4.382  13.948 -0.0565 -0.0342 -0.0413
24590W        W40484  15.518  15.879  12.227  0.1437  0.1767 -0.3208
24591W        W40485   1.347  14.127  12.842  0.2248 -0.2001  0.3081
24592W        W40486  13.066  13.022   2.713  0.1149 -0.0600  0.3535
24593W        W40487  13.685  16.338   0.213 -0.4061 -0.3283 -0.2062
24594W        W40488   3.850   0.326   5.395  0.1877  0.0194 -0.4918
24595W        W40489  10.911   4.342   3.854 -0.0037  0.0700 -0.2769
24596W        W40490  17.047   5.605  11.491 -0.0357  0.1246 -0.1370
24597W        W40491   3.471  14.275  15.932 -0.0947 -0.1271  0.1040
24598W        W40492   4.742  14.312   5.674 -0.2220  0.0843 -0.1284
24599W        W40493  12.326   2.158  15.308  0.1360  0.0102  0.0840
24600W        W40494   6.753  17.637  15.065  0.0369  0.1688  0.1865
24601W        W40495  12.454  13.046  13.031 -0.0351  0.1073 -0.0383
24602W        W40496   1.238  13.876   4.718  0.2086 -0.1757  0.3552
24603W        W40497  11.173   9.962   2.419 -0.1753 -0.1788 -0.1912
24604W        W40498  16.208  12.526   0.742  0.1203  0.0389 -0.0114
24605W        W40499  12.472   1.744  16.419 -0.0744 -0.1843  0.2079
24606W        W40500   7.660   1.063  13.674 -0.2985  0.2794 -0.1070
24607W        W40501   3.033   0.182   4.904  0.1238 -0.0045 -0.0494
24608W        W40502   8.742   6.205   3.465  0.1721 -0.1081  0.3508
24609W        W40503  16.482  17.664  14.071 -0.0996 -0.0469 -0.1924
24610W        W40504  10.788   6.220   1.180  0.0440  0.3061  0.0367
24611W        W40505   5.700  11.271  12.120 -0.3408  0.2189 -0.0717
24612W        W40506   2.129  14.411   5.086 -0.2842 -0.1658 -0.0996
24613W        W40507   0.877   5.819  11.609  0.2574  0.0142  0.3435
24614W        W40508  10.081   4.046   0.857 -0.2666  0.0509 -0.1654
24615W        W40509  18.005  10.948   5.419  0.1436  0.1362 -0.0960
24616W        W40510  17.834  15.866  15.431  0.2305 -0.1195 -0.0632
24617W        W40511  15.893  17.217   3.563  0.3875 -0.1640  0.0329
24618W        W40512  13.528   5.345  14.403 -0.1800 -0.1074  0.0228
24619W        W40513  16.191   0.194   3.315  0.0716 -0.0848  0.1355
24620W        W40514   4.570  11.369  12.901 -0.0463  0.3644  0.3240
24621W        W40515   5.346  15.409   3.652 -0.0406 -0.1481  0.1410
24622W        W40516   0.321   4.613  16.145  0.1595 -0.0497  0.5219
24623W        W40517  12.124   5.688   0.045  0.0346 -0.2641  0.0881
24624W        W40518  17.868  10.280   3.236 -0.0966  0.1096 -0.1198
24625W        W40519  13.702  15.323  12.119 -0.1435  0.2829 -0.1971
24626W        W40520   0.701   4.499  14.574 -0.1401  0.2223  0.0203
24627W        W40521   7.764   2.758  11.574 -0.0609 -0.0516  0.1751
24628W        W40522  14.783   9.455   3.568  0.2213 -0.1868 -0.1623
24629W        W40523  12.193   1.819   3.671  0.1158 -0.0924 -0.3481
24630W        W40524   0.214  15.545  14.708 -0.1589 -0.0785  0.3458
24631W        W40525  12.078   8.676  13.515 -0.1605  0.1984 -0.1501
24632W        W40526   9.550  14.113  13.949  0.1495 -0.3057  0.2623
24633W        W40527   4.662   3.631   2.825  0.2612  0.5579 -0.1946
24634W        W40528   2.974   9.110   4.665 -0.3140 -0.2004  0.1815
24635W        W40529  16.797  16.381   3.802  0.1330  0.1531 -0.0561
24636W        W40530   1.950  11.203   0.896  0.3716  0.0893 -0.2199
24637W        W40531  12.772   2.042   0.315 -0.0259  0.1928  0.0054
24638W        W40532  16.296  12.405  15.210  0.4367  0.1605  0.2846
24639W        W40533   1.990   2.298   1.225  0.0736 -0.3013 -0.1528
24640W        W40534   1.999   1.207   4.062  0.3300  0.0037  0.2708
24641W        W40535   4.082   8.180  13.384 -0.0604  0.1244  0.0163
24642W        W40536   4.632   2.464   0.151 -0.3959 -0.1659  0.3315
24643W        W40537  17.385   0.255   4.173 -0.0063  0.1913 -0.1403
24644W        W40538  10.435  10.375  14.041  0.0804  0.1084 -0.1690
24645W        W40539   4.949  13.478  13.784 -0.0609  0.1332 -0.0721
24646W        W40540   1.621   6.244   3.106 -0.2003 -0.4212 -0.0333
24647W        W40541  13.447  15.639   2.554  0.2934 -0.2971 -0.1059
24648W        W40542  18.076   9.229   1.606  0.0896 -0.0586 -0.2491
24649W        W40543  13.991   5.135   0.340 -0.1071  0.1821  0.1525
24650W        W40544   2.313   7.883  13.686 -0.2699  0.0418 -0.2423
24651W        W40545   8.771   3.241  12.268  0.0556 -0.2101  0.0647
24652W        W40546   2.678  14.877  12.162 -0.1166 -0.3640  0.1017
24653W        W40547  16.951   3.525  13.798  0.3617  0.0510  0.0309
24654W        W40548  15.501  17.290   5.124 -0.2145  0.1377  0.0305
24655W        W40549   8.852  16.969  12.805 -0.1473 -0.1250  0.1268
24656W        W40550   9.836   2.665  12.306 -0.6565 -0.2335 -0.2026
24657W        W40551   9.871  14.539  15.558  0.2327  0.0763  0.0043
24658W        W40552  18.229  17.921  12.174  0.3476 -0.2835 -0.0378
24659W        W40553   4.874  17.744  13.129  0.1260  0.1827 -0.0719
24660W        W40554  11.461   5.934   3.327  0.1862  0.2295  0.1799
24661W        W40555   2.794   1.589  10.877  0.0898  0.2510 -0.1207
24662W        W40556   1.234   8.834  13.920 -0.0664  0.2734  0.0816
24663W        W40557  18.050   2.562   5.577 -0.2226 -0.2375  0.0143
24664W        W40558   8.764  13.101   5.781 -0.0647  0.1371 -0.0890
24665W        W40559  15.448   5.427   4.783 -0.2307  0.2990  0.1778
24666W        W40560   2.988   7.162   4.714  0.1328 -0.1385  0.1603
24667W        W40561   2.328   5.664   5.461 -0.1048 -0.2672 -0.0761
24668W        W40562   0.952   6.412  13.332 -0.2936 -0.1106  0.0971
24669W        W40563  15.183  16.442  11.410 -0.3136  0.0855 -0.1103
24670W        W40564   5.719   8.060  12.326 -0.1517 -0.2729  0.3296
24671W        W40565   0.658   0.496   5.822 -0.1722  0.1069  0.1529
24672W        W40566   1.724   4.093  14.056 -0.1457  0.2264 -0.1159
24673W        W40567  12.181   1.539   1.579 -0.1469  0.0440 -0.0299
24674W        W40568   4.257  10.340  14.771 -0.0836 -0.0944 -0.0159
24675W        W40569  17.601   2.814  12.572  0.5039  0.1475  0.3099
24676W        W40570   6.807  13.424  14.283 -0.1682 -0.0781  0.3108
24677W        W40571  15.811  10.706  15.415  0.0070 -0.0478  0.1188
24678W        W40572  12.555   1.178   1.982 -0.3089 -0.0934 -0.0237
24679W        W40573  15.435  15.988  14.047 -0.1590 -0.1860  0.0136
24680W        W40574   9.976  16.454  15.423  0.1717  0.1265 -0.0975
24681W        W40575  10.168   0.275  13.069  0.4913 -0.1381 -0.0068
24682W        W40576  11.306  18.180   2.180  0.1955  0.0079 -0.1423
24683W        W40577  11.806  13.536   0.017 -0.1082 -0.3178  0.0949
24684W        W40578  10.529   7.210  16.459  0.1921  0.1429  0.0837
24685W        W40579   2.348  13.912  12.968 -0.0517  0.0135 -0.1229
24686W        W40580   7.594  11.848   5.578  0.3438 -0.3014  0.0405
24687W        W40581   8.830   8.192  10.984 -0.0507 -0.1785  0.0590
24688W        W40582   3.705   6.422  13.907  0.1793  0.2472  0.0363
24689W        W40583   6.931   0.692  14.418 -0.2290 -0.1773  0.1399
24690W        W40584   0.683   5.122   4.382 -0.2257 -0.0429  0.3983
24691W        W40585   4.626  15.760  13.312  0.0439 -0.3289  0.2000
24692W        W40586  10.293  17.535   2.785  0.2003 -0.1211  0.3084
24693W        W40587   8.884  15.650  14.459  0.2575 -0.1940 -0.1235
24694W        W40588   4.364  14.985   4.740  0.2453  0.3490 -0.0197
24695W        W40589   1.309   9.765   1.352  0.0584  0.4468  0.3379
24696W        W40590  13.931  16.399  11.606  0.2634  0.2307 -0.1259
24697W        W40591   0.688  16.368  14.022  0.4794 -0.0454  0.3994
24698W        W40592   9.760   3.952  14.683  0.0960 -0.0786 -0.0593
24699W        W40593   8.290   8.139   4.044  0.0544 -0.2958 -0.2190
24700W        W40594  16.868  14.282  15.060  0.1275 -0.2410 -0.0458
24701W        W40595  15.167   3.454  10.933 -0.2718  0.1564  0.3984
24702W        W40596  14.666   3.915  12.596  0.2020 -0.1852 -0.0774
24703W        W40597  11.300  12.188   2.984 -0.4724 -0.1690 -0.2305
24704W        W40598  16.305   0.988  14.385 -0.4406 -0.1575  0.1926
24705W        W40599   7.759   8.317  14.074 -0.0964 -0.0663  0.1516
24706W        W40600  11.385  15.280   5.411 -0.0370  0.0807  0.1584
24707W        W40601  16.058   1.781   2.840  0.1140  0.1436 -0.1310
24708W        W40602  14.946  10.449   2.056  0.2280 -0.2154  0.2285
24709W        W40603   4.968   0.567   3.178 -0.1380  0.0394  0.2304
24710W        W40604  11.267   8.468  11.373 -0.0671 -0.1121  0.2121
24711W        W40605   8.049   9.535   2.795  0.0040 -0.2589 -0.4880
24712W        W40606   3.749   5.340   3.345  0.0313 -0.3192 -0.2442
24713W        W40607   8.974   4.883  14.801  0.1513  0.0327 -0.0514
24714W        W40608  10.676  12.976  14.063  0.0798 -0.2174 -0.1577
24715W        W40609   1.176  14.569  11.831 -0.1106 -0.1102  0.0898
24716W        W40610   2.048  14.135  15.530  0.0517  0.2644 -0.2811
24717W        W40611  16.471  13.069  12.366 -0.1522  0.2172 -0.2054
24718W        W40612   9.472   0.682   0.256  0.0521  0.0906  0.0445
24719W        W40613   1.322   2.536  13.233  0.0566  0.1223  0.0228
24720W        W40614   8.034   7.794   1.230 -0.2602  0.2521 -0.1229
24721W        W40615   0.046  16.743   1.370  0.2489 -0.0509  0.0561
24722W        W40616   3.492   6.654  11.707  0.0605  0.1017 -0.1261
24723W        W40617   4.030   3.788  14.997  0.0595 -0.3557  0.1337
24724W        W40618   9.480   1.641   4.856  0.0779  0.1035  0.0106
24725W        W40619   1.724  15.168  15.182 -0.3463 -0.1508  0.2919
24726W        W40620   5.971  17.101   1.699  0.0820  0.1519 -0.2628
24727W        W40621  13.088   7.340  13.387 -0.0112  0.1317 -0.0171
24728W        W40622   5.394   2.974  12.491  0.0861 -0.1367 -0.1927
24729W        W40623  17.341  11.379   3.253 -0.1186 -0.2939 -0.0168
24730W        W40624   7.693   4.488  13.939  0.0429  0.1237  0.1858
24731W        W40625   7.606   1.891   0.509 -0.1126  0.2246 -0.0049
24732W        W40626   5.608   6.623   3.440 -0.2315 -0.2011  0.1007
24733W        W40627   7.430   9.892   2.088  0.0791  0.0694  0.1481
24734W        W40628   2.673   1.189   1.376 -0.0376  0.1524  0.1043
24735W        W40629   1.031  13.329   1.666  0.2296 -0.0413  0.1236
24736W        W40630  12.290  11.406   3.344 -0.1882  0.1849  0.0663
24737W        W40631   4.831  12.186   0.489 -0.3711  0.0458 -0.0894
24738W        W40632   5.655   7.259  10.953 -0.3505  0.0772  0.2333
24739W        W40633   3.026  17.930   2.362 -0.1920 -0.1866  0.0640
24740W        W40634   2.098  17.904   5.508 -0.0579  0.2910  0.0380
24741W        W40635   2.333   3.863  15.256 -0.1289  0.0051  0.1222
24742W        W40636  15.428   9.905  12.845  0.0284  0.0681 -0.0043
24743W        W40637   3.670   6.914  13.870 -0.1621 -0.1168  0.1750
24744W        W40638   2.323  17.494   4.426 -0.3770 -0.2022  0.3230
24745W        W40639  16.418   1.409  12.088 -0.3725  0.2999 -0.0608
24746W        W40640  10.113   2.964   0.359  0.0755 -0.1816 -0.0720
24747W        W40641  10.060  15.835  14.896  0.2327 -0.1274  0.0029
24748W        W40642  10.463  12.381   0.970  0.0878 -0.0704 -0.1423
24749W        W40643   0.479  11.327  11.790 -0.0546  0.1322 -0.2658
24750W        W40644   2.963  10.664  12.521 -0.0081 -0.2238 -0.2429
24751W        W40645   8.572   7.434  12.714 -0.0559 -0.0158  0.4116
24752W        W40646   5.199   2.946   2.685  0.0747  0.0387 -0.0178
24753W        W40647  10.537  11.582   4.187  0.2201  0.1416  0.0606
24754W        W40648  17.499  12.764   1.077 -0.0289 -0.1202  0.3030
24755W        W40649  17.016   6.697   0.788 -0.3339  0.1340 -0.2886
24756W        W40650   6.709   2.530   1.460 -0.0381 -0.2591  0.3377
24757W        W40651  10.695  15.837  13.834  0.1946  0.4330  0.0248
24758W        W40652  15.616   4.584   4.110 -0.2403  0.0897 -0.2453
24759W        W40653  16.790  12.286   0.225 -0.1324  0.2141 -0.2265
24760W        W40654  16.975  10.162   6.460  0.2088 -0.2002  0.1674
24761W        W40655  10.374   6.046  14.700 -0.3701 -0.0424 -0.1054
24762W        W40656  12.631   8.965  11.525 -0.0760 -0.0189 -0.2459
24763W        W40657   7.868   0.389   5.057 -0.0785 -0.2030  0.0561
24764W        W40658  14.063   6.999   2.979  0.0482  0.1125 -0.0536
24765W        W40659  13.672   9.331  14.720  0.0942 -0.0028  0.0354
24766W        W40660  17.506   0.950   0.774 -0.1134 -0.0804 -0.3951
24767W        W40661  15.980  10.761   4.152  0.1943 -0.3695  0.4890
24768W        W40662   5.944  13.750  16.098 -0.0315  0.1713  0.1412
24769W        W40663   1.999   3.023   3.914  0.0694 -0.1222 -0.2351
24770W        W40664   4.749   6.789   0.750 -0.0246 -0.2376  0.2827
24771W        W40665   9.811   5.672   2.606  0.1660 -0.2424 -0.0618
24772W        W40666   8.046  11.719  12.668 -0.0712 -0.4966 -0.0218
24773W        W40667   7.001  12.413   1.178  0.1322  0.0976  0.2034
24774W        W40668   0.667   1.428  11.829  0.1959  0.0058  0.1741
24775W        W40669  10.594   7.142   3.332  0.4100  0.0943 -0.2289
24776W        W40670  13.613   7.418   4.374 -0.0062 -0.1090  0.0470
24777W        W40671  12.477   6.728   2.150 -0.0814  0.1976  0.0011
24778W        W40672   0.502  15.523   3.423  0.0889  0.0748  0.2925
24779W        W40673   7.858   6.931   1.377 -0.2671 -0.0485  0.1819
24780W        W40674   5.384  10.272   6.312 -0.1977  0.2415 -0.0238
24781W        W40675   6.603   7.440   5.850  0.1280 -0.3537  0.2561
24782W        W40676  17.394   9.745  14.957 -0.1005 -0.1136 -0.0477
24783W        W40677   8.571   1.389  13.827  0.0152  0.0032 -0.0137
24784W        W40678   1.176   4.013  13.143 -0.1682 -0.0166  0.3768
24785W        W40679   2.506   7.099  14.114  0.0744  0.1907  0.1990
24786W        W40680   3.885   4.101  15.448 -0.0111  0.2739 -0.0790
24787W        W40681  13.211   8.995  11.505 -0.0689 -0.0860  0.3299
24788W        W40682  12.444  12.418   0.489  0.1041  0.3136 -0.4294
24789W        W40683  16.553  14.385   4.893  0.3801  0.0312  0.0042
24790W        W40684  14.255   9.153  11.468  0.1356  0.1034  0.0630
24791W        W40685   0.957   4.076  14.570 -0.1588  0.1296 -0.0232
24792W        W40686   4.543   7.562   4.012 -0.0631 -0.4402  0.0670
24793W        W40687   3.665   5.176  14.129 -0.0490  0.0724 -0.0174
24794W        W40688  16.543   9.781   5.836  0.0168  0.4940  0.0679
24795W        W40689  13.033  10.725  11.924 -0.2302 -0.0764 -0.0979
24796W        W40690  17.111   2.730   3.795  0.1327 -0.0263  0.1487
24797W        W40691  11.817   8.238   3.427  0.1116 -0.1451  0.0349
24798W        W40692   3.759  15.796  14.489  0.0643 -0.1832  0.0387
24799W        W40693  16.097  17.426   0.190  0.3462  0.2843  0.1733
24800W        W40694   4.604  10.433  12.340 -0.0194 -0.2220 -0.2586
24801W        W40695  10.378   6.022  14.089 -0.0592 -0.1743 -0.2262
24802W        W40696   3.800   6.439   2.576  0.0358  0.1140  0.0431
24803W        W40697   7.735  17.193  15.934  0.1248  0.1897  0.1259
24804W        W40698  11.923   4.245  10.779 -0.0394  0.1198 -0.1383
24805W        W40699   4.357   4.460  11.578  0.0565  0.4748 -0.4454
24806W        W40700  10.030   8.357  12.417  0.2132 -0.1440 -0.1138
24807W        W40701   9.000  11.352  13.224  0.0029 -0.0136  0.2856
24808W        W40702   0.186   0.603   5.655 -0.1227 -0.1201  0.2817
24809W        W40703  17.265  15.257  12.516  0.3333  0.1075  0.2667
24810W        W40704  12.768   6.685  14.557  0.0190  0.2000  0.2541
24811W        W40705  15.489   1.593  13.456 -0.0378  0.2916  0.1597
24812W        W40706   8.712  16.601   0.689 -0.1812  0.2322  0.0320
24813W        W40707   1.048   5.709   1.987 -0.0654  0.3681 -0.0689
24814W        W40708   5.596   8.148  14.311  0.3064 -0.0059 -0.0847
24815W        W40709  16.800   5.919  15.635  0.1112 -0.1811 -0.1744
24816W        W40710  17.787   0.216   2.884 -0.3740  0.0688 -0.1724
24817W        W40711  15.051  16.394   4.777 -0.2263  0.5488  0.3683
24818W        W40712   3.146   7.094  11.409 -0.2563  0.5238  0.0019
24819W        W40713   6.760   3.287   3.590  0.0891 -0.1920 -0.1732
24820W        W40714  12.936   3.343   2.136  0.2747 -0.2353 -0.0429
24821W        W40715   4.798   5.547   2.442 -0.0755 -0.0466 -0.1190
24822W        W40716   0.286  15.382   2.692 -0.0054 -0.0829 -0.2178
24823W        W40717  12.702  10.027   3.492 -0.3696  0.1473 -0.3585
24824W        W40718  14.491  15.163  15.868  0.3156 -0.3745 -0.0114
24825W        W40719  16.899  14.051  14.643  0.0187  0.0564  0.0154
24826W        W40720   3.060  16.051  13.139 -0.2830  0.2030 -0.0345
24827W        W40721  17.500   6.023   1.961 -0.2669 -0.0046 -0.0386
24828W        W40722  15.239   4.997  11.412  0.0323  0.0203 -0.0282
24829W        W40723   2.106   5.536   0.271  0.1623 -0.1700 -0.0120
24830W        W40724  17.137  13.090  15.422 -0.2524 -0.2686 -0.0410
24831W        W40725  16.823   8.076  15.145 -0.0671  0.2069  0.1084
24832W        W40726  14.396   8.779  13.543 -0.2379 -0.1070  0.1623
24833W        W40727  17.150  17.105   4.266 -0.0925 -0.0565 -0.3258
24834W        W40728   0.289  13.866  11.694  0.1750  0.3124  0.1083
24835W        W40729  10.961  15.626  13.453  0.0325  0.2044 -0.2000
24836W        W40730   9.952   6.031  11.800 -0.0319  0.1483  0.1442
24837W        W40731  11.097   8.473   0.987  0.2037  0.1384 -0.0273
24838W        W40732  16.531   6.591  15.192  0.1304  0.0740  0.1253
24839W        W40733   2.895  12.990  16.067  0.0958  0.0533  0.1189
24840W        W40734   6.213   5.668  15.205 -0.1395 -0.0430  0.4374
24841W        W40735   7.262  16.905  13.858  0.3064 -0.1586 -0.0822
24842W        W40736  12.961   4.440   3.104 -0.1531 -0.0615 -0.0482
24843W        W40737   4.751   4.565   1.513 -0.0619 -0.1643 -0.0851
24844W        W40738  17.150   5.819   2.278 -0.1522  0.2201  0.1373
24845W        W40739   5.224   9.344   2.273  0.1910 -0.0578  0.0455
24846W        W40740  11.557   6.292  12.659  0.0774  0.0680 -0.1702
24847W        W40741   3.765   3.346  11.123 -0.0124  0.0793 -0.1600
24848W        W40742  10.749  11.048  12.616  0.0251 -0.2378  0.0275
24849W        W40743  11.787   9.218  11.603  0.2007  0.2130  0.3437
24850W        W40744   3.472  11.940  16.171 -0.0166 -0.1594 -0.0982
24851W        W40745   9.305  16.934   1.871 -0.0369  0.5511 -0.0282
24852W        W40746  10.432  15.393  13.708 -0.0082  0.3210 -0.0641
24853W        W40747   3.818  14.140   5.891  0.1965 -0.1852  0.1980
24854W        W40748  18.166   9.059   4.799  0.0494 -0.2137 -0.0489
24855W        W40749  12.894   8.290   1.288 -0.0671 -0.2360 -0.0175
24856W        W40750  10.214  13.789   4.352  0.0075 -0.3675  0.1630
24857W        W40751  15.065   4.269  16.065  0.0152  0.1545  0.1329
24858W        W40752  15.863  17.938  13.232  0.0508  0.3162  0.0372
24859W        W40753   5.395   8.022   5.448 -0.0167  0.4470  0.1631
24860W        W40754   1.679  18.232  15.714 -0.4311  0.0152  0.1356
24861W        W40755  15.055   8.787   5.087 -0.1622  0.2206 -0.1312
24862W        W40756  14.893  11.122  13.882 -0.0591 -0.0762  0.5329
24863W        W40757   2.729  10.329  12.107  0.1846 -0.0959  0.0794
24864W        W40758  15.837  16.798  15.775  0.2399  0.0570 -0.0525
24865W        W40759   3.053   8.902  15.400  0.0809  0.0510 -0.0872
24866W        W40760   8.759  11.271  15.659  0.3246 -0.0537 -0.0680
24867W        W40761   8.605  13.898   2.435  0.1249  0.1399 -0.2000
24868W        W40762   0.925  16.109   4.817  0.0988  0.2834 -0.0149
24869W        W40763  17.895   0.750  11.245 -0.1958 -0.0486  0.2338
24870W        W40764   1.550  18.095   3.858 -0.1065 -0.4524  0.2804
24871W        W40765  12.170   1.350  14.283  0.0353 -0.2345  0.0081
24872W        W40766   4.605   2.100  13.667  0.3380 -0.1887 -0.0090
24873W        W40767   2.365  16.992   3.687 -0.1283 -0.0825  0.1732
24874W        W40768   8.996   4.635  10.694 -0.1390 -0.5482 -0.0855
24875W        W40769   4.840   2.198   4.241  0.0557  0.0203 -0.0011
24876W        W40770   2.754   9.800  14.410 -0.2267 -0.1351 -0.3193
24877W        W40771   7.473   4.264   5.167 -0.2656 -0.2169 -0.1000
24878W        W40772   3.506   1.533   3.722 -0.1137 -0.2718 -0.0944
24879W        W40773   6.165   7.538  14.289 -0.0697  0.0667  0.2535
24880W        W40774  16.979  16.357   5.851 -0.1156 -0.2627 -0.1771
24881W        W40775   8.303   0.886   3.857 -0.1856  0.3116  0.1241
24882W        W40776  14.127   9.748   5.982  0.1673 -0.2187  0.0315
24883W        W40777  16.515   5.362   1.513 -0.2675  0.3036  0.1189
24884W        W40778  12.823  14.098  13.978 -0.3328 -0.3266 -0.2031
24885W        W40779   7.082   3.100   1.502 -0.0918 -0.0465 -0.1586
24886W        W40780   9.986   4.509   5.385 -0.1062 -0.3895 -0.0355
24887W        W40781   4.926   4.315  15.706 -0.0423  0.0856  0.1819
24888W        W40782   4.120  16.164   3.379 -0.0411  0.3492 -0.0304
24889W        W40783   4.576   7.444   9.905  0.0282  0.1333 -0.1850
24890W        W40784  10.365  13.425   1.539  0.3045  0.2358  0.1208
24891W        W40785   7.242   3.929   2.508 -0.2748 -0.2436  0.1571
24892W        W40786   8.269  11.484   4.802 -0.0072 -0.1496 -0.0525
24893W        W40787  11.714   2.113   2.088  0.2928  0.1586  0.0618
24894W        W40788  12.301  16.806  13.492 -0.2414 -0.5814 -0.0061
24895W        W40789   2.502  16.631   4.000 -0.0206 -0.0332  0.0329
24896W        W40790  13.375  13.542   4.452 -0.0494  0.1125 -0.1428
24897W        W40791   5.625  11.988  15.698 -0.1189 -0.1532 -0.0133
24898W        W40792  17.611  11.670  13.043 -0.0913  0.1091 -0.1177
24899W        W40793  17.039  11.668  14.108 -0.0778  0.0427  0.2377
24900W        W40794   4.096  12.315   5.088 -0.1515 -0.1429 -0.4442
24901W        W40795   6.157   0.642   2.754 -0.1134  0.2017 -0.0444
24902W        W40796  11.362  17.274   4.339 -0.1642  0.2291 -0.0392
24903W        W40797  16.565   4.609   4.069  0.1104 -0.1907 -0.1734
24904W        W40798   8.127   3.896   1.951  0.1030  0.0766  0.0589
24905W        W40799   1.179  15.602  12.266 -0.2827  0.1703  0.0148
24906W        W40800  10.188   6.725   4.650  0.2384  0.1531 -0.2209
24907W        W40801  15.116  11.968  14.593  0.2699 -0.0390  0.0135
24908W        W40802   0.506   3.345   4.506  0.2182  0.0875  0.0121
24909W        W40803   7.664   5.862  10.695  0.1456  0.1469 -0.0633
24910W        W40804   2.558   0.803   1.707 -0.1756 -0.0985 -0.0387
24911W        W40805  16.630   8.916   4.322 -0.0277  0.0666  0.0355
24912W        W40806  14.864   3.090   1.864 -0.0500 -0.2215 -0.0366
24913W        W40807   9.467   6.335   4.294 -0.1183  0.3158  0.0211
24914W        W40808  15.759  16.183   3.794 -0.1815 -0.2030 -0.0788
24915W        W40809  12.528   7.405   5.312 -0.3428  0.0552  0.2075
24916W        W40810  11.688  14.310   1.106 -0.1212 -0.2011  0.3607
24917W        W40811   2.560   9.425  14.754 -0.0227 -0.1311 -0.0939
24918W        W40812  10.700  12.767   0.690  0.0043  0.0641  0.0922
24919W        W40813   8.811  13.263  11.363  0.2040 -0.1364  0.0546
24920W        W40814  14.618   1.483   2.353  0.1463  0.0942 -0.0643
24921W        W40815  10.876  11.881  11.931 -0.1743  0.2061 -0.3637
24922W        W40816   5.758  14.044  11.093  0.2188  0.2385 -0.0976
24923W        W40817  16.494  16.545   1.534  0.5733  0.2264  0.0106
24924W        W40818  15.747  15.780  16.453 -0.3622  0.1494 -0.1537
24925W        W40819   0.397   8.456   1.555 -0.0638  0.0105  0.0050
24926W        W40820  15.387   7.699   3.098 -0.1208  0.0208 -0.2761
24927W        W40821   3.860   5.187  14.598  0.0494  0.0639  0.0128
24928W        W40822  15.156   7.988   5.639  0.0999  0.0266 -0.0639
24929W        W40823   5.994  11.925   3.131  0.0276  0.2629  0.2219
24930W        W40824  12.152   1.046  12.373 -0.3074  0.1415 -0.0544
24931W        W40825   7.330  11.552   0.349 -0.2790  0.1350  0.1632
24932W        W40826   2.071   2.089   4.119 -0.0846 -0.1324  0.1757
24933W        W40827   5.253  17.994   2.617  0.0620  0.0525  0.1472
24934W        W40828   1.010   2.609   2.858  0.0295  0.0025  0.3388
24935W        W40829   6.857   2.762  11.824  0.1703  0.2498 -0.1617
24936W        W40830  10.245  14.889   2.034  0.2439 -0.2369 -0.1908
24937W        W40831  15.725   7.275  11.852  0.1880 -0.4078 -0.1074
24938W        W40832  11.873  16.478  11.329 -0.1711  0.1667 -0.0968
24939W        W40833  10.077  11.104   3.641 -0.0865 -0.1436 -0.0468
24940W        W40834   3.350  16.467   2.475  0.0658 -0.1109  0.2604
24941W        W40835  15.625   8.064  12.269  0.0684 -0.3184 -0.1213
24942W        W40836  17.552   3.327   1.248 -0.0117 -0.2062  0.1207
24943W        W40837   3.788   3.964  12.531 -0.2808  0.0374  0.1200
24944W        W40838  16.688  11.640   6.048  0.0778 -0.0026 -0.2138
24945W        W40839  12.623  16.308   4.242 -0.3828  0.0223  0.2069
24946W        W40840  14.086   6.011  15.099 -0.0281 -0.3799  0.0045
24947W        W40841   3.471   6.410  13.135  0.1096  0.0737  0.1487
24948W        W40842   2.685   7.227   3.278  0.0539 -0.0819  0.1403
24949W        W40843   7.516   2.947  16.200  0.2277 -0.1545  0.0055
24950W        W40844   9.123   8.854  14.521 -0.0482 -0.1434 -0.4895
24951W        W40845  10.606   3.472  12.965 -0.2731 -0.1195  0.0054
24952W        W40846  17.437  12.686  15.666 -0.3385  0.0221  0.2727
24953W        W40847   8.142   8.327  15.488 -0.0295  0.0143 -0.1661
24954W        W40848  15.796   5.703  11.944 -0.0154 -0.0040 -0.1940
24955W        W40849  12.670   3.152  13.319 -0.2202 -0.1852 -0.1977
24956W        W40850   0.801   3.755   0.754  0.1648 -0.1590 -0.3772
24957W        W40851   0.962   9.705  12.580 -0.1882  0.3149 -0.2117
24958W        W40852  14.373  12.809   0.978  0.0929  0.3207 -0.1131
24959W        W40853  16.409   7.990  13.281  0.1353 -0.1909 -0.1589
24960W        W40854   2.193  15.110   5.585  0.0581  0.0090 -0.2052
24961W        W40855  18.130   8.584   5.053  0.1414  0.1514 -0.0442
24962W        W40856  10.753  15.019   1.785  0.0659  0.2446  0.0024
24963W        W40857   5.473  11.586   5.643 -0.0629  0.0473  0.1910
24964W        W40858   6.668   6.354  13.037  0.0901 -0.5865  0.1232
24965W        W40859   1.850  12.567   5.337 -0.2289 -0.3311  0.0430
24966W        W40860  12.861  16.793  11.943  0.0555  0.1302 -0.0511
24967W        W40861  15.835   8.518   4.329  0.4159 -0.5623 -0.0310
24968W        W40862  15.255   8.257   1.448 -0.0354  0.2461 -0.0705
24969W        W40863  12.869   0.060  14.188  0.0779  0.0468  0.0532
24970W        W40864   9.350  12.695  12.141 -0.1924  0.0320  0.1078
24971W        W40865  14.880   5.353  12.168  0.1086  0.1777 -0.0020
24972W        W40866   2.624   3.339  13.161  0.1143  0.0970 -0.2238
24973W        W40867  13.861  10.993   2.978 -0.0296  0.1969 -0.3385
24974W        W40868  11.803   5.174   2.186  0.2506  0.4792  0.1949
24975W        W40869   0.279   1.897  13.389 -0.0071 -0.1666  0.1098
24976W        W40870   9.691   1.754   2.407 -0.0868 -0.1117 -0.1450
24977W        W40871  13.348  17.432   4.099  0.3872  0.2019  0.0527
24978W        W40872  13.043   9.791   5.410  0.2752  0.0601 -0.1286
24979W        W40873  15.577   9.587   2.068 -0.3852 -0.2337  0.1542
24980W        W40874  11.733   5.509  12.771  0.2056  0.1080  0.0827
24981W        W40875  14.202   9.427  14.071  0.2459 -0.0335 -0.1282
24982W        W40876   1.859  12.426  15.242 -0.0667 -0.1523  0.0385
24983W        W40877  12.235  11.143   1.793 -0.0798 -0.4812  0.0857
24984W        W40878  15.253  16.417  14.257  0.0080  0.2320 -0.1402
24985W        W40879  18.077   2.629  11.418 -0.3295  0.0687  0.1898
24986W        W40880   5.857  17.759   3.506 -0.3512 -0.0533  0.0448
24987W        W40881   7.109   3.899   6.216  0.1494  0.0387  0.1337
24988W        W40882  16.482  15.821  12.539  0.0446 -0.2832  0.2994
24989W        W40883  10.726  14.272  11.686  0.0046  0.1193  0.2142
24990W        W40884  14.061   7.663  14.682 -0.0181  0.0207 -0.1045
24991W        W40885  17.744  15.914   3.164 -0.2856 -0.2094 -0.1572
24992W        W40886  10.274  15.282  15.153 -0.0670  0.1716  0.1035
24993W        W40887  15.625  14.656   1.760  0.3317  0.0649  0.2293
24994W        W40888  15.759   5.486  12.694  0.3810  0.1141 -0.3283
24995W        W40889  17.917   3.584   2.259  0.0462  0.3056  0.1925
24996W        W40890  17.213  15.781   0.484  0.1649 -0.0500 -0.3109
24997W        W40891   6.747  16.764   0.975 -0.0188  0.1789 -0.3340
24998W        W40892   8.255  10.898   0.821 -0.0882  0.1774 -0.0663
24999W        W40893  18.189  16.965  14.767 -0.2327  0.1272 -0.0963
25000W        W40894  15.318   2.557  11.889  0.0138 -0.1247 -0.1285
25001W        W40895   2.811   2.721   0.425  0.1763  0.1109 -0.0184
25002W        W40896   5.231   4.072   0.556  0.0747 -0.2021  0.2246
25003W        W40897  10.288  16.485  12.892  0.1755 -0.4217  0.1391
25004W        W40898  11.505   6.395   4.210  0.2763 -0.1678 -0.1781
25005W        W40899  16.760   0.680  12.412  0.3087  0.1534 -0.5236
25006W        W40900   4.456   2.075   0.903 -0.2456 -0.2529  0.2524
25007W        W40901  11.252   3.184  15.360 -0.1826 -0.0656  0.2334
25008W        W40902  14.190  14.979   1.614  0.0859  0.4000 -0.0683
25009W        W40903   1.362  14.996   6.322  0.1788 -0.2543 -0.0352
25010W        W40904  15.596  17.328   0.265  0.1678  0.0978  0.0005
25011W        W40905   4.273   2.369   4.395 -0.1524  0.1234  0.2357
25012W        W40906  10.265   5.814   3.025 -0.0923 -0.0511  0.1362
25013W        W40907  13.097  15.960   5.063  0.2309  0.0182 -0.0210
25014W        W40908   8.565   4.389  10.551 -0.2719 -0.1817  0.1017
25015W        W40909   1.503  14.636  12.291 -0.0622  0.0856  0.1316
25016W        W40910   6.174  17.971  11.215 -0.1589  0.1169  0.1252
25017W        W40911   8.685  17.275   4.406 -0.2328 -0.0047  0.1072
25018W        W40912   4.436  13.826   6.486  0.1326  0.0360 -0.0964
25019W        W40913  16.645   0.003   1.373  0.6004 -0.0638 -0.3992
25020W        W40914  16.314  16.143  14.122 -0.2610 -0.0664  0.0545
25021W        W40915   8.014   8.605  12.178 -0.0734  0.2354 -0.1524
25022W        W40916   9.594  11.474   2.380 -0.1562 -0.1104  0.0196
25023W        W40917   5.185   7.640  13.698 -0.1112 -0.1264  0.1786
25024W        W40918   3.915  14.526  14.479 -0.1482 -0.1402  0.1221
25025W        W40919   3.569  11.275   1.293 -0.1362 -0.2461  0.0611
25026W        W40920  14.333   1.408  16.430 -0.0560 -0.1306  0.0094
25027W        W40921  14.430   9.186   0.784  0.0377  0.0461 -0.0681
25028W        W40922  16.053   2.346  11.641 -0.1341 -0.0863  0.0111
25029W        W40923   7.320  12.495  15.734  0.2846 -0.2248 -0.0485
25030W        W40924   2.527   7.851   4.158 -0.1799  0.2802 -0.1995
25031W        W40925   9.780  16.768  12.055 -0.2682  0.5208 -0.0144
25032W        W40926   4.110   0.092  13.938  0.0993 -0.0880  0.2456
25033W        W40927  13.662  11.654  13.402  0.2564 -0.0036 -0.2956
25034W        W40928  14.757   8.388  15.898  0.1522 -0.0806  0.2039
25035W        W40929  17.450  13.515   1.428  0.3249 -0.2284  0.4148
25036W        W40930   7.800   0.076  14.460  0.2429  0.0377 -0.1595
25037W        W40931   1.171   6.280   3.430  0.1154 -0.2015 -0.2165
25038W        W40932   1.888   6.104  13.047  0.1988 -0.3266 -0.4840
25039W        W40933   9.283   4.487   1.686  0.2792 -0.1204  0.3359
25040W        W40934  12.785  15.284  13.168 -0.2166  0.0036 -0.0289
25041W        W40935  12.579   3.176  11.238  0.2347  0.3804  0.1094
25042W        W40936  12.615  13.511  12.232  0.1832 -0.0136 -0.4751
25043W        W40937   4.037  13.715  15.479 -0.3093 -0.1449  0.4537
25044W        W40938   1.744  14.891  13.684  0.5098 -0.2078  0.1941
25045W        W40939  10.653   2.641  13.031 -0.3137 -0.1291  0.1305
25046W        W40940  10.215  16.880   4.392 -0.0990  0.1885  0.0110
25047W        W40941  10.526   6.746   1.901  0.0251 -0.3532  0.1256
25048W        W40942  17.604   3.056   0.104 -0.0421  0.0069  0.3149
25049W        W40943  13.555  12.852   2.913 -0.1386 -0.0198 -0.1002
25050W        W40944   8.049   4.699   5.482  0.0380  0.4457 -0.1049
25051W        W40945   4.089   5.847   4.498 -0.0052 -0.0075  0.2189
25052W        W40946   0.753  13.465   5.090 -0.0489 -0.1758  0.0112
25053W        W40947  16.079   4.685  14.426 -0.0837  0.0981  0.1147
25054W        W40948   7.608  10.941   6.011 -0.0381  0.1897  0.4614
25055W        W40949  17.988   6.067   4.026 -0.0991  0.1321 -0.2525
25056W        W40950   7.437  12.552   5.027  0.0695  0.1744 -0.1485
25057W        W40951   7.155   2.629  16.340  0.1075  0.0794 -0.2994
25058W        W40952   5.629   8.785  12.678 -0.3284 -0.1808  0.0013
25059W        W40953  14.392   2.462   2.610  0.1311 -0.0081  0.1327
25060W        W40954  16.374  10.301   4.053 -0.0156 -0.3000 -0.0910
25061W        W40955  10.248   1.999  11.984  0.1141  0.0634 -0.1258
25062W        W40956   3.119  11.053  15.354 -0.1253  0.2988 -0.1709
25063W        W40957  15.248   1.278   0.267  0.2917  0.1370  0.3878
25064W        W40958   0.268   1.380  15.299 -0.0883  0.1638  0.0330
25065W        W40959  15.766   1.253  12.174 -0.0011  0.1247  0.0690
25066W        W40960  11.299  15.577   3.830 -0.1308 -0.1405  0.2967
25067W        W40961  12.798   7.365   0.931  0.1044 -0.0284 -0.2390
25068W        W40962  16.231  16.448   1.955  0.0159  0.2528  0.0564
25069W        W40963  15.677  13.599  16.224 -0.0568 -0.0409 -0.0671
25070W        W40964   1.634   4.512   1.684 -0.3780 -0.0934  0.1176
25071W        W40965   0.815   4.180   4.585  0.1494 -0.1336 -0.4711
25072W        W40966   0.312  17.635   4.174 -0.0758 -0.3089 -0.2484
25073W        W40967  17.922  10.984   1.933  0.3744 -0.0687  0.1319
25074W        W40968   0.584   4.658   2.101  0.1324  0.1947 -0.1462
25075W        W40969  15.907   7.512   5.097 -0.2081  0.1849 -0.0818
25076W        W40970   3.854  12.600   0.137  0.0055  0.1413 -0.3223
25077W        W40971   8.691  17.846   4.213 -0.2228  0.2254 -0.1131
25078W        W40972  12.130  17.367  14.192  0.1239 -0.1135  0.0592
25079W        W40973  10.735  14.629   3.186  0.0996  0.1405 -0.3354
25080W        W40974  15.002  17.940  15.264 -0.2433  0.0059 -0.2200
25081W        W40975  16.168   6.124   4.946  0.1770  0.0479  0.2250
25082W        W40976  15.362   8.152  13.446  0.0826  0.1968 -0.0471
25083W        W40977  12.387  16.938   3.102  0.0432  0.1036 -0.0577
25084W        W40978  18.162   6.685   0.288 -0.0767 -0.3448 -0.0432
25085W        W40979  15.874   2.141  12.041 -0.1367 -0.0422  0.0831
25086W        W40980   8.465  12.009  16.364 -0.0046 -0.1719  0.0082
25087W        W40981  18.034  11.662   1.013 -0.1088 -0.5132 -0.0630
25088W        W40982   1.843   5.507  15.724  0.2491 -0.1174  0.0916
25089W        W40983  12.353  17.379   3.965 -0.0320  0.3394 -0.1810
25090W        W40984   6.842  17.869   0.344 -0.1416  0.0239 -0.1763
25091W        W40985   5.836  17.681  13.694 -0.1741 -0.1810 -0.1019
25092W        W40986  14.610   2.024  11.966  0.0344  0.2444 -0.0600
25093W        W40987   2.724   3.770   1.688 -0.1911 -0.0820 -0.1877
25094W        W40988  11.014  14.750   3.663 -0.0842 -0.1596 -0.1384
25095W        W40989  12.526  10.532  16.174  0.3674 -0.1192 -0.1564
25096W        W40990   8.177  15.884   0.475 -0.0040 -0.2602 -0.4153
25097W        W40991  11.432   0.267  13.633  0.0720 -0.1519 -0.1759
25098W        W40992   0.858   8.877  11.563 -0.2254 -0.2848 -0.0697
25099W        W40993  15.135  10.202   1.585  0.1322 -0.1304 -0.0690
25100W        W40994   4.059   2.847  16.288  0.0731  0.1480 -0.2236
25101W        W40995   8.271   5.655   3.964 -0.0967  0.1280 -0.2148
25102W        W40996  16.196   3.783   3.755 -0.0741 -0.2997  0.0350
25103W        W40997   0.796   3.418  13.697  0.2497  0.0907  0.0927
25104W        W40998   3.975   0.047  11.331  0.2947  0.1669 -0.0647
25105W        W40999  13.980  17.468   4.464 -0.0914  0.2190 -0.0875
25106W        W41000   5.335  12.771   0.866  0.3631 -0.1670 -0.0710
25107W        W41001  14.951  18.228   3.692 -0.4380 -0.3681  0.0776
25108W        W41002   3.581  11.072  11.821 -0.3860  0.2212 -0.1415
25109W        W41003  14.009   2.041  14.125  0.1410  0.1944  0.2195
25110W        W41004  17.833  15.777   3.673  0.2762  0.1547  0.0590
25111W        W41005  14.396   5.552   4.675  0.0052  0.0711 -0.0956
25112W        W41006   7.975  11.931  12.037  0.1362  0.0626 -0.2448
25113W        W41007   1.676  11.218  12.772 -0.1201  0.1363 -0.2769
25114W        W41008  13.775  18.099   2.806 -0.0621  0.1021 -0.0434
25115W        W41009  12.054   8.594  14.540 -0.1287  0.0715 -0.2363
25116W        W41010   4.885  17.700   0.808 -0.0717  0.0178  0.1262
25117W        W41011   1.639   9.451  15.344  0.0319  0.1083  0.0292
25118W        W41012  12.247  12.496  12.346  0.0832 -0.0409  0.1560
25119W        W41013   5.063  13.501  12.219  0.1637  0.0993 -0.1777
25120W        W41014   1.043   7.294   2.547 -0.0488 -0.0193  0.1519
25121W        W41015  14.983   6.976  15.897 -0.0329  0.3236  0.0141
25122W        W41016   0.495  12.596  12.932  0.1088  0.0165  0.0448
25123W        W41017  16.169   3.515   1.736 -0.1016 -0.0414  0.1632
25124W        W41018   3.817   5.013   4.675 -0.0600  0.3898 -0.0703
25125W        W41019  14.487   2.610   0.891  0.0465  0.2248  0.2256
25126W        W41020  11.402  16.468   1.251  0.0999 -0.1737  0.1414
25127W        W41021  16.234   7.734   4.782 -0.2937 -0.1510  0.1951
25128W        W41022   1.090   9.163  15.229  0.0270 -0.0070 -0.0716
25129W        W41023   4.367   4.988   4.311  0.0563  0.1384  0.1062
25130W        W41024   2.934   1.796   0.255 -0.1086 -0.0419 -0.1790
25131W        W41025  15.742  16.978  13.316 -0.0969  0.0047 -0.0409
25132W        W41026   2.253  13.509   5.598 -0.1966  0.2180 -0.3152
25133W        W41027   4.542   5.672  10.805 -0.0518  0.0178  0.2762
25134W        W41028  14.192  11.633   4.013 -0.0271 -0.0625 -0.0198
25135W        W41029  15.792  11.717  14.785  0.0338  0.1812 -0.1246
25136W        W41030  15.404  11.052   2.769 -0.1229  0.0659  0.0312
25137W        W41031  15.279  14.590   2.911  0.1462  0.1546  0.0655
25138W        W41032   1.192   6.338  14.901  0.1253 -0.4524  0.0846
25139W        W41033   4.555   5.242  11.565 -0.2100  0.2097  0.1060
25140W        W41034   9.231   6.808   4.463 -0.4203  0.0422 -0.0232
25141W        W41035   6.588  11.630  15.660 -0.0914  0.0322 -0.2962
25142W        W41036   6.267   6.442   4.989 -0.0172 -0.0580 -0.1473
25143W        W41037   6.122  14.528  16.342 -0.1794 -0.2144 -0.2265
25144W        W41038   1.498  10.926   3.861  0.2582 -0.1069 -0.1811
25145W        W41039   0.702   0.548  14.499 -0.0608 -0.3475 -0.2359
25146W        W41040  15.918   2.126   3.249 -0.2119  0.2386  0.2119
25147W        W41041   5.816  11.019   0.305  0.1107  0.3409 -0.0808
25148W        W41042   6.384   4.396  10.939  0.1181  0.2325  0.0931
25149W        W41043   1.101  11.512   6.015 -0.1792 -0.4272 -0.1600
25150W        W41044   9.082  11.289  12.268  0.1833 -0.2533 -0.1757
25151W        W41045   4.237  17.150  14.988 -0.1313 -0.2609 -0.2143
25152W        W41046   5.062   2.360   0.420 -0.0925  0.0447 -0.0004
25153W        W41047  10.564  14.443  15.994  0.0773  0.2257  0.0374
25154W        W41048   3.232  15.226  12.168 -0.0362  0.2618  0.0088
25155W        W41049   8.880   7.908   5.047  0.0995  0.1598  0.0259
25156W        W41050   4.155  10.079  12.623 -0.1206 -0.0130  0.3043
25157W        W41051   3.362   9.509  15.859 -0.0537 -0.2563 -0.1586
25158W        W41052  10.091   6.410  15.506  0.1113  0.1214  0.1257
25159W        W41053  11.002   5.032  15.912  0.0653 -0.0093 -0.0684
25160W        W41054   8.051   4.956   1.223  0.0069  0.1351  0.0475
25161W        W41055  13.334   3.327   5.357 -0.1016  0.1832 -0.3254
25162W        W41056   4.050   9.146   1.849 -0.2098  0.2121  0.0754
25163W        W41057  14.887   8.744  12.358 -0.0391  0.1531 -0.2508
25164W        W41058  13.605   8.535  13.153  0.2209  0.3534 -0.1137
25165W        W41059   8.788  12.366   1.260  0.3650  0.0021  0.2163
25166W        W41060  15.034   5.882   3.092 -0.1076 -0.0379  0.3282
25167W        W41061   7.114  17.325   3.026  0.0264  0.0131  0.0077
25168W        W41062   2.514   1.051  11.753  0.3554  0.1468  0.2599
25169W        W41063   2.284  11.814   4.859 -0.4034  0.0328 -0.0736
25170W        W41064  13.937  15.860   0.115  0.2695  0.0879 -0.0651
25171W        W41065  17.391   2.805   2.387 -0.2829 -0.0988  0.1894
25172W        W41066  10.730   2.467   4.615 -0.0353 -0.2982  0.0390
25173W        W41067   0.553   3.646  11.762 -0.1855 -0.0040 -0.1232
25174W        W41068   1.497   0.810  13.308  0.0348 -0.2978 -0.0245
25175W        W41069  17.915  14.394   4.932 -0.0206 -0.3238 -0.0171
25176W        W41070   1.715  14.423   3.798 -0.3307  0.1605  0.0649
25177W        W41071   6.510  14.223  14.062  0.0770 -0.1199 -0.1899
25178W        W41072   6.985   0.857   1.186  0.0018  0.2353 -0.2364
25179W        W41073  15.521   8.942   4.980  0.0609  0.3545  0.3166
25180W        W41074   9.036   1.011   4.728  0.0585  0.0717 -0.0836
25181W        W41075   0.330   2.171  12.161 -0.0417 -0.1080 -0.1062
25182W        W41076   6.610  13.266  13.828 -0.2114 -0.0879 -0.0960
25183W        W41077  10.690  11.900   2.437  0.2570  0.2331  0.1870
25184W        W41078  17.418   1.394  11.305 -0.1075  0.1146 -0.1403
25185W        W41079  15.880  12.719  11.767 -0.3012  0.1843 -0.0035
25186W        W41080   3.358   7.950   2.030 -0.3506 -0.1464 -0.0844
25187W        W41081  10.888  18.027  14.528  0.1037 -0.0256 -0.2268
25188W        W41082   0.356  14.368   1.909  0.0904 -0.1051  0.2194
25189W        W41083   8.170   3.674   2.379 -0.1024 -0.2197  0.0096
25190W        W41084   4.102  13.613   1.619  0.4173  0.3293 -0.2087
25191W        W41085  17.919  15.362   1.070 -0.2588  0.0307  0.0552
25192W        W41086  18.205  10.959   1.500  0.0021 -0.2173 -0.1288
25193W        W41087  15.673  11.446  12.971 -0.0687  0.0247 -0.3855
25194W        W41088   5.654   9.930   2.025  0.1168  0.5333  0.3165
25195W        W41089  11.779  15.177  13.532 -0.3844  0.0790  0.0480
25196W        W41090   9.581   4.962   0.973 -0.3036  0.0813  0.1679
25197W        W41091   2.511   2.527   1.749 -0.1307  0.1170  0.1975
25198W        W41092  11.078   1.110  13.920  0.0185 -0.1232  0.1231
25199W        W41093  17.441   3.442   4.224  0.1455  0.0419  0.1626
25200W        W41094  10.854  12.598   1.242 -0.1137 -0.0095 -0.2536
25201W        W41095  11.703   5.045  11.664 -0.2230 -0.2793  0.1073
25202W        W41096   9.191  14.945   1.754  0.3368  0.2660  0.2017
25203W        W41097  14.128   1.669   5.272 -0.0184 -0.0670  0.1897
25204W        W41098   2.120   9.112  12.070  0.1145 -0.0284 -0.0201
25205W        W41099   0.683   1.451  15.032  0.1170 -0.0736  0.0506
25206W        W41100   0.125   0.996   2.914 -0.0500  0.0358 -0.1236
25207W        W41101   4.364   9.297   5.073 -0.0468 -0.0446  0.0359
25208W        W41102   9.108  16.599  13.465 -0.2101 -0.1965 -0.0423
25209W        W41103   6.699   2.471  14.601 -0.1037 -0.0987  0.3745
25210W        W41104  15.630   4.827  13.486  0.1804 -0.0961 -0.1491
25211W        W41105   5.868   3.151  13.323  0.0211  0.3311  0.0992
25212W        W41106  17.583  12.637  13.317 -0.3196 -0.2434  0.4218
25213W        W41107   7.492   7.526   1.975  0.1647  0.1943 -0.3494
25214W        W41108  15.396  12.123   2.755  0.0264 -0.0114  0.2136
25215W        W41109   9.466   5.483  16.366 -0.0924 -0.2060 -0.0340
25216W        W41110   4.528   4.700  13.537 -0.3641  0.3474 -0.2018
25217W        W41111   6.685  14.267  11.968  0.0195 -0.2107  0.0420
25218W        W41112  13.284   5.944   3.811 -0.3187  0.3077 -0.0485
25219W        W41113  13.081   3.615  12.579 -0.2059 -0.0093  0.4805
25220W        W41114  12.976   1.824  13.390  0.1669 -0.3248  0.0134
25221W        W41115  16.055  13.994   1.100  0.3669  0.1139  0.3268
25222W        W41116  12.798   4.097   4.146 -0.2838 -0.0308 -0.1999
25223W        W41117   9.140  14.654   3.068  0.0785 -0.1593  0.2399
25224W        W41118   5.326   4.574  12.061  0.2416  0.0134 -0.0051
25225W        W41119   1.720   0.398  13.454  0.3073 -0.1026  0.1828
25226W        W41120  15.777   7.067  15.433  0.0846  0.0313  0.3041
25227W        W41121   3.146  11.955  11.942 -0.0426 -0.0580  0.3037
25228W        W41122   3.345  12.051   6.190  0.1090 -0.2288 -0.3119
25229W        W41123   0.859   8.782   3.546 -0.1380  0.0479  0.2559
25230W        W41124   1.436   0.368  15.027  0.3779 -0.1672  0.2231
25231W        W41125   4.600  12.970  13.379  0.1749 -0.0468 -0.0640
25232W        W41126  17.284   5.343   4.564 -0.2697  0.1340 -0.0080
25233W        W41127   1.691   9.322   2.606 -0.1578 -0.0680 -0.0488
25234W        W41128   0.658   3.130   3.549  0.2389  0.0877 -0.1175
25235W        W41129   1.583  10.993   0.666  0.2340  0.0540 -0.2971
25236W        W41130  17.583   9.285   1.868  0.0536  0.2984 -0.3967
25237W        W41131   2.022  11.627  15.102  0.3715  0.1262  0.1333
25238W        W41132  10.268   4.536   1.431 -0.2842 -0.1323 -0.1224
25239W        W41133   0.684  13.736  12.028  0.1885  0.1343  0.4473
25240W        W41134  13.535   5.180   0.609 -0.0232 -0.2068 -0.0778
25241W        W41135  11.333   0.845   1.323 -0.2937  0.4392 -0.1417
25242W        W41136  16.626  16.815   3.952  0.0561 -0.3032  0.0897
25243W        W41137   4.914  10.877   1.956  0.1992 -0.1293  0.0550
25244W        W41138   2.898  10.714   3.463 -0.1633 -0.1776 -0.0937
25245W        W41139   5.480   2.995  12.974 -0.0177  0.1423 -0.0871
25246W        W41140   7.334   2.027   0.910  0.1778 -0.1960  0.1800
25247W        W41141   3.852   2.767  13.830 -0.1022  0.1281  0.2301
25248W        W41142   6.275   2.302  13.813  0.0105 -0.2226 -0.2565
25249W        W41143  17.870  17.247   2.830  0.3338 -0.0714 -0.2322
25250W        W41144  13.662  12.138  13.801  0.1462  0.1349 -0.0091
25251W        W41145  12.680   7.667   4.274  0.1248  0.2237  0.0710
25252W        W41146  18.140   8.618   3.598  0.4001  0.1784  0.0516
25253W        W41147   2.177   9.863   0.474  0.2233  0.0132 -0.2679
25254W        W41148   7.931   6.252  16.405 -0.1654  0.2348  0.0465
25255W        W41149   6.914   0.116   0.461 -0.2583  0.1095 -0.1635
25256W        W41150   4.480   6.165   1.813  0.3165  0.0163  0.2394
25257W        W41151  14.125   1.978  15.061  0.2097  0.1889  0.4502
25258W        W41152   1.941  10.566   0.368  0.0458  0.0076 -0.0611
25259W        W41153  12.370  16.882  14.812  0.0648  0.0638  0.0012
25260W        W41154  13.570   2.618  12.532  0.5112  0.1853 -0.0655
25261W        W41155   0.641  13.560   3.246 -0.2097 -0.1999 -0.1582
25262W        W41156   0.753   5.398  11.932 -0.2075  0.2183 -0.2517
25263W        W41157  13.090  18.195  12.905  0.3504 -0.2043  0.1359
25264W        W41158  16.437  15.588   2.171 -0.1451 -0.0914  0.0367
25265W        W41159   5.819  15.714   1.138  0.4719 -0.3796  0.1546
25266W        W41160   4.332  15.728   1.666 -0.0666  0.1591 -0.3699
25267W        W41161  17.037   4.924  13.922  0.1390  0.0125  0.0126
25268W        W41162  11.394   6.407   0.882  0.1277  0.0118  0.2999
25269W        W41163  17.848  12.342   4.948  0.0526 -0.1456  0.1743
25270W        W41164   1.392  10.819   4.389  0.1755 -0.0128 -0.1260
25271W        W41165  14.009   6.122  12.396  0.0057 -0.0308  0.1702
25272W        W41166   5.342   5.417  12.952 -0.0233 -0.1925 -0.0934
25273W        W41167   6.378  13.393   4.977  0.0427 -0.3189 -0.0435
25274W        W41168  14.507  12.126   5.371  0.0973 -0.4321 -0.1056
25275W        W41169  17.656  14.770  12.943 -0.0660  0.0972  0.1550
25276W        W41170   8.869   2.264  13.576 -0.0483 -0.0035  0.0850
25277W        W41171  10.756   6.608   0.379 -0.1631  0.1460  0.2246
25278W        W41172   1.509   8.438  13.824 -0.3507  0.2890  0.1863
25279W        W41173  12.270   4.450   2.462  0.0466 -0.1055  0.1421
25280W        W41174  10.506  15.945   4.345  0.2759  0.1324  0.0782
25281W        W41175   4.828   1.648   4.377 -0.1611  0.1847 -0.1394
25282W        W41176  14.139   7.336   2.298 -0.3232  0.2214 -0.0738
25283W        W41177   7.603   1.523   5.381  0.2150 -0.0171  0.0625
25284W        W41178  16.184  16.030   2.736  0.1097  0.0110 -0.0007
25285W        W41179   0.767   6.215   5.478  0.1494 -0.0459 -0.0244
25286W        W41180   8.557   3.945   4.723  0.1197 -0.2256  0.0227
25287W        W41181   6.102  11.825  15.729  0.0376 -0.1239 -0.0705
25288W        W41182   5.609   9.154   0.178  0.0037  0.1655 -0.2048
25289W        W41183   6.080  12.199   2.018  0.0098 -0.0653 -0.1559
25290W        W41184  14.293  13.786   0.563  0.1594  0.1324 -0.3070
25291W        W41185  10.426   4.592   3.784  0.2424  0.0472  0.0448
25292W        W41186  17.610   8.691  12.176  0.1351 -0.1298 -0.1609
25293W        W41187  17.519  11.411   2.782 -0.2661 -0.1695 -0.0183
25294W        W41188   2.967  15.325   2.790 -0.2228 -0.0489 -0.0880
25295W        W41189   1.486   9.238  13.917 -0.1794  0.0556 -0.1316
25296W        W41190  16.485  16.063  13.511 -0.0580 -0.2555  0.0860
25297W        W41191  16.383   8.996  14.615  0.2653  0.2652  0.0571
25298W        W41192  11.087  11.710  14.706  0.0682 -0.3290  0.2668
25299W        W41193   7.157   1.701  14.086  0.0664  0.1731  0.2576
25300W        W41194   3.721   4.062  13.055 -0.0393 -0.0010 -0.2430
25301W        W41195  11.352  17.631   3.286 -0.0543  0.0682  0.1413
25302W        W41196  12.113  14.397   0.456  0.0170  0.0305  0.0186
25303W        W41197   5.691   3.512   3.846  0.3655 -0.0892  0.1024
25304W        W41198   3.097   3.126   2.818  0.1877  0.4034  0.0938
25305W        W41199   8.885  14.478   6.229  0.1669  0.1834 -0.1118
25306W        W41200   8.783  14.174  14.149 -0.0233 -0.2732 -0.0273
25307W        W41201  11.408   3.949  12.284 -0.3692 -0.0660 -0.1662
25308W        W41202  15.441  11.228   5.762  0.1832  0.3918 -0.0123
25309W        W41203  17.506  13.538  13.537  0.0521 -0.4755 -0.0897
25310W        W41204  10.873  13.622   1.022 -0.1629  0.2097  0.1596
25311W        W41205   1.619  14.142  13.589  0.0412 -0.0515  0.1136
25312W        W41206   6.236   8.530  13.830 -0.0872 -0.0405  0.2114
25313W        W41207  16.629  14.750   3.541 -0.0568 -0.1563  0.1470
25314W        W41208  10.850  13.146   1.092 -0.0593 -0.0850  0.0653
25315W        W41209   1.668   3.691  12.941 -0.1001 -0.0374 -0.5250
25316W        W41210  11.992   4.235   2.097  0.1028  0.0582  0.2466
25317W        W41211  10.201   9.969  16.067  0.1981  0.0788  0.0641
25318W        W41212  13.170  13.590   1.077  0.0277  0.1378 -0.1543
25319W        W41213   5.640  13.710   5.114  0.0571  0.1150 -0.2261
25320W        W41214  17.632  16.735  14.009  0.2223 -0.0744  0.1625
25321W        W41215   0.861   1.604   2.566 -0.0554  0.1911  0.1678
25322W        W41216   6.131  12.490   0.919  0.1488  0.2112  0.0959
25323W        W41217  11.193  12.407   5.683 -0.3762  0.1658 -0.0993
25324W        W41218   7.261   3.431  12.964  0.1118 -0.0249 -0.1210
25325W        W41219   3.768  15.149   3.279 -0.0293  0.0871  0.3844
25326W        W41220   1.683   8.798  12.065  0.0170 -0.0707 -0.0549
25327W        W41221  12.621   7.885   3.777  0.3085 -0.1510 -0.0789
25328W        W41222   1.405  12.962  14.531  0.0510  0.0295  0.0313
25329W        W41223   4.698   2.415  14.951 -0.2705 -0.0587 -0.0461
25330W        W41224   2.448  13.032  16.383 -0.1433 -0.0070 -0.1187
25331W        W41225   1.724  17.184  13.987  0.2258 -0.0710  0.1326
25332W        W41226  12.282   9.379   4.317 -0.1289  0.2123  0.1178
25333W        W41227   2.217  16.658   2.808  0.1348  0.0822 -0.0567
25334W        W41228  12.012  11.754   2.008 -0.2706 -0.1063  0.0992
25335W        W41229   6.467   7.375  11.279  0.3342  0.2512 -0.2876
25336W        W41230   6.513  16.059   0.034 -0.0113  0.0133 -0.1664
25337W        W41231   5.879  15.605  12.411  0.2663 -0.2083 -0.0302
25338W        W41232  15.820   1.960  13.331  0.0507 -0.2081 -0.1386
25339W        W41233   3.414  12.657   2.981 -0.0149  0.2012 -0.4233
25340W        W41234  15.909  17.649   1.168  0.0307  0.0390  0.1563
25341W        W41235   7.050   2.360  12.033 -0.5539  0.1940  0.1669
25342W        W41236   1.861  17.809   3.084  0.2474 -0.1593 -0.3947
25343W        W41237   9.639  10.901  13.732 -0.0954  0.3684  0.5145
25344W        W41238  12.580  16.782   3.592  0.1969  0.3757 -0.1523
25345W        W41239  10.797  10.157  14.847 -0.0120  0.0591 -0.0836
25346W        W41240  14.528   8.842   1.250 -0.5286  0.0584 -0.2955
25347W        W41241  12.904  17.339   5.012  0.0290  0.0468 -0.0718
25348W        W41242  15.752   3.137  16.404  0.0649  0.1150 -0.1000
25349W        W41243   7.688  16.933  14.866 -0.1798 -0.5620 -0.2957
25350W        W41244  14.038  10.362  16.189  0.1127  0.2137  0.2275
25351W        W41245   5.407   5.059   0.766  0.0679  0.2248 -0.1004
25352W        W41246   8.289   2.709  14.905 -0.0326  0.0096 -0.1948
25353W        W41247   5.304   7.011   0.693 -0.0376  0.2277 -0.0369
25354W        W41248   4.421  11.743  15.157  0.2031  0.0866 -0.3616
25355W        W41249   5.167  11.113  13.342 -0.2809 -0.3790 -0.0147
25356W        W41250   6.050   2.985  14.337  0.2185  0.1751  0.1864
25357W        W41251  15.015  14.309  11.967 -0.0164  0.0615 -0.1465
25358W        W41252  16.792  17.934   0.176 -0.1791 -0.3265  0.2559
25359W        W41253  12.119   0.202   1.070 -0.2024 -0.2469 -0.2270
25360W        W41254   9.428   9.245  11.701 -0.3689  0.0478 -0.0505
25361W        W41255  13.353   0.760  15.210 -0.0466  0.0500 -0.0481
25362W        W41256  15.679   9.796   0.576  0.0549  0.1282 -0.1377
25363W        W41257   9.484  15.932   2.055 -0.0949  0.0038 -0.0858
25364W        W41258  15.200   4.740   2.535 -0.1287  0.0153  0.0225
25365W        W41259   8.161   5.879   4.859 -0.4784 -0.2201  0.1825
25366W        W41260  12.934  17.872  15.668 -0.0160 -0.2411 -0.0507
25367W        W41261   1.818  13.761  11.587  0.4322 -0.3660 -0.1170
25368W        W41262   6.829  15.533   3.891 -0.2996 -0.3258  0.1745
25369W        W41263   1.097   2.290   3.881 -0.1147 -0.0195 -0.2942
25370W        W41264   1.467  12.113  13.677 -0.0287  0.0472  0.1259
25371W        W41265   7.846   2.177  13.211  0.1321 -0.0427  0.0556
25372W        W41266  12.046  16.893  15.976  0.2709 -0.1339 -0.1635
25373W        W41267   7.607   7.811   0.094 -0.0380  0.2441 -0.2689
25374W        W41268   9.998  14.830   0.631 -0.1329 -0.2922 -0.1075
25375W        W41269   7.237  13.605  14.078 -0.3074  0.1535 -0.1831
25376W        W41270  10.995   9.846   0.411  0.1486 -0.1768 -0.0624
25377W        W41271  17.563   4.757   1.709  0.0970  0.0536  0.1204
25378W        W41272  11.453  14.403   4.587 -0.2158 -0.0352  0.1052
25379W        W41273  17.069   1.051   2.892  0.0858  0.1530 -0.1170
25380W        W41274   2.363   2.324  14.827 -0.1052  0.2998 -0.3637
25381W        W41275  13.422  15.733  12.180  0.1538  0.0048 -0.0701
25382W        W41276   1.193   2.305   4.425 -0.1157  0.1457 -0.0683
25383W        W41277   3.625   9.207   1.537  0.2359  0.0815 -0.2755
25384W        W41278   1.230  12.515  13.952 -0.0198  0.0404 -0.0728
25385W        W41279  11.482   9.958  12.797  0.0418 -0.0175  0.0576
25386W        W41280   3.981   4.443  14.618 -0.2394 -0.0238  0.0177
25387W        W41281   3.662   0.728   3.055 -0.1926 -0.0334  0.1920
25388W        W41282   4.258   1.423  16.072  0.1620  0.1177  0.0418
25389W        W41283   9.670   4.585  12.948 -0.3752  0.3236  0.2510
25390W        W41284  10.429  14.982   4.499 -0.1009  0.0841 -0.1270
25391W        W41285   3.546   5.423   4.144 -0.0629 -0.1425 -0.0139
25392W        W41286   9.264  10.560  15.315  0.3645  0.1605  0.1031
25393W        W41287   3.033   1.937   4.128  0.0204 -0.0134 -0.3465
25394W        W41288  12.656   5.157  11.666 -0.1197 -0.1177  0.0752
25395W        W41289   5.166   4.056  16.030 -0.1742 -0.1812 -0.0683
25396W        W41290   9.713   4.273  15.181  0.1433  0.1750 -0.2778
25397W        W41291  15.047   8.272  15.531  0.0531 -0.0189  0.2152
25398W        W41292   3.535   0.459   5.066  0.1573  0.1042  0.1637
25399W        W41293   9.527   6.606  11.522  0.2387  0.0569 -0.2267
25400W        W41294  13.653  13.281  13.283  0.4373 -0.0434  0.2084
25401W        W41295   6.983   6.095  16.412 -0.0270 -0.0011 -0.3826
25402W        W41296   1.121  12.372   6.081  0.3026 -0.2242 -0.1570
25403W        W41297  16.200   7.366   0.631 -0.1856  0.1403 -0.0241
25404W        W41298   6.198   0.155  12.532  0.1079  0.1133 -0.2915
25405W        W41299  10.310   6.087   4.540 -0.1419 -0.2736 -0.2367
25406W        W41300  13.743   0.663  11.023  0.0137  0.4481 -0.0559
25407W        W41301   2.922  14.004  12.053  0.0835 -0.0853  0.0231
25408W        W41302   6.917   6.668  10.756  0.1657  0.2916 -0.1592
25409W        W41303  12.319  16.549   0.334  0.1188  0.2400  0.1015
25410W        W41304   6.307   0.622  12.924 -0.0169  0.2814  0.0817
25411W        W41305  15.426   5.455  15.278 -0.0929 -0.0280 -0.2319
25412W        W41306   6.394  15.212   0.454 -0.2467 -0.0456 -0.0939
25413W        W41307   6.808  18.209   4.143 -0.0800  0.2034  0.0171
25414W        W41308  11.639  14.681  13.569  0.0378 -0.2653  0.0691
25415W        W41309  10.660   1.786  15.973 -0.1304 -0.0054 -0.3277
25416W        W41310  11.004  11.879  12.477  0.2275 -0.1195 -0.0631
25417W        W41311   8.479   9.215   0.325  0.3246 -0.0210  0.1304
25418W        W41312   5.203  17.359   4.640  0.0606  0.2273 -0.0031
25419W        W41313  15.524   0.361   0.999  0.1815 -0.4461 -0.1277
25420W        W41314   2.572   3.474   4.926 -0.0131  0.1211 -0.3460
25421W        W41315   3.072   1.706   2.575  0.0820 -0.3520 -0.1516
25422W        W41316   5.154  16.645   6.128 -0.0998  0.1462 -0.1905
25423W        W41317   5.814  17.055  14.936 -0.1223 -0.0758 -0.1883
25424W        W41318  10.095   0.399  15.025 -0.0299 -0.3590  0.1758
25425W        W41319  11.211   3.455  14.928  0.0299 -0.2118  0.1503
25426W        W41320  14.631   1.171  13.229 -0.1755 -0.1415  0.4764
25427W        W41321  10.827   8.996   5.384  0.2005  0.0846 -0.0134
25428W        W41322  12.554  12.356  16.428 -0.1760  0.1555  0.1026
25429W        W41323   8.544  16.735   3.360 -0.1844 -0.0859 -0.1451
25430W        W41324   8.084  14.743   2.685  0.0134 -0.1977 -0.0970
25431W        W41325  14.912  11.595  14.200  0.1083  0.2975 -0.1245
25432W        W41326  16.163   1.317   4.675  0.3417  0.3608  0.1321
25433W        W41327   6.404   1.624  14.178 -0.0411 -0.0886  0.3487
25434W        W41328   6.300   1.397  13.338  0.1245 -0.1082 -0.0323
25435W        W41329  12.728  17.460  12.439 -0.4854  0.0657 -0.3887
25436W        W41330   6.918   6.216  14.090  0.4835 -0.1540 -0.2251
25437W        W41331   4.899   8.731  14.366  0.0130 -0.0273 -0.1848
25438W        W41332   4.116  15.581   1.272 -0.0173 -0.3111  0.0032
25439W        W41333  17.941  15.912   5.109  0.0897  0.2947  0.0211
25440W        W41334   5.390  17.088   2.285  0.3645 -0.2048  0.0851
25441W        W41335   7.961   4.665   2.370 -0.0926  0.0540  0.2120
25442W        W41336  12.623   1.842  15.701  0.1423 -0.2389 -0.0044
25443W        W41337   5.112   0.508  16.033 -0.1741 -0.0544 -0.0303
25444W        W41338  17.794   7.252  12.893  0.2000  0.0823  0.2229
25445W        W41339   1.483  16.236  13.468  0.3738  0.4215  0.1138
25446W        W41340  13.813  13.073  14.081  0.1560  0.0466  0.0771
25447W        W41341   8.482   1.709  11.536 -0.1586 -0.0624  0.0670
25448W        W41342  15.338   0.054  12.385 -0.3911 -0.3152  0.2343
25449W        W41343  18.164   4.249  14.317  0.2044  0.1435  0.1998
25450W        W41344  10.699  15.424  16.046  0.0866  0.0552  0.0676
25451W        W41345  12.361   5.647   3.239  0.1763  0.1440  0.0098
25452W        W41346   1.035   5.901  14.564 -0.1916  0.0401  0.3392
25453W        W41347   6.143   6.408  12.851 -0.4430 -0.1192  0.1260
25454W        W41348   9.236  17.393  14.547 -0.0423  0.2410 -0.0881
25455W        W41349  17.209   9.115  15.496 -0.0727 -0.1114 -0.0543
25456W        W41350  16.055   5.281   2.148  0.1013 -0.0848  0.0661
25457W        W41351   4.873  14.676  12.164 -0.1244 -0.1134  0.0536
25458W        W41352  15.756  11.993  12.191 -0.1204 -0.1220 -0.0896
25459W        W41353   2.748  17.325   2.950 -0.3633 -0.2108  0.0703
25460W        W41354  16.880  15.919   6.115 -0.2688  0.0839 -0.0707
25461W        W41355   6.052   7.310   1.652  0.0393 -0.1516 -0.2406
25462W        W41356  16.476   9.914  12.563 -0.0634 -0.2610  0.1216
25463W        W41357   1.636   3.859  15.776  0.3320  0.1155 -0.1289
25464W        W41358  15.036   5.478  11.185 -0.3264  0.2513 -0.2374
25465W        W41359  11.192  10.145  13.974 -0.1628  0.0480 -0.0164
25466W        W41360   4.169   4.689   2.195 -0.2649  0.0489  0.0024
25467W        W41361  12.176   3.833  15.160  0.3222  0.0568  0.0531
25468W        W41362  16.293   5.321  16.411 -0.0423 -0.0065  0.1304
25469W        W41363  15.992   6.617  13.830  0.0961 -0.2701 -0.1980
25470W        W41364   9.006  16.069   0.911  0.0391 -0.0977  0.2873
25471W        W41365   6.707  12.605  12.276  0.5377  0.0786  0.2475
25472W        W41366   4.665   9.031  15.749 -0.2800 -0.0655  0.0115
25473W        W41367  17.946   2.029   1.531  0.1029 -0.2423 -0.3308
25474W        W41368  12.414   1.611  13.805  0.1767 -0.1621 -0.1535
25475W        W41369  11.388  15.687   0.291  0.0422  0.0326 -0.0861
25476W        W41370   5.230  13.775   3.786  0.0885 -0.0447  0.1810
25477W        W41371   8.578   7.272   0.640 -0.0888  0.1871 -0.4395
25478W        W41372  16.046  13.564  15.349  0.0146  0.4551  0.1106
25479W        W41373  17.689  10.609   1.550  0.0302  0.2025  0.0816
25480W        W41374   8.446   3.495   1.873  0.2699  0.2585 -0.2441
25481W        W41375  14.826   6.923  14.052 -0.0754  0.2908  0.2220
25482W        W41376  13.615  15.968  13.506  0.0113  0.0867 -0.0877
25483W        W41377   8.929   8.428  12.674 -0.1162 -0.1910 -0.0677
25484W        W41378  15.541  15.317  15.927  0.0324  0.1716  0.5032
25485W        W41379  12.905   8.245  16.413 -0.1022  0.1395  0.3675
25486W        W41380   0.557   3.693  14.850 -0.0887  0.5769 -0.0023
25487W        W41381   4.870   9.038   3.102 -0.0703  0.0054  0.1999
25488W        W41382  13.755   6.836  14.904  0.2109  0.1030  0.0743
25489W        W41383  16.497   7.579  15.081 -0.0915  0.3059  0.1578
25490W        W41384   8.544   3.581   5.587  0.0608 -0.3183  0.3503
25491W        W41385   2.833  10.504   0.468 -0.1520  0.1469  0.2347
25492W        W41386  12.019   9.365   4.754 -0.0300 -0.1043 -0.3115
25493W        W41387  13.021  11.193   4.034 -0.3232 -0.0192 -0.0313
25494W        W41388   2.730   1.720   4.962  0.2746  0.0930 -0.1702
25495W        W41389   9.252  14.559  13.607 -0.3689  0.0973 -0.1179
25496W        W41390   8.167   4.633  13.208 -0.3393 -0.0076  0.1744
25497W        W41391  10.150  11.338   1.574 -0.2373 -0.1152 -0.1576
25498W        W41392  11.765  17.153   4.685  0.2185 -0.1960 -0.1365
25499W        W41393   2.982   4.974   2.348  0.0231  0.4714  0.1626
25500W        W41394   7.512   8.757   1.198 -0.1683 -0.2981 -0.1122
25501W        W41395   5.480  10.572  14.068  0.0116  0.1628  0.1259
25502W        W41396  12.059   5.692   4.305 -0.0495 -0.0068  0.0362
25503W        W41397   8.211  11.607   0.392 -0.0587 -0.0842  0.5139
25504W        W41398   8.555  17.925   3.740 -0.2588 -0.1721 -0.3485
25505W        W41399  13.244  17.480  15.328 -0.1074 -0.0090  0.0267
25506W        W41400   7.210  16.605  14.363  0.3412 -0.2024 -0.0274
25507W        W41401   6.622  12.926   1.539 -0.4758 -0.2925  0.1600
25508W        W41402  11.742   7.117  16.156 -0.0993 -0.0820  0.0379
25509W        W41403   3.188  14.512   3.102 -0.4400  0.0467  0.2935
25510W        W41404  12.006   0.388  16.133  0.2118  0.0906 -0.2229
25511W        W41405  12.690  15.367   4.743  0.3334 -0.1630 -0.1550
25512W        W41406  10.971  15.941  12.971 -0.2625  0.2425 -0.1646
25513W        W41407   4.719   8.271   2.408 -0.0588  0.0979  0.1777
25514W        W41408   5.788  11.120   1.990  0.1126  0.2519  0.3760
25515W        W41409   1.075  12.515  12.391  0.1048 -0.0515  0.0534
25516W        W41410   2.523  14.819  13.133  0.1408  0.2433 -0.0394
25517W        W41411  14.414   6.631  13.586  0.1398  0.0127  0.1882
25518W        W41412  12.034   5.721  15.470 -0.0536  0.2066 -0.4679
25519W        W41413  17.441  17.871   1.422  0.1576 -0.1344 -0.2907
25520W        W41414  14.994  11.805   2.981  0.2001 -0.0130 -0.1046
25521W        W41415   1.658  11.801   2.263  0.2445  0.0400 -0.0428
25522W        W41416   5.074   9.720  15.678  0.0969  0.2247  0.0555
25523W        W41417  12.006  13.806  14.530 -0.0162  0.1247 -0.0168
25524W        W41418  15.810   7.871   2.130  0.0300 -0.0241 -0.0318
25525W        W41419   3.826   9.151  15.662 -0.0817  0.0076 -0.0869
25526W        W41420   9.397   2.677  11.054 -0.0249  0.2336 -0.0942
25527W        W41421   4.612  10.923   4.081 -0.0604  0.1634  0.0092
25528W        W41422   9.277   8.216   3.427  0.0118  0.0587 -0.2487
25529W        W41423   1.842  15.375  16.450 -0.0746 -0.0854 -0.1233
25530W        W41424   2.132  12.764   0.244  0.0058 -0.0430 -0.0117
25531W        W41425  15.410   6.285  11.353 -0.2082  0.0037  0.3771
25532W        W41426   8.712  15.564  15.236  0.0284  0.2483  0.3909
25533W        W41427  10.577  17.328  12.587 -0.2787 -0.2822  0.0246
25534W        W41428  16.928  12.546   4.644  0.1680 -0.0556 -0.1896
25535W        W41429  16.222   1.591   5.221  0.0694 -0.1617  0.1292
25536W        W41430   5.651   4.554   3.712  0.0249 -0.3484 -0.0878
25537W        W41431   4.229  13.888   2.002 -0.3188  0.0368 -0.1254
25538W        W41432  14.041  12.394  16.064  0.4837 -0.1150  0.0068
25539W        W41433   7.217   4.194   4.670 -0.4584  0.1557  0.0428
25540W        W41434  11.126   8.309   5.992  0.0470  0.0746  0.0402
25541W        W41435  11.580   8.400  14.396  0.0121  0.1510 -0.0782
25542W        W41436   5.404  16.914  12.392  0.1691  0.1582  0.2259
25543W        W41437  17.040   2.457  14.512  0.1070 -0.1247 -0.0293
25544W        W41438   2.752  10.787   2.615 -0.0052 -0.2887  0.0030
25545W        W41439   8.686   3.058  14.479  0.1035 -0.4531  0.3583
25546W        W41440   5.797   0.411  12.620 -0.0778 -0.0158  0.3320
25547W        W41441   6.999   1.282  16.216 -0.2203 -0.2287 -0.1996
25548W        W41442   1.986  17.748   0.024 -0.1508  0.0925 -0.1119
25549W        W41443   5.803   0.071   0.835 -0.1392 -0.1018  0.2818
25550W        W41444   5.307   2.399  14.323 -0.0864 -0.1446  0.0590
25551W        W41445   7.961  17.078   4.583  0.1569  0.0411  0.3264
25552W        W41446   6.165  12.179   4.897  0.2486 -0.1385 -0.0688
25553W        W41447   0.321  10.439  13.228  0.1637  0.2298 -0.0914
25554W        W41448  10.720   6.975  14.051  0.2894 -0.2068 -0.0811
25555W        W41449  10.563  12.105   0.560 -0.0156  0.0332 -0.1050
25556W        W41450  13.224   3.197  11.763  0.2492 -0.2829 -0.3568
25557W        W41451  11.389   7.027   9.768  0.1693 -0.0783 -0.1294
25558W        W41452  12.731  13.954  13.077  0.0418 -0.1348  0.1378
25559W        W41453   4.308   9.401   0.917 -0.1080 -0.0450 -0.0201
25560W        W41454   8.316   9.888  13.261 -0.2134 -0.1810 -0.0883
25561W        W41455   8.694  10.054  10.871 -0.0825 -0.1892  0.0484
25562W        W41456   1.110   0.860   1.972 -0.0809 -0.1880 -0.1503
25563W        W41457  14.505   6.267  13.934 -0.0565 -0.0030  0.1290
25564W        W41458  17.312   7.293   3.595 -0.0388  0.3338  0.0710
25565W        W41459   2.433   5.050   2.803 -0.1794  0.0026 -0.2705
25566W        W41460   2.861  11.535   2.041  0.1140 -0.3029  0.0092
25567W        W41461   5.832   8.624  12.169  0.0587  0.2065 -0.3255
25568W        W41462   7.718  11.828   3.866 -0.2498  0.0809 -0.0794
25569W        W41463  14.820   7.415   0.868 -0.0081  0.0151  0.2270
25570W        W41464  15.372  17.903   1.763 -0.0650 -0.2647  0.1446
25571W        W41465   2.429   9.006   3.208  0.0578  0.0121 -0.2382
25572W        W41466   3.399  10.892   1.584 -0.2088 -0.2439  0.0379
25573W        W41467   6.905  11.668  15.313  0.0995  0.0586 -0.0691
25574W        W41468  18.136   8.070   6.336  0.1790  0.2165  0.2783
25575W        W41469   4.789   0.719  12.440  0.0159  0.1458 -0.1266
25576W        W41470   4.008  14.742  12.751 -0.0892 -0.2869  0.2154
25577W        W41471   0.560   0.898   0.940  0.0957  0.3283  0.0965
25578W        W41472  17.079  12.101   5.274 -0.0187  0.1577 -0.2053
25579W        W41473   7.625  11.313   3.734  0.1327 -0.0094  0.1283
25580W        W41474   8.278  10.284  12.983 -0.1449 -0.0070  0.0810
25581W        W41475   6.333  13.659   3.123 -0.0800  0.3116  0.3112
25582W        W41476   8.811   7.128  14.119 -0.3379  0.1183 -0.0097
25583W        W41477  11.429   3.269  12.945  0.0603  0.0951 -0.1289
25584W        W41478   5.152  15.074   0.338  0.0670  0.1312 -0.1649
25585W        W41479  12.195  15.517  14.995  0.2112  0.3954 -0.1695
25586W        W41480   6.866  16.387  14.690  0.0818 -0.0233 -0.0312
25587W        W41481  18.192   5.678  15.688 -0.0963  0.1939  0.4353
25588W        W41482   3.207   3.343  11.213  0.1265 -0.2216 -0.1682
25589W        W41483   4.943  16.631  16.162  0.3892 -0.2772 -0.0868
25590W        W41484  13.912   7.211   4.708 -0.3046 -0.0845  0.1225
25591W        W41485  13.247  10.158  13.069 -0.2637  0.1458 -0.4661
25592W        W41486   8.612  13.908   5.324 -0.1276  0.2886 -0.0121
25593W        W41487   7.154   8.805  14.856 -0.1337 -0.1993 -0.1373
25594W        W41488  11.542   6.863   0.102 -0.2320 -0.4091 -0.1675
25595W        W41489  11.245  11.635  14.163 -0.2118  0.2035 -0.0122
25596W        W41490  11.697   8.577  14.864 -0.0839  0.0950  0.1293
25597W        W41491   1.650  16.030  15.780 -0.1445 -0.1882  0.1562
25598W        W41492  17.587   5.983  15.212  0.1730 -0.0671 -0.0797
25599W        W41493  13.460  13.650   2.018  0.0629 -0.0371  0.1468
25600W        W41494   5.712   4.742   4.644 -0.0118  0.1545  0.0779
25601W        W41495  13.226   2.414  15.064  0.1625  0.0410 -0.0911
25602W        W41496   8.638   4.179   0.018  0.0870  0.0333  0.0165
25603W        W41497   8.675   2.419   1.414  0.0467 -0.0831  0.3025
25604W        W41498   6.565  15.040  14.861 -0.0317  0.0177 -0.0759
25605W        W41499  17.326   4.536  13.764  0.1263  0.0800  0.3101
25606W        W41500   0.390  11.437  14.860 -0.0009  0.2753 -0.1637
25607W        W41501   8.205  12.333  14.656 -0.0592 -0.1471  0.1637
25608W        W41502   9.327  13.278  14.474 -0.1583 -0.2039  0.0640
25609W        W41503   5.959  12.801  15.694  0.0625 -0.1444  0.0405
25610W        W41504  17.727   7.618   4.934  0.0647  0.0108 -0.4922
25611W        W41505   6.953  11.548   6.035 -0.0191  0.3159 -0.1570
25612W        W41506  17.224  17.190   5.454 -0.5350 -0.4150 -0.1385
25613W        W41507  13.818   1.535  12.204  0.0468  0.2299 -0.0418
25614W        W41508   8.879  15.826  12.586  0.0198  0.1348  0.3204
25615W        W41509   6.674  14.160   3.777 -0.0437  0.4418  0.1544
25616W        W41510  13.713  11.335   2.210 -0.0035  0.3991 -0.0888
25617W        W41511   2.056   6.318  13.854  0.0566 -0.0216  0.0360
25618W        W41512   2.752   8.167  12.488  0.0078 -0.3355  0.3982
25619W        W41513   5.868  10.811  14.325  0.1480 -0.0545  0.1633
25620W        W41514   8.724  10.414   5.964  0.0228  0.2035 -0.2800
25621W        W41515  10.746  17.075  15.885 -0.0459  0.3830 -0.1369
25622W        W41516   9.055   9.225  12.838  0.0712  0.2806 -0.1403
25623W        W41517   4.498   6.611  12.154  0.1795 -0.0153  0.2038
25624W        W41518   4.912   3.921   2.318  0.0450 -0.0903 -0.1668
25625W        W41519  11.758   8.295  16.181 -0.3244 -0.1126 -0.1343
25626W        W41520  14.610   6.093  12.483  0.2899  0.1029  0.0764
25627W        W41521  12.771  18.095   3.524 -0.1291 -0.0260  0.2119
25628W        W41522  12.290   8.733   3.162  0.0386 -0.0284  0.0980
25629W        W41523   4.682   0.372   1.303 -0.2589 -0.0290 -0.0392
25630W        W41524   2.066   5.822  13.914  0.1816 -0.0680  0.0097
25631W        W41525  12.059  17.023  13.043 -0.1523 -0.2075 -0.1675
25632W        W41526  10.183   6.088  10.888 -0.0491 -0.1626  0.2228
25633W        W41527   3.070  17.563   3.359  0.1510 -0.0838  0.2305
25634W        W41528   1.181  16.224   3.552  0.1958 -0.2847  0.0174
25635W        W41529  16.297  18.045   3.573 -0.2262 -0.1351 -0.0753
25636W        W41530   6.889   3.266   2.763  0.3391 -0.1578 -0.2074
25637W        W41531   0.883   8.475  14.529 -0.2378 -0.0926 -0.3856
25638W        W41532   9.633  15.830  14.084  0.0895 -0.0185  0.0086
25639W        W41533   7.869  12.437  11.222  0.2546 -0.1815  0.2456
25640W        W41534  14.516  13.400  12.248 -0.2399 -0.1609  0.1201
25641W        W41535   0.637   9.756   1.241 -0.0087 -0.2877 -0.0039
25642W        W41536  18.099  17.151   5.040  0.1444 -0.2153 -0.0833
25643W        W41537  15.952  11.275  12.586  0.0283 -0.1064 -0.1457
25644W        W41538  17.938   2.407  15.939 -0.0234  0.0679  0.0764
25645W        W41539   2.795  15.058   0.068 -0.1225 -0.0713 -0.0582
25646W        W41540   5.308   1.692   5.735  0.2654 -0.4429 -0.0395
25647W        W41541   4.483  11.084   4.625 -0.0239  0.0967  0.1162
25648W        W41542   2.723   8.098   5.020 -0.1312  0.1904 -0.2249
25649W        W41543   7.074   8.504  12.857  0.4344 -0.2560  0.1643
25650W        W41544  13.673   1.671   1.344  0.2383 -0.1879 -0.0284
25651W        W41545  13.896   4.611   4.881  0.0144  0.0165  0.1131
25652W        W41546  10.103   0.261   3.259 -0.1686  0.1862  0.0415
25653W        W41547  11.451  10.239  15.495 -0.6219  0.2353 -0.1324
25654W        W41548  10.027  11.896   4.798 -0.0014 -0.0360 -0.3490
25655W        W41549   4.663   3.483  13.847  0.3748 -0.0795 -0.3650
25656W        W41550  12.901   3.528   0.129 -0.1226 -0.0984  0.1991
25657W        W41551   0.211   8.550   2.011 -0.3163  0.1374  0.0128
25658W        W41552   9.721   3.587   2.583 -0.5086  0.1412 -0.0774
25659W        W41553   1.142  12.129   4.843 -0.1589  0.0696  0.0038
25660W        W41554   0.618   7.989   1.390 -0.0798  0.0248  0.4694
25661W        W41555   9.853   7.378  12.641  0.1183 -0.0650  0.0989
25662W        W41556   4.211   0.845  13.504  0.2911 -0.2762 -0.0679
25663W        W41557  14.752  10.145  12.890  0.1301 -0.3234 -0.0279
25664W        W41558  13.440   5.340  14.871 -0.1196  0.0901  0.1321
25665W        W41559   1.279  13.076   0.660 -0.0885  0.3351  0.0814
25666W        W41560   5.080   0.909  15.606  0.1779 -0.1125  0.0576
25667W        W41561   5.931   3.535   5.317  0.2083 -0.0337  0.1621
25668W        W41562  10.812   9.447   3.378 -0.1022  0.0123  0.2001
25669W        W41563   0.622   0.731   5.336  0.0555 -0.1993 -0.3473
25670W        W41564  11.446  14.384  13.919  0.1908 -0.1476 -0.3877
25671W        W41565  10.848  17.238   5.028 -0.0153  0.0075  0.2530
25672W        W41566   8.329  10.188   2.060  0.2594 -0.0743 -0.1233
25673W        W41567   2.876   5.520  12.329 -0.0834  0.1345  0.0253
25674W        W41568  13.653   7.823  13.925 -0.0992  0.1183  0.1012
25675W        W41569  12.391  12.187   4.314 -0.1325  0.5165 -0.0779
25676W        W41570  17.748   1.840  12.900  0.0020 -0.2002  0.2032
25677W        W41571   9.436  10.522   1.960  0.0898  0.1279 -0.0199
25678W        W41572  16.514  12.585  13.822 -0.1440 -0.0029  0.2174
25679W        W41573   8.284   7.422  15.838  0.0039 -0.0960 -0.0289
25680W        W41574   3.309  13.973   1.301  0.1278 -0.2838 -0.0510
25681W        W41575   0.460  15.274  11.907  0.0445  0.3642 -0.1164
25682W        W41576  14.366  15.512   2.271 -0.1135  0.0200  0.1609
25683W        W41577  16.335  15.620   0.574  0.1317 -0.3455  0.1923
25684W        W41578  16.924   9.096  13.885  0.1815 -0.0555  0.2097
25685W        W41579  13.623  16.614   0.667  0.2493  0.1616 -0.4385
25686W        W41580  12.072   8.589  14.016  0.3000 -0.0713 -0.0579
25687W        W41581  15.745   5.982  12.579  0.0174  0.1496 -0.2721
25688W        W41582  15.744   2.145   2.229  0.1454 -0.3228 -0.0422
25689W        W41583   6.915   9.001  15.291 -0.2749  0.3202 -0.0386
25690W        W41584  12.025  11.770   2.977 -0.1361 -0.5180 -0.1869
25691W        W41585   3.272   7.135  13.640  0.2777  0.0096  0.2173
25692W        W41586  14.537   6.391   2.483  0.1759 -0.3106  0.0926
25693W        W41587   7.056  15.139   4.201 -0.1327  0.2149  0.0462
25694W        W41588  13.851  15.384   1.619 -0.1188  0.3181  0.0174
25695W        W41589  14.827   1.313  15.176  0.0600  0.2168 -0.1902
25696W        W41590  11.214   7.263   4.972 -0.1660 -0.0460  0.1299
25697W        W41591   2.057  12.870  12.046  0.2252  0.1405 -0.1735
25698W        W41592  11.217  14.189  13.524 -0.2702 -0.1536 -0.0078
25699W        W41593   9.472   2.352   1.385  0.0661 -0.2173  0.0967
25700W        W41594  17.412  14.126   3.626  0.1675  0.5907  0.0148
25701W        W41595  13.434   6.707  12.964  0.2135  0.1686  0.0350
25702W        W41596  11.198   5.352   2.902 -0.1085 -0.0518  0.2297
25703W        W41597  16.561  14.415  11.578 -0.0750 -0.2037  0.1886
25704W        W41598  15.261  12.529  16.400  0.1856 -0.1653  0.0742
25705W        W41599  18.185   2.164  13.100 -0.1123  0.0975  0.0660
25706W        W41600  11.409  15.942   2.972 -0.0873 -0.3402  0.1392
25707W        W41601   7.936  17.330   1.624 -0.1201  0.1203  0.1560
25708W        W41602   8.438   1.225   5.155  0.0954 -0.1982 -0.0383
25709W        W41603   7.904   3.149   5.740  0.2385 -0.0371 -0.0209
25710W        W41604   8.883   4.532  12.602  0.0297 -0.0880 -0.0940
25711W        W41605   7.033   8.933  12.524  0.6674  0.2450 -0.2794
25712W        W41606  12.135   9.169   2.864  0.1903  0.3337 -0.2747
25713W        W41607  12.061   5.280   3.415 -0.3802 -0.1127  0.0544
25714W        W41608  10.781   7.044  11.509 -0.1727 -0.0556 -0.2875
25715W        W41609   0.418   8.875   0.533  0.0848  0.1177 -0.1589
25716W        W41610  15.853   9.878   3.021 -0.1376 -0.0337  0.1299
25717W        W41611   9.902   0.910   4.400  0.1466  0.1637 -0.3513
25718W        W41612   2.653   2.277   0.339  0.2497 -0.0203  0.0499
25719W        W41613  17.264   3.818   0.964 -0.0477  0.1364  0.0894
25720W        W41614   0.784  16.882   4.710  0.0916 -0.1046 -0.1434
25721W        W41615   0.566   6.683   4.128  0.0785  0.2665 -0.2225
25722W        W41616   6.309   2.051  15.249 -0.0759 -0.0947 -0.0438
25723W        W41617   1.879   5.776  12.548 -0.0588  0.0814  0.0747
25724W        W41618   9.001   8.986   1.092 -0.0436 -0.1474  0.5122
25725W        W41619  10.803   3.106  11.419  0.1866 -0.1297  0.3402
25726W        W41620  13.033  10.587   1.394 -0.2098 -0.5743  0.2489
25727W        W41621  17.824   6.356  13.379  0.1425  0.0765  0.4425
25728W        W41622   5.145  15.871   5.000 -0.3012 -0.2781 -0.2090
25729W        W41623  10.970   2.986   4.484 -0.0311  0.1202  0.1587
25730W        W41624  15.315  14.938   0.524  0.0796 -0.0675 -0.1829
25731W        W41625   4.956  12.542   1.284 -0.2931 -0.0560 -0.1402
25732W        W41626  10.209   9.236   4.544 -0.0791  0.1316 -0.0541
25733W        W41627   6.276  13.767   3.733  0.3639  0.1249 -0.0462
25734W        W41628   9.083  16.306   4.419  0.0026  0.1336  0.1120
25735W        W41629  15.465  11.803  14.257 -0.2133  0.0141  0.0791
25736W        W41630  14.747  14.444   4.039 -0.2682  0.1808  0.3022
25737W        W41631  13.439  13.723  13.380  0.3063  0.1467  0.2123
25738W        W41632  18.128  15.900   4.046 -0.0373  0.1431 -0.0088
25739W        W41633  17.575   6.747  14.802  0.0267 -0.0829  0.2201
25740W        W41634   7.939   2.212  12.055  0.1757  0.1719 -0.2450
25741W        W41635  15.107   1.361   0.910  0.0246  0.1542  0.1260
25742W        W41636   4.582   4.194  13.439 -0.2599 -0.0998  0.1970
25743W        W41637  17.539   2.211   1.772  0.0290 -0.0029  0.0993
25744W        W41638  13.885  14.846  12.137 -0.2877  0.1577  0.3705
25745W        W41639   5.386   6.217  12.693  0.1434 -0.0693  0.1474
25746W        W41640  17.349  11.462   0.490  0.0172  0.2570  0.1170
25747W        W41641   8.716   4.640  13.075  0.0834 -0.1592  0.3052
25748W        W41642   8.207  10.637   3.253 -0.1975 -0.1080  0.1086
25749W        W41643   2.464   6.599   3.882 -0.1978 -0.0199 -0.1671
25750W        W41644   9.619   6.904   1.466 -0.0510  0.1870  0.0937
25751W        W41645   9.288   0.924  13.418 -0.0009  0.3225  0.0112
25752W        W41646   5.120  12.233  12.577 -0.4241  0.1733  0.0292
25753W        W41647  12.343   8.223   3.431  0.0321  0.1999 -0.1706
25754W        W41648   9.223  16.878   5.427 -0.0676  0.2318  0.3275
25755W        W41649   6.019   8.460   0.958 -0.0820  0.6270  0.2428
25756W        W41650   1.495   2.327  15.154 -0.0739 -0.2393  0.0240
25757W        W41651   8.537  13.393   3.787  0.2583 -0.3338 -0.0321
25758W        W41652  16.251  10.028   0.094  0.0616  0.2567  0.0770
25759W        W41653   6.533  13.368   1.928  0.1159 -0.2676  0.0526
25760W        W41654  12.339  11.641  14.901  0.1836 -0.0111  0.1717
25761W        W41655  16.857   4.484   5.581 -0.1375  0.2997 -0.0357
25762W        W41656   3.822  12.688  11.947 -0.2305 -0.1356  0.1338
25763W        W41657  10.528   6.815   1.372  0.1120 -0.0022 -0.0571
25764W        W41658  16.017  12.481   4.758  0.0131  0.0036  0.2833
25765W        W41659  12.771  13.442   2.598  0.0321  0.2434 -0.2463
25766W        W41660  11.234  10.426   5.382  0.0165 -0.0976  0.2309
25767W        W41661  18.012  12.300  12.085  0.4060  0.1984  0.1190
25768W        W41662   9.585  18.059  12.559  0.2098 -0.1232  0.3501
25769W        W41663   0.972  13.845   4.040  0.1836 -0.0907  0.4355
25770W        W41664  12.685  15.564  15.258 -0.3877 -0.1558 -0.0739
25771W        W41665   0.434  15.373   0.834  0.1452  0.2034  0.1760
25772W        W41666  14.122   0.786   1.655 -0.1047 -0.0611 -0.2004
25773W        W41667   3.910   5.329  15.799  0.3885 -0.5331 -0.5081
25774W        W41668   6.641   0.757  12.592  0.0643 -0.1002 -0.2623
25775W        W41669   6.242   1.658  11.885 -0.3256  0.2218 -0.0103
25776W        W41670  11.058   8.677  12.448 -0.0923  0.1459  0.2734
25777W        W41671   2.720  16.346  11.729 -0.0627  0.2154 -0.1759
25778W        W41672   1.731  14.601  15.436  0.1926  0.2222 -0.1165
25779W        W41673  14.809   2.579  13.980  0.2508  0.3475  0.1121
25780W        W41674   1.605  11.410   1.426 -0.2336  0.0633  0.0705
25781W        W41675  18.206   5.384   2.887 -0.0232 -0.1436 -0.3386
25782W        W41676   6.865  12.269  15.683  0.0377 -0.0988  0.1580
25783W        W41677   3.143   1.250   0.456  0.2206  0.3044 -0.1808
25784W        W41678   6.296   2.213  12.951  0.1770 -0.1254 -0.0582
25785W        W41679  12.000   1.441   4.059  0.0432 -0.2134  0.1409
25786W        W41680  10.313   9.048   2.135  0.0401  0.2833 -0.0069
25787W        W41681  11.402   4.367   5.475  0.0281  0.1102 -0.0063
25788W        W41682   7.472  12.091  12.021  0.0500  0.0677 -0.1067
25789W        W41683   3.238   6.655   1.311  0.2501 -0.0997 -0.0939
25790W        W41684  15.380  17.304  13.986 -0.1077  0.0539 -0.1646
25791W        W41685   3.928   6.774   0.185  0.0475  0.2044  0.0995
25792W        W41686   6.315  10.558   6.318  0.0295 -0.2817  0.2606
25793W        W41687   7.866  11.243   4.701  0.0664  0.0210  0.0599
25794W        W41688   3.148   8.200   4.587 -0.0491  0.4105  0.1692
25795W        W41689  16.843   2.634   0.205 -0.1120  0.0997  0.1539
25796W        W41690   7.402  15.678   5.086  0.3348 -0.1973 -0.0225
25797W        W41691   6.289  17.926   4.816 -0.2939  0.0262 -0.1339
25798W        W41692  13.161   2.011  13.850  0.0732 -0.0121  0.0777
25799W        W41693  11.398   1.008  15.378  0.0376  0.1507 -0.0765
25800W        W41694  11.950  13.340  11.855  0.0402 -0.0299 -0.1968
25801W        W41695   8.712   1.862   0.391  0.0167  0.3059 -0.0896
25802W        W41696  16.735  13.707   4.693 -0.2484  0.0666  0.1964
25803W        W41697   7.786   3.834  15.778  0.1136 -0.0601  0.3014
25804W        W41698  15.393   1.277   3.433  0.1486 -0.1149  0.1914
25805W        W41699   4.205  10.588   4.812  0.3130  0.2336  0.3059
25806W        W41700   0.604   2.215   1.745 -0.0342 -0.2044 -0.5025
25807W        W41701   3.600   6.741  15.770 -0.3822 -0.0822  0.0047
25808W        W41702   6.954   6.092  15.396 -0.0983  0.0412  0.2090
25809W        W41703   0.809   4.962  13.251 -0.1306 -0.2136 -0.1339
25810W        W41704  14.898   0.299   1.387  0.1125  0.0184  0.1499
25811W        W41705   1.090  14.782   0.524 -0.1061 -0.1693 -0.1724
25812W        W41706  11.025  10.213  13.057  0.0046 -0.3622 -0.4069
25813W        W41707   6.002   8.139  14.678 -0.1451  0.0610  0.1287
25814W        W41708   1.756   6.783   3.227  0.1271 -0.1524  0.1355
25815W        W41709   8.861   6.884  11.681  0.3691 -0.0301 -0.1782
25816W        W41710   9.887  11.195   0.807 -0.3499 -0.2000 -0.1778
25817W        W41711  10.912  11.567  16.038  0.3551 -0.0128  0.0790
25818W        W41712  16.867  11.664   3.406 -0.0891  0.1625  0.1621
25819W        W41713   4.499  16.865  15.930 -0.0795  0.2773  0.1045
25820W        W41714   2.627   8.687  13.713  0.2095  0.3503 -0.1512
25821W        W41715   3.574  17.646  14.185 -0.1539  0.3217  0.0616
25822W        W41716   8.634  16.142   1.769  0.1027  0.0344  0.1221
25823W        W41717  17.660  16.407  14.522 -0.1918  0.1766  0.0608
25824W        W41718   3.767  14.935   2.752  0.0450 -0.0375 -0.2834
25825W        W41719  17.328  16.036  14.616  0.4143 -0.0093  0.0887
25826W        W41720  14.535  15.928  13.054 -0.0548 -0.1491 -0.4220
25827W        W41721  12.510  16.220   3.731  0.3528  0.0771 -0.0720
25828W        W41722   1.061  16.616  13.736  0.0996 -0.1512 -0.1189
25829W        W41723  15.291  14.165   5.725  0.1328  0.0893 -0.0695
25830W        W41724   7.294  17.566  10.215  0.0986 -0.2089 -0.0864
25831W        W41725   8.322   7.144   3.044  0.2451  0.3071  0.1053
25832W        W41726  14.646  11.073   0.893 -0.0017  0.0945  0.0406
25833W        W41727  11.197   8.288  15.877  0.2881  0.0355  0.3378
25834W        W41728   6.022   2.673   0.278 -0.0739  0.2422 -0.1697
25835W        W41729   8.995  10.116  12.651  0.0952 -0.0655 -0.0272
25836W        W41730  17.474   9.295   4.392 -0.2390  0.2882  0.0264
25837W        W41731   0.250   8.625  15.941 -0.2770  0.2680 -0.0969
25838W        W41732  10.227   4.671   0.132  0.1227  0.1077 -0.2200
25839W        W41733  16.864  17.287   3.765 -0.0648 -0.1687 -0.3004
25840W        W41734  17.322  15.868   0.003  0.0018  0.1745 -0.0059
25841W        W41735  10.731  13.823   4.992 -0.1606 -0.2849 -0.0875
25842W        W41736  13.851   3.758   5.497  0.2859 -0.0516  0.1245
25843W        W41737  14.260   4.638   3.642  0.3683 -0.0924 -0.1429
25844W        W41738   3.060  10.062  15.203 -0.0784 -0.0075 -0.0876
25845W        W41739   2.441   1.295  12.229  0.0279  0.0008 -0.0955
25846W        W41740  16.242   5.666   1.198  0.0853  0.6351 -0.1202
25847W        W41741  13.390   6.646   0.369  0.0825 -0.1404  0.0366
25848W        W41742  16.506  16.411  12.718 -0.2442 -0.1621 -0.0548
25849W        W41743   5.784   9.714  12.580 -0.1250 -0.1201  0.0504
25850W        W41744   8.267   8.764   5.111  0.1250  0.3385  0.1048
25851W        W41745   9.106   3.767  14.737 -0.1166  0.1060  0.1043
25852W        W41746   8.839  10.060  11.772 -0.0801  0.4232  0.1298
25853W        W41747   4.820  14.137   3.007  0.0161 -0.0826  0.3877
25854W        W41748  17.932   7.724  12.679 -0.0023 -0.2561  0.0247
25855W        W41749  16.534  14.030   6.194  0.2084  0.0565  0.0245
25856W        W41750  17.409   1.393  16.434 -0.3024  0.1493 -0.0018
25857W        W41751   4.401  17.869  13.877 -0.1890 -0.1040 -0.0534
25858W        W41752  16.801  15.872  12.153 -0.1892 -0.0418  0.2495
25859W        W41753   2.896  17.954  12.719 -0.2346 -0.0624 -0.0184
25860W        W41754  12.620  18.156  15.937  0.0702 -0.1817 -0.0635
25861W        W41755   8.111   3.078   1.478  0.1657  0.0597 -0.0347
25862W        W41756  10.566   1.240  14.639 -0.0268 -0.0138 -0.0261
25863W        W41757  17.787  16.291   4.771 -0.0944  0.0162 -0.1309
25864W        W41758  17.193   0.252   3.455 -0.2065  0.0054 -0.2685
25865W        W41759  12.221   6.933  16.007  0.0310  0.0589 -0.0100
25866W        W41760   5.526   0.953  16.216 -0.1285 -0.0357  0.0149
25867W        W41761  14.575   7.223  14.956 -0.0707  0.2973 -0.0978
25868W        W41762   7.100   5.774   4.146 -0.2336  0.0251  0.3734
25869W        W41763  10.424  14.790  11.597  0.0473  0.0607  0.1893
25870W        W41764  12.580   8.739  13.215  0.1267 -0.0971 -0.0098
25871W        W41765   7.369   6.543   1.263  0.2821  0.3207  0.0011
25872W        W41766   3.849   3.742   4.430  0.2059  0.1698 -0.1895
25873W        W41767   0.949  13.554  12.657 -0.0517 -0.1625  0.1370
25874W        W41768  16.354  10.571   4.454 -0.0918  0.1027 -0.1513
25875W        W41769  14.563  13.839   1.815  0.3159 -0.0725 -0.0481
25876W        W41770   3.940  11.198   3.612 -0.5730 -0.0446 -0.0966
25877W        W41771  11.740  11.622  13.964 -0.2725  0.1741 -0.1128
25878W        W41772   8.528   3.814   3.180 -0.1254 -0.0069 -0.0772
25879W        W41773  16.076   5.956  13.504 -0.1765  0.0005  0.1879
25880W        W41774  12.285  15.031  11.069 -0.1697 -0.0579  0.1627
25881W        W41775   5.969   5.042  11.569  0.1309  0.2132 -0.0210
25882W        W41776   3.684  10.085  15.965  0.0012  0.2129 -0.0261
25883W        W41777   4.922   6.876   2.887 -0.3057 -0.0849  0.0771
25884W        W41778  16.272   8.160   3.992 -0.1702 -0.4129  0.2607
25885W        W41779  11.317  11.453  13.050  0.0469  0.1942 -0.2159
25886W        W41780   4.875   8.192   4.529  0.0419  0.0951  0.1178
25887W        W41781  12.053   6.437   5.137 -0.2603 -0.1409  0.1829
25888W        W41782  13.264   8.839   3.749 -0.2587 -0.1801  0.2390
25889W        W41783  14.473   0.815   5.626  0.1003 -0.0149  0.1598
25890W        W41784  12.390  17.781   3.359  0.2296  0.1061 -0.3264
25891W        W41785   3.128   8.813  14.517 -0.3712 -0.1408 -0.3082
25892W        W41786  12.293   7.564  16.006 -0.1273 -0.0034 -0.0076
25893W        W41787   4.748   3.687   3.756  0.4759 -0.0699 -0.2113
25894W        W41788   2.321   1.801  12.172 -0.2422 -0.0317  0.0588
25895W        W41789   6.517  14.915  13.425 -0.1747  0.0233 -0.0271
25896W        W41790  17.216  16.736  11.776  0.1619  0.0290 -0.2557
25897W        W41791   1.204   8.271   2.297 -0.1151  0.1592 -0.0955
25898W        W41792  12.945  13.004  13.750  0.0421  0.0157 -0.2132
25899W        W41793  17.667  11.031   4.477  0.0515  0.0667  0.3531
25900W        W41794  18.238  18.180   5.754 -0.1426  0.0758  0.0234
25901W        W41795   8.992   0.137   3.627 -0.2683  0.1161 -0.1289
25902W        W41796  14.272   4.742  15.008  0.0023 -0.1191  0.1544
25903W        W41797   9.409   4.588   4.558  0.2615  0.1036  0.1046
25904W        W41798   5.280   0.437   5.117  0.5435  0.0807 -0.2261
25905W        W41799   9.572  13.659  14.198  0.0575 -0.1756  0.2870
25906W        W41800   9.874   1.645   3.176 -0.1537  0.0275 -0.2943
25907W        W41801   7.282   5.546   4.570 -0.0743  0.0842  0.0095
25908W        W41802   4.419   0.912   5.014  0.0193 -0.1725  0.1367
25909W        W41803   0.338   2.367  13.411  0.2595 -0.4465 -0.4857
25910W        W41804   7.611  15.769  15.196  0.0316 -0.2595  0.0516
25911W        W41805  15.907   9.007   2.782  0.1095 -0.0004 -0.1372
25912W        W41806   0.418  17.055   3.843 -0.1970 -0.0054 -0.2041
25913W        W41807   0.103   7.303   2.972 -0.0622 -0.2683  0.0764
25914W        W41808   9.326  17.244  15.018  0.2037 -0.2174 -0.0985
25915W        W41809   7.522   4.281  12.865 -0.2797  0.1401  0.1448
25916W        W41810   4.174  17.260  15.807  0.0964 -0.1435 -0.1383
25917W        W41811   3.678   2.322  13.743 -0.2382 -0.0171 -0.1623
25918W        W41812  15.403  10.045  14.097  0.1347 -0.0258  0.1426
25919W        W41813   2.896   1.632  16.231 -0.0110 -0.3095 -0.2870
25920W        W41814  17.229  10.846   1.433  0.1165  0.0960 -0.2440
25921W        W41815   6.992   3.315   1.951 -0.1207 -0.1007 -0.1644
25922W        W41816  16.222   5.142  14.417 -0.0210 -0.2475 -0.1944
25923W        W41817  12.432   5.442  14.846  0.3310  0.0269 -0.2204
25924W        W41818   8.516   7.867  14.281 -0.0770 -0.2862  0.3398
25925W        W41819  13.596   3.516   1.299  0.0784 -0.0602  0.0939
25926W        W41820  15.861   8.806   1.663 -0.1928  0.4371  0.3699
25927W        W41821   4.495   0.751   2.540 -0.3098  0.1488  0.2966
25928W        W41822   5.507  12.649  15.405  0.1659  0.2828 -0.2532
25929W        W41823   8.076   1.839  15.280  0.0549 -0.2827 -0.0089
25930W        W41824   4.907  11.009  11.635  0.2570  0.0497 -0.1122
25931W        W41825  17.134  13.432  11.732  0.1384  0.2300 -0.0471
25932W        W41826  16.287   9.365  11.704 -0.4993  0.0143 -0.4064
25933W        W41827   3.950   2.709  12.037 -0.2663 -0.0161 -0.0507
25934W        W41828   3.329   5.363   3.626 -0.0397  0.1204 -0.0220
25935W        W41829   0.145  12.303  15.268  0.0914  0.0706  0.2721
25936W        W41830  10.797   6.773  11.062  0.0910 -0.0385  0.0830
25937W        W41831  17.036   9.188   3.395 -0.2211 -0.0371  0.0008
25938W        W41832   0.018  16.522   4.950 -0.0452  0.2482  0.0563
25939W        W41833  12.102  10.791  10.480  0.1338 -0.0810 -0.0474
25940W        W41834   9.529  11.901  12.810 -0.1418  0.4561 -0.3664
25941W        W41835   3.925   4.511  16.411 -0.2181  0.0924  0.1182
25942W        W41836  16.347   3.486   4.744  0.0032  0.0804 -0.2422
25943W        W41837  13.276   3.172   3.000 -0.0113  0.0010  0.2145
25944W        W41838  18.120  10.968   3.949  0.0197  0.1697  0.3339
25945W        W41839  14.401   3.130  12.490  0.0729 -0.1256 -0.1686
25946W        W41840  10.063   4.919  14.175  0.2442  0.0536  0.0197
25947W        W41841   4.988  14.627   5.342 -0.2866  0.1725 -0.1101
25948W        W41842   4.957  12.557  15.601 -0.4224  0.1588 -0.2530
25949W        W41843  12.545   6.743  14.054 -0.2768 -0.0363  0.0306
25950W        W41844  16.258  17.407   0.964  0.2905 -0.0562 -0.0801
25951W        W41845   6.099   0.965  13.571  0.2008 -0.0326  0.1816
25952W        W41846   0.110  15.807   3.378 -0.0215  0.1534  0.0930
25953W        W41847   2.076   6.210   0.764 -0.1957  0.0724 -0.2760
25954W        W41848  13.191   0.735   3.131 -0.2292 -0.2854 -0.0382
25955W        W41849   4.217   3.069  11.772 -0.1604 -0.1162 -0.0469
25956W        W41850   1.966  12.588   3.412 -0.1799 -0.1441  0.0753
25957W        W41851  10.801   3.102   5.512  0.1045  0.1085 -0.3072
25958W        W41852   6.454  17.408  15.951  0.0157 -0.0628 -0.3163
25959W        W41853  17.664  15.224   2.332  0.0166  0.0796  0.0998
25960W        W41854  17.624  11.060   6.667 -0.2393  0.2436  0.0455
25961W        W41855   8.704   6.189   0.279 -0.2145  0.0403 -0.0617
25962W        W41856  17.779  10.343  15.654 -0.0797 -0.2897  0.1071
25963W        W41857  17.848   0.370  14.813  0.0440 -0.2488 -0.1084
25964W        W41858  17.312  17.628  15.512  0.1815  0.1099  0.1833
25965W        W41859  17.214   8.889   6.135  0.2002 -0.3150  0.1331
25966W        W41860   5.037   4.758  15.318  0.0748  0.2618  0.1898
25967W        W41861   6.903   4.196  14.710  0.0628 -0.3497  0.0167
25968W        W41862  15.705   6.775   4.552 -0.0640  0.1218 -0.0500
25969W        W41863   4.502   1.524  12.996  0.2004  0.0478 -0.4169
25970W        W41864  15.831  18.017   3.604 -0.2889  0.0508  0.1920
25971W        W41865  12.927   6.835  16.046 -0.1007 -0.0624 -0.2262
25972W        W41866  15.817  11.571   5.969  0.1392  0.2312  0.2262
25973W        W41867   0.643   6.567   1.899 -0.4676  0.1456  0.2623
25974W        W41868   0.045   0.418   2.909 -0.0004  0.1000  0.0501
25975W        W41869  15.009  12.934   2.260  0.1036 -0.3260 -0.0241
25976W        W41870  16.816  13.731  13.391 -0.2275  0.1523  0.0846
25977W        W41871   5.400  10.855  15.106  0.2477 -0.2434 -0.2325
25978W        W41872  17.202  16.646   0.192 -0.0520 -0.2928  0.1534
25979W        W41873   4.271  17.292   2.029 -0.0208 -0.0658  0.2215
25980W        W41874   7.254   5.421   0.112  0.2218  0.1334  0.0636
25981W        W41875   0.524   6.950  11.932  0.0625 -0.0408 -0.1704
25982W        W41876  13.917   9.029  12.718 -0.1925 -0.2548 -0.1917
25983W        W41877  17.548  14.359  13.238 -0.0436  0.1479 -0.0480
25984W        W41878  17.241   8.452  14.635 -0.2856  0.1819 -0.1254
25985W        W41879   9.846  15.622   6.410 -0.1753  0.1056 -0.0117
25986W        W41880   3.737  12.822   4.239 -0.0682 -0.0238  0.0352
25987W        W41881   7.702   1.983   4.301  0.0356  0.0261 -0.2335
25988W        W41882   7.260   2.407   0.589  0.4151 -0.0832  0.0158
25989W        W41883   5.514   2.576   2.969  0.4117 -0.1245  0.0228
25990W        W41884   9.016   6.725   2.746 -0.0756  0.1450 -0.1353
25991W        W41885   1.440  14.216   1.899 -0.2628  0.1630 -0.0002
25992W        W41886  12.081  14.284  11.791 -0.0277  0.2090 -0.1025
25993W        W41887  17.020  15.067   3.716  0.2002 -0.3739  0.0332
25994W        W41888  14.728   0.092   0.346 -0.0441  0.0324 -0.2479
25995W        W41889  11.124   0.667   0.013 -0.2160  0.2282  0.1667
25996W        W41890  13.691  11.492  16.268  0.1629  0.0464  0.0279
25997W        W41891   3.159   6.548   2.608 -0.0608  0.0590 -0.2444
25998W        W41892  16.850  16.057  14.420  0.1218  0.2548 -0.0861
25999W        W41893  10.002   3.474  14.808 -0.1748 -0.2673  0.0629
26000W        W41894   5.745  11.558   4.937 -0.1901 -0.1283 -0.0204
26001W        W41895   9.075  15.447   1.378  0.0391  0.2543 -0.1896
26002W        W41896   4.353  15.200   2.498 -0.1088 -0.0422  0.1160
26003W        W41897   9.206   7.664   2.498  0.0785  0.1874  0.0350
26004W        W41898  12.725   9.999  12.253  0.0191 -0.3873 -0.0938
26005W        W41899   9.657   9.501   6.197  0.0427 -0.0285 -0.1040
26006W        W41900   8.447   5.238  16.450 -0.0800 -0.1380  0.1540
26007W        W41901  16.402  15.240   4.734 -0.2933 -0.0921 -0.2284
26008W        W41902   5.447   5.498  10.394 -0.2290  0.1321  0.0720
26009W        W41903   5.302   0.003   3.858 -0.2159  0.0785 -0.2513
26010W        W41904  17.379   8.953   1.583 -0.1040  0.0496 -0.4894
26011W        W41905   2.454   1.557   1.650 -0.1091  0.0761 -0.2626
26012W        W41906   0.558   2.566   4.668 -0.1436 -0.2960  0.2507
26013W        W41907  14.798   1.223   3.716  0.3629  0.2947 -0.3211
26014W        W41908  15.736   4.261  15.332 -0.1684 -0.1897  0.0091
26015W        W41909  11.496   5.486   0.410  0.1541 -0.3729 -0.1986
26016W        W41910  11.558   6.091  10.759  0.0185 -0.0530 -0.0818
26017W        W41911   8.290   1.688   0.188 -0.0728  0.2824 -0.1018
26018W        W41912  12.864  15.570   2.772 -0.0154 -0.1094  0.0045
26019W        W41913  17.867  17.326   4.607  0.1562  0.0188  0.1854
26020W        W41914   5.706   3.149   4.782 -0.1930 -0.1204 -0.0429
26021W        W41915   5.539  10.833  13.599  0.4028 -0.0739 -0.2482
26022W        W41916   6.461  16.492   2.853  0.1777  0.1319  0.4674
26023W        W41917  12.429  16.176   5.489 -0.2241 -0.0204  0.2633
26024W        W41918  11.729  15.988  15.681 -0.2189  0.0657 -0.1070
26025W        W41919  17.057   0.249  11.436 -0.2351  0.2310 -0.3127
26026W        W41920  16.321   2.347   3.099  0.1407 -0.1005 -0.0202
26027W        W41921   6.008  11.211  15.290  0.0649 -0.1026 -0.2257
26028W        W41922   7.809  10.577   4.501 -0.0973 -0.0026  0.1684
26029W        W41923  17.670   5.066  15.096  0.0853 -0.1380  0.2072
26030W        W41924   2.273   9.768  15.955  0.0699 -0.3155  0.1209
26031W        W41925  15.938  17.967   0.784 -0.0929  0.0361 -0.1296
26032W        W41926  12.362  13.897   2.630 -0.0145  0.3388 -0.3479
26033W        W41927   6.626   0.379   2.635  0.2591 -0.0200 -0.0255
26034W        W41928   1.930  10.660   0.833  0.1426  0.1140  0.1136
26035W        W41929   5.034   2.370   2.799  0.3851 -0.3318 -0.1037
26036W        W41930  10.952   9.752  12.736  0.0345  0.0222  0.0652
26037W        W41931   3.694   1.707   1.570 -0.0589  0.1485 -0.4113
26038W        W41932   0.580   4.290  15.004 -0.2266  0.0924 -0.2562
26039W        W41933  11.741   6.142   1.131 -0.1440  0.1534  0.1056
26040W        W41934   4.793  12.834   4.275  0.0910 -0.0886  0.0106
26041W        W41935   5.692  12.563   1.120  0.3679  0.2706  0.0678
26042W        W41936  12.232   0.455  12.687 -0.0168 -0.1487 -0.0331
26043W        W41937  13.710   6.914   0.050 -0.2541 -0.5715  0.0925
26044W        W41938  14.397  11.937   3.167 -0.1754 -0.0420 -0.0418
26045W        W41939  10.589   3.502   1.088  0.1002 -0.2838 -0.4892
26046W        W41940   1.283   7.460   3.287 -0.2261 -0.0254 -0.2404
26047W        W41941   6.979  14.170   4.208 -0.0546 -0.4317  0.1274
26048W        W41942   9.566   4.856  14.164 -0.1952 -0.1735 -0.1176
26049W        W41943   0.868   4.956  11.717 -0.3911  0.0942  0.0630
26050W        W41944  10.057  17.611   3.988  0.1177  0.0154 -0.1755
26051W        W41945   5.242  14.367  12.738 -0.2104  0.0770  0.0761
26052W        W41946   2.092   1.066  12.465 -0.0187 -0.1681  0.2712
26053W        W41947   0.053   3.832  15.569  0.1333 -0.2535 -0.0786
26054W        W41948  10.307  15.646   3.981 -0.1398 -0.1700  0.0871
26055W        W41949  13.903  16.427  12.875 -0.1537 -0.0702 -0.3368
26056W        W41950  12.900   3.196   0.973 -0.2660  0.1384 -0.0593
26057W        W41951  13.639   7.998   2.840 -0.1041  0.0305 -0.2032
26058W        W41952   2.283  16.026   3.329 -0.1272 -0.0189 -0.0895
26059W        W41953   4.242   0.887   3.552  0.3031  0.0820 -0.0612
26060W        W41954  15.004  10.379   0.664 -0.5224  0.4920 -0.2194
26061W        W41955   2.927  11.652   3.665 -0.0648  0.2602  0.1351
26062W        W41956  17.877  18.046  11.588 -0.1057 -0.4014 -0.1054
26063W        W41957  14.053   6.823   5.435 -0.1705  0.0123 -0.1801
26064W        W41958  14.532   5.651   3.659 -0.2668  0.3019 -0.0772
26065W        W41959   4.854  14.717   1.613  0.0952  0.0774 -0.1448
26066W        W41960   0.270  18.187  15.350  0.0212  0.1697  0.3188
26067W        W41961  11.115   1.124   2.825 -0.1652 -0.1177 -0.1532
26068W        W41962   1.698   4.022   2.713  0.2296  0.5152  0.3234
26069W        W41963  11.874   6.534   3.844  0.1047 -0.2505 -0.0813
26070W        W41964   5.288   0.587  10.252  0.0641  0.0675 -0.1354
26071W        W41965  16.401  15.687   6.012 -0.0767  0.3276 -0.2952
26072W        W41966  11.470   3.288  15.852 -0.0575 -0.3152 -0.2103
26073W        W41967  14.594   1.665   1.850  0.0590  0.2153  0.1054
26074W        W41968   7.764   9.172  13.884  0.1842  0.2325  0.0570
26075W        W41969  17.047   1.622   0.175 -0.0675 -0.1912 -0.2772
26076W        W41970   0.392  11.774   3.528 -0.0040 -0.0414  0.0643
26077W        W41971  17.135   4.660  15.281 -0.1565 -0.0897 -0.0668
26078W        W41972   3.780   7.571   0.095  0.4503 -0.0332  0.1619
26079W        W41973   4.472  11.414   3.174 -0.1758 -0.0990  0.0263
26080W        W41974   1.711   3.042   0.008 -0.1141  0.1079 -0.2657
26081W        W41975  15.962  11.540   3.072  0.0350  0.4046  0.3455
26082W        W41976  17.827   8.420   0.175  0.1416 -0.0432  0.0168
26083W        W41977   9.221  16.896   2.741 -0.1718 -0.0287  0.0095
26084W        W41978   8.301  15.034  11.740 -0.1091 -0.0140 -0.0713
26085W        W41979  17.094   8.918   0.594  0.0358 -0.1304  0.1665
26086W        W41980  13.895   5.965   0.078 -0.1464  0.1390  0.2244
26087W        W41981  12.028   8.046  13.776 -0.0556  0.0120 -0.0945
26088W        W41982   3.793   5.767  15.374 -0.0937  0.1776  0.0604
26089W        W41983   0.901  13.461  15.295  0.1177 -0.3713  0.3270
26090W        W41984  10.940   5.073   3.172  0.0803  0.1014 -0.0101
26091W        W41985  10.316  12.590  15.658  0.1069  0.2691 -0.4261
26092W        W41986   7.848  16.590   3.019  0.1767  0.1684  0.0226
26093W        W41987   3.479   8.193   4.204 -0.1227 -0.0577  0.0676
26094W        W41988   1.648  11.660   4.139 -0.0142  0.3430 -0.0679
26095W        W41989  11.125   6.431  11.263  0.3689  0.1001 -0.0970
26096W        W41990   0.566  13.131  16.226  0.1292  0.0479  0.1956
26097W        W41991   1.095   5.668   4.142 -0.0131  0.0796  0.3354
26098W        W41992   1.487  14.143  15.842  0.2338 -0.0064  0.0050
26099W        W41993   1.209   2.253  14.158  0.2249 -0.2670 -0.0782
26100W        W41994   4.155   7.611  11.153  0.1756 -0.3685  0.2390
26101W        W41995  18.109   5.037   3.254 -0.1749 -0.0990  0.1933
26102W        W41996  11.630   9.657  16.180 -0.0838 -0.2777 -0.3111
26103W        W41997   4.840  12.814  14.328  0.2428  0.2055  0.0443
26104W        W41998  12.309  15.885   2.805  0.2816 -0.0308  0.4452
26105W        W41999   2.529   8.368   3.415 -0.0112 -0.4524  0.0812
26106W        W42000  10.378  15.117  12.871 -0.1248  0.2023  0.0785
26107W        W42001   1.411   3.892  14.356  0.0023 -0.3770  0.0150
26108W        W42002  14.345   7.194  12.469 -0.1232 -0.2750 -0.0461
26109W        W42003   0.535   8.699   4.154  0.4438 -0.0356  0.1380
26110W        W42004   3.891   6.712  11.342  0.2252  0.0823 -0.0527
26111W        W42005  13.237  13.663   2.727 -0.2918 -0.0764  0.0496
26112W        W42006   9.704  10.188   5.497  0.0705  0.2184 -0.0287
26113W        W42007   2.230   9.879  12.073  0.0748  0.1449 -0.0659
26114W        W42008   7.433   7.534   0.430 -0.0519  0.0579  0.0876
26115W        W42009   2.010   2.370   6.194  0.1853  0.1927 -0.0607
26116W        W42010   1.014   6.105   4.424 -0.1907  0.3582 -0.0357
26117W        W42011   6.354  12.497  13.470 -0.0739 -0.0934  0.3293
26118W        W42012   0.423   8.042   2.925  0.0105  0.0684 -0.3109
26119W        W42013  11.603   6.201  15.512  0.1872  0.2366  0.1545
26120W        W42014   1.794   6.876  11.403  0.0860  0.1655  0.2864
26121W        W42015   6.511  16.974   4.333 -0.1442 -0.2470  0.0467
26122W        W42016   2.163  17.963   6.055 -0.1081 -0.2771  0.0550
26123W        W42017   1.573   4.305   5.603  0.0873  0.0862  0.2512
26124W        W42018  15.583  17.659  13.628  0.1131 -0.0046 -0.0268
26125W        W42019   8.990   2.413  11.187  0.2008 -0.3673  0.0212
26126W        W42020   4.853   3.189   4.296 -0.0497 -0.2006 -0.1003
26127W        W42021  13.839  12.239  13.325 -0.0234  0.0896  0.0984
26128W        W42022   8.245  11.407  11.313 -0.0920  0.0223  0.0012
26129W        W42023  13.984   4.106  13.484  0.0500  0.0428  0.0231
26130W        W42024   1.178   4.807  16.167  0.1665  0.0250 -0.0981
26131W        W42025   1.885   4.360   4.550 -0.0357 -0.1747  0.1469
26132W        W42026   8.050  17.124   1.180  0.2982 -0.1150 -0.0777
26133W        W42027   7.956  12.600   5.556 -0.1177 -0.1615  0.0977
26134W        W42028   7.854   1.524   0.217  0.3526  0.1908 -0.2635
26135W        W42029   8.706   4.114  12.066  0.0709  0.0803 -0.3738
26136W        W42030   1.123   4.341  15.001 -0.0478 -0.0620  0.2994
26137W        W42031   9.260   0.201  10.977  0.2299  0.1586  0.0595
26138W        W42032   9.137  11.004  11.404  0.1117  0.2661 -0.1028
26139W        W42033  10.424   3.561   2.132  0.0857  0.1014 -0.0979
26140W        W42034   7.909   4.128   4.029  0.0393  0.1861 -0.3332
26141W        W42035   0.549  17.679  13.105 -0.1589  0.1072 -0.1066
26142W        W42036  17.864  14.817  14.111 -0.1029  0.1454 -0.0620
26143W        W42037   5.151   6.848   1.722  0.0973 -0.0345 -0.2031
26144W        W42038  11.364  13.723   3.453 -0.0093 -0.1285 -0.0889
26145W        W42039   0.474   2.834  14.230  0.2730  0.1276 -0.1355
26146W        W42040   4.176  12.655  14.740 -0.1893  0.1647  0.1678
26147W        W42041  13.745   5.894  12.026  0.0518 -0.2259 -0.0539
26148W        W42042  16.058   3.896   2.052 -0.0720 -0.2928  0.0657
26149W        W42043   4.491  14.914  15.120  0.1759  0.2434 -0.1602
26150W        W42044  10.379   6.280  11.907  0.1103 -0.2702  0.1663
26151W        W42045  11.355  15.981   4.581 -0.0918  0.2112 -0.0548
26152W        W42046  15.984  12.969   0.496 -0.0751 -0.0406 -0.2500
26153W        W42047  14.227   9.962   0.407 -0.0311  0.0934  0.1224
26154W        W42048  16.177  10.550   1.415 -0.1421  0.1254  0.1610
26155W        W42049   8.629  15.295  13.326 -0.1726  0.0114 -0.1754
26156W        W42050  12.404   2.685  11.807 -0.0104 -0.0189 -0.0500
26157W        W42051  16.777   4.119  15.322  0.0005  0.2377  0.2117
26158W        W42052   6.127   4.038  14.614  0.2530 -0.0441  0.2089
26159W        W42053  17.328  15.579  12.146 -0.1305  0.0189 -0.1433
26160W        W42054  13.161  15.820   1.185 -0.0147 -0.1370 -0.1263
26161W        W42055  12.388  11.030   4.732  0.0666 -0.0223  0.1133
26162W        W42056   9.788   8.140  14.829  0.0730  0.2930  0.1110
26163W        W42057   7.838   7.933   1.640  0.2217 -0.2155  0.1008
26164W        W42058  17.483   9.200   0.359  0.1542  0.2362 -0.1199
26165W        W42059   6.336   7.200   4.668  0.0448 -0.1252  0.1603
26166W        W42060  12.848  16.628   4.546  0.1054 -0.1181 -0.2949
26167W        W42061   0.097  14.627  13.748  0.1919 -0.2172 -0.0172
26168W        W42062  14.248   3.588   4.312 -0.2139 -0.0226  0.1787
26169W        W42063  13.165   8.989   4.289 -0.1572  0.1825 -0.1105
26170W        W42064   9.569  11.551   5.542 -0.1905 -0.0269 -0.1473
26171W        W42065  14.263  12.425   2.428 -0.2896  0.1686 -0.0248
26172W        W42066  15.593   1.249  15.297 -0.1454 -0.1469  0.3245
26173W        W42067  15.235  17.362   1.983 -0.2113  0.2080 -0.2695
26174W        W42068   8.315  15.505  10.770 -0.0408 -0.2001 -0.2252
26175W        W42069  11.369  13.790  15.105 -0.3160 -0.0459 -0.5022
26176W        W42070   5.481   3.593  13.922  0.1404  0.2286 -0.1737
26177W        W42071   2.417   8.008   4.631  0.0265  0.0728 -0.0468
26178W        W42072   8.843  14.582  15.145  0.1886  0.1489 -0.2162
26179W        W42073  14.174   7.868  13.806  0.1044 -0.0863 -0.0922
26180W        W42074  10.185  14.407  13.687  0.0628  0.3383 -0.3661
26181W        W42075  11.744   6.982  12.275  0.4744  0.1246  0.0375
26182W        W42076  16.531   3.549   1.205  0.1047 -0.0004  0.2104
26183W        W42077  15.466   6.032   2.300 -0.0455 -0.0155  0.0215
26184W        W42078   0.416  13.655   3.806  0.0676 -0.0391 -0.4372
26185W        W42079   2.854   9.739   5.459  0.2906 -0.1693 -0.0435
26186W        W42080   0.897   9.948   1.659  0.1323 -0.1536 -0.1310
26187W        W42081   5.296   0.743   0.107  0.3133  0.0572 -0.0150
26188W        W42082  15.545  14.240   0.998 -0.1798 -0.1919  0.1004
26189W        W42083  14.623  12.376   0.635 -0.3002  0.2872  0.1524
26190W        W42084  17.811   2.363   5.008  0.0556 -0.2993 -0.2640
26191W        W42085   5.336  12.838   4.617  0.1508  0.1098 -0.1268
26192W        W42086  15.490  17.644  11.760 -0.2008  0.0541  0.2832
26193W        W42087   4.070   0.823  14.506  0.1232 -0.1534 -0.2260
26194W        W42088   3.944  17.442  16.255  0.0625  0.3305  0.2306
26195W        W42089   4.689  12.723  12.861  0.1087 -0.0574 -0.0185
26196W        W42090   7.125   7.322   2.204  0.2131  0.0415  0.0850
26197W        W42091  10.060   5.707   3.778  0.3618  0.1724 -0.0306
26198W        W42092  16.404  11.960  12.886 -0.1940  0.1644  0.0085
26199W        W42093   4.761  10.458   6.185 -0.0744 -0.2566  0.1529
26200W        W42094   3.737  17.039  15.130  0.1393  0.1394 -0.0777
26201W        W42095  16.343  17.005   1.807 -0.0630  0.0993 -0.1947
26202W        W42096  14.052   8.039   0.966 -0.1000  0.1050  0.1604
26203W        W42097   3.219  11.429  11.876  0.1523  0.2126  0.0976
26204W        W42098   0.535   7.168  13.330  0.0195 -0.2705 -0.0783
26205W        W42099   6.666   2.124  15.681 -0.0314  0.4367 -0.0012
26206W        W42100  17.932   0.233  13.402  0.1813  0.3270  0.1031
26207W        W42101  11.881  17.625  15.435  0.3353  0.0116 -0.0616
26208W        W42102   6.455  13.611  15.982  0.0905 -0.0437 -0.4695
26209W        W42103   7.682   7.636  12.186  0.0401 -0.2330 -0.0389
26210W        W42104   2.249  14.598   1.279 -0.1582  0.2031 -0.1256
26211W        W42105  17.637  16.490  11.086  0.1145 -0.2029 -0.0651
26212W        W42106  13.292   4.470  10.920  0.3733  0.0096 -0.0168
26213W        W42107   0.304   4.696  12.295 -0.0624  0.0362  0.0137
26214W        W42108   9.121   5.542  11.212  0.0991 -0.0305 -0.0831
26215W        W42109  13.854   4.310  11.272  0.0314  0.0625 -0.4054
26216W        W42110   2.220   7.617   0.415 -0.0265  0.0573  0.2509
26217W        W42111   6.850   9.675  11.303  0.1830 -0.1408 -0.2876
26218W        W42112   4.821  13.025  15.550 -0.0303 -0.1782 -0.1212
26219W        W42113   7.403   5.862  12.325 -0.1811  0.2248 -0.0145
26220W        W42114   9.632  10.210   3.713 -0.1419  0.1202 -0.3078
26221W        W42115  17.077   5.928  12.518  0.2470 -0.3457  0.4174
26222W        W42116  15.138  17.618   4.896 -0.1338  0.4251  0.3809
26223W        W42117   2.264  10.041   4.671 -0.0677  0.0048 -0.1731
26224W        W42118   5.855  12.081   3.562  0.4072 -0.1929  0.1155
26225W        W42119  11.160  11.759   1.359  0.1868 -0.3241  0.3118
26226W        W42120   7.879   6.880   3.770 -0.0004 -0.0572 -0.1573
26227W        W42121   9.568  16.079   3.781 -0.1503 -0.0825 -0.3253
26228W        W42122   3.583  14.848  12.999 -0.2258 -0.0340 -0.0092
26229W        W42123   0.485   6.260  11.632 -0.0626 -0.0936 -0.0362
26230W        W42124   8.418  15.999  11.789  0.1767  0.0728  0.3087
26231W        W42125  14.364   1.909   0.516  0.0800 -0.1051  0.1195
26232W        W42126  14.139   5.100   4.146  0.2887  0.0997  0.0685
26233W        W42127  15.633   2.731  16.021  0.0373  0.0024 -0.1444
26234W        W42128   9.554   3.225   1.895 -0.0302  0.1004 -0.5583
26235W        W42129  14.491   2.273   1.816  0.1978  0.2262  0.0862
26236W        W42130   7.450   2.534  12.455 -0.0144  0.0769  0.0704
26237W        W42131   3.651  11.841  12.924  0.2912 -0.0654  0.0587
26238W        W42132   6.558  12.204  11.925  0.0560  0.1100  0.2629
26239W        W42133   1.902   9.742   5.634 -0.0905 -0.0358  0.1872
26240W        W42134  18.146  10.049   0.955  0.2621 -0.2242 -0.1787
26241W        W42135  15.083   3.235   5.782  0.1322  0.1840 -0.0884
26242W        W42136   2.184   1.356  15.698  0.4250  0.0105 -0.1313
26243W        W42137   5.273  14.270   1.847 -0.1708 -0.2656  0.0028
26244W        W42138   5.822   6.558   4.749  0.0956  0.1486 -0.1777
26245W        W42139  10.036   2.320  13.492  0.2448 -0.0312 -0.1753
26246W        W42140   9.703  17.846   4.366 -0.1171  0.0094  0.3504
26247W        W42141  17.272   0.616  14.027 -0.0103  0.1627  0.2490
26248W        W42142   1.714   1.472   2.283  0.0592 -0.1044  0.2623
26249W        W42143   3.241   0.900  12.827 -0.0197  0.1493 -0.1643
26250W        W42144   9.671   1.549   5.316 -0.1744  0.2817  0.3498
26251W        W42145  11.270  10.212   4.318  0.1766 -0.2545  0.0518
26252W        W42146  14.026  10.215  15.724  0.1103 -0.1075  0.2956
26253W        W42147   9.639   0.744  15.001 -0.2002  0.0464 -0.0915
26254W        W42148  12.581   9.278  16.064  0.0030 -0.3962  0.0149
26255W        W42149  17.296  11.401   4.454 -0.3534 -0.0904  0.1465
26256W        W42150  12.387   7.539   1.183 -0.3337  0.4602  0.1051
26257W        W42151  16.813  17.331  16.437 -0.0112  0.1084  0.0362
26258W        W42152   4.827  13.531  12.809  0.1725  0.1689 -0.1600
26259W        W42153   8.630  13.317   1.091  0.0539  0.2419 -0.1270
26260W        W42154   4.840   5.256   3.601  0.0525 -0.0860  0.0920
26261W        W42155   3.080  15.846  10.654 -0.3379 -0.3739 -0.1080
26262W        W42156   6.546  13.704  12.736 -0.1226 -0.0877  0.0637
26263W        W42157  12.421  14.438  14.072  0.0133  0.2701 -0.2692
26264W        W42158  10.971   0.604   2.996  0.2700 -0.0176 -0.0659
26265W        W42159   5.892  14.357   4.290 -0.0855 -0.0646  0.0825
26266W        W42160  13.947   2.016   5.588  0.1526  0.1098 -0.1074
26267W        W42161   1.826  16.457  12.638 -0.4520  0.1300 -0.2222
26268W        W42162   0.053   3.128   4.228 -0.0691  0.3020  0.1282
26269W        W42163  13.110  14.917   2.293 -0.1600  0.0326 -0.0220
26270W        W42164  16.767   8.050   3.814  0.0891 -0.1928 -0.0129
26271W        W42165  16.754   4.272  13.195 -0.0649 -0.3733 -0.2587
26272W        W42166   5.513  15.871   5.921 -0.0466 -0.0396 -0.1535
26273W        W42167  10.500   0.576   2.325  0.0807  0.0488  0.1846
26274W        W42168  15.636   9.215  13.465 -0.3214  0.2653 -0.0126
26275W        W42169   0.218   7.394   1.626  0.1593  0.1642 -0.0998
26276W        W42170  17.061  13.870   2.736  0.0244 -0.0850  0.0558
26277W        W42171   3.199  10.145   0.396 -0.0421  0.0696  0.3384
26278W        W42172  11.057   0.579  14.000  0.0154 -0.2076  0.1499
26279W        W42173   1.010  11.190   4.552  0.1499 -0.4149  0.1271
26280W        W42174  10.094  12.412  13.998 -0.0725 -0.0620  0.0368
26281W        W42175   3.659  13.404   1.871  0.1996  0.3185  0.2138
26282W        W42176   7.173   3.665   5.300  0.0531 -0.1758  0.0383
26283W        W42177  15.620   7.408  16.419  0.1238 -0.0553  0.1116
26284W        W42178  12.223  13.283  14.911  0.1074  0.0288  0.1102
26285W        W42179   9.152   8.708  11.683 -0.3095 -0.1081 -0.1731
26286W        W42180  11.784  16.395   6.341  0.2276 -0.0154  0.2664
26287W        W42181   8.578  12.847   2.495  0.1139  0.0391  0.0024
26288W        W42182  10.643  17.476   5.558 -0.0122 -0.0632  0.0095
26289W        W42183   2.302   3.999   1.498 -0.2875  0.0378 -0.1684
26290W        W42184   2.417  15.255   6.426 -0.3667  0.1102 -0.0814
26291W        W42185  16.827   1.631  14.671  0.0912  0.0960 -0.1358
26292W        W42186  17.323   1.226   4.629 -0.3797 -0.0502  0.0286
26293W        W42187   7.613   9.494   2.384  0.0066 -0.0419 -0.2112
26294W        W42188  17.682  17.021  11.051  0.2122  0.0983 -0.2774
26295W        W42189  17.497   6.849  12.862  0.0191  0.0063 -0.1371
26296W        W42190  13.549   4.778   2.610  0.1950 -0.0320 -0.0332
26297W        W42191   4.648   1.577   1.757 -0.0407  0.1168  0.0473
26298W        W42192   3.245  16.654   2.943 -0.1870 -0.2399  0.3238
26299W        W42193  14.573  18.128   5.970 -0.1472 -0.0425  0.1393
26300W        W42194   5.010   6.949  14.296 -0.0526  0.1159 -0.0931
26301W        W42195   9.707  17.605  15.128 -0.0559 -0.0327 -0.1092
26302W        W42196   6.800  11.643   2.870  0.0543  0.3300  0.1241
26303W        W42197   6.166   0.138   2.589  0.0216  0.1280 -0.0198
26304W        W42198   4.401   6.179   3.311  0.1552 -0.0655  0.3367
26305W        W42199  17.570  11.767   4.079  0.3601 -0.1699  0.1715
26306W        W42200   9.501  14.617  16.361 -0.3221  0.2366 -0.2341
26307W        W42201   3.361   1.531   0.036 -0.0559 -0.0482 -0.0501
26308W        W42202  14.485   7.285   4.619  0.2575  0.0250 -0.0717
26309W        W42203  14.520  11.297   1.899  0.1624  0.4119  0.0705
26310W        W42204   2.305  14.679  15.760 -0.1273 -0.1689  0.4108
26311W        W42205  12.099  14.063   2.197 -0.0516  0.1749 -0.0321
26312W        W42206   9.672  16.714  13.591  0.1729  0.2565 -0.1002
26313W        W42207   1.067   7.571  15.485 -0.0788 -0.1307 -0.2846
26314W        W42208   7.162  16.352   4.321  0.0292  0.0068  0.0749
26315W        W42209   0.943   9.890   2.659 -0.0123 -0.3916  0.0052
26316W        W42210  14.822  18.082   1.298  0.1230 -0.0057  0.1954
26317W        W42211  11.641   1.251   0.084  0.2173 -0.0912 -0.0867
26318W        W42212   7.585  18.087  15.683 -0.2650  0.0529 -0.2816
26319W        W42213  17.246   4.566   3.767  0.0845  0.1298 -0.0644
26320W        W42214  15.150   7.076   0.662  0.1269  0.0297  0.2745
26321W        W42215  14.778  13.572   1.440  0.0289  0.4202 -0.0584
26322W        W42216   9.810  10.088   2.577  0.0041  0.1304  0.0340
26323W        W42217   8.738  14.952   0.154  0.2708  0.4823  0.1133
26324W        W42218   5.233  13.798   0.559 -0.1454  0.2783  0.0130
26325W        W42219   3.070  15.167  15.198  0.0609  0.0218 -0.4722
26326W        W42220  18.004   8.079   3.288  0.1391  0.0883  0.1138
26327W        W42221   7.015   4.194  11.788 -0.1070  0.0405 -0.2903
26328W        W42222  14.891  13.818  15.206 -0.0238  0.0939 -0.0407
26329W        W42223  18.132  11.121   5.865 -0.2152  0.3841  0.3114
26330W        W42224   9.175  12.248  14.774  0.0078  0.2129  0.0350
26331W        W42225  17.949   6.804   2.354 -0.0700  0.2997  0.2294
26332W        W42226  16.290  10.504  15.174 -0.1265 -0.1339 -0.1310
26333W        W42227   3.466   2.056   3.817 -0.0669  0.0564  0.1778
26334W        W42228   4.941  11.486   3.467  0.0523  0.0242  0.0336
26335W        W42229   8.835   9.974   5.769  0.1348  0.1917  0.2022
26336W        W42230  12.426  11.770   2.501 -0.0048  0.0730  0.1249
26337W        W42231  11.152   3.334  11.639  0.0290  0.0020 -0.2001
26338W        W42232  13.532   8.811  12.285  0.0298 -0.2780 -0.0598
26339W        W42233   3.763  13.807   2.208  0.0243 -0.0961  0.1027
26340W        W42234   1.536   0.878  15.207  0.0877  0.4602  0.2925
26341W        W42235   5.007  15.603   2.357  0.4634  0.0753  0.4753
26342W        W42236   0.292  11.430   5.949 -0.3720  0.0069  0.2164
26343W        W42237   9.116  12.324   5.088  0.0056  0.1991  0.1793
26344W        W42238   1.072  18.198  11.336 -0.2337 -0.0795  0.3586
26345W        W42239  13.224  13.804  16.372 -0.3236  0.1728 -0.0292
26346W        W42240   2.532  12.356   0.743  0.0109  0.0922 -0.0585
26347W        W42241   4.385  15.681  15.405  0.0676  0.3471  0.0835
26348W        W42242   6.340   9.420   1.188 -0.2622  0.1961 -0.0012
26349W        W42243   1.099   6.831   4.792  0.0893  0.1253  0.0283
26350W        W42244  12.705   7.086  12.608 -0.0785  0.0629 -0.0583
26351W        W42245  17.162   3.737  11.283  0.0400  0.2308 -0.1319
26352W        W42246  11.296  11.685   4.126  0.1847 -0.0158 -0.2415
26353W        W42247  14.704   4.955  15.497  0.0945 -0.0139 -0.0235
26354W        W42248  13.872   5.722  14.240  0.0224  0.3946 -0.0676
26355W        W42249   1.520   7.944   1.495 -0.0344  0.2780  0.0093
26356W        W42250   6.522   1.271  13.754 -0.1686  0.0894 -0.1348
26357W        W42251  15.144   3.792  15.317  0.0977 -0.1981  0.0587
26358W        W42252  17.120   8.080   3.402 -0.0743 -0.3203  0.3495
26359W        W42253  10.840   3.813   4.335  0.3988 -0.3058  0.1209
26360W        W42254  15.288  13.883  12.655  0.1237  0.1662 -0.0290
26361W        W42255  15.471  11.768  13.716  0.0100  0.2763 -0.2961
26362W        W42256   1.598  17.127   5.375 -0.0905 -0.2345  0.0992
26363W        W42257   4.344  13.360  15.621 -0.0261  0.2861 -0.3896
26364W        W42258  10.108   1.737   2.673  0.0300  0.2667 -0.2090
26365W        W42259   2.170   8.401   1.298 -0.0688  0.3749  0.0616
26366W        W42260  12.201   4.236  15.487 -0.0076 -0.1629 -0.0415
26367W        W42261   4.156   7.605   1.395 -0.0504  0.1067 -0.0385
26368W        W42262  15.480   9.101   2.978  0.1005 -0.0140  0.1778
26369W        W42263   0.270   8.676  12.237  0.0293  0.0228  0.1399
26370W        W42264   5.604   4.064   3.790 -0.0435 -0.1731  0.2325
26371W        W42265   4.014  14.327   2.147 -0.3191  0.0057 -0.1901
26372W        W42266  11.983  10.628   4.923  0.1331  0.3956 -0.0430
26373W        W42267  17.985  11.456   5.105 -0.1524 -0.2806 -0.3255
26374W        W42268   8.636   5.633  14.307 -0.0372  0.0776 -0.3813
26375W        W42269  16.664   0.510   4.776 -0.4273 -0.1734 -0.1942
26376W        W42270   6.500   9.020  12.886  0.1477  0.2524  0.2580
26377W        W42271   4.974  15.081   4.029 -0.3241 -0.2695 -0.0958
26378W        W42272   9.622  14.256  13.399  0.0354 -0.2794  0.1483
26379W        W42273   5.483   8.575   0.920  0.1973  0.3300  0.3127
26380W        W42274   3.791  15.065  15.718 -0.0259  0.0172  0.2918
26381W        W42275   2.785  10.067   4.614 -0.1148 -0.0832  0.2925
26382W        W42276  10.113   6.726   4.070  0.2382 -0.2997 -0.1462
26383W        W42277   5.051  13.093   3.226  0.2099 -0.0355 -0.4152
26384W        W42278   6.301  18.168  14.183  0.2639  0.1718 -0.2856
26385W        W42279   3.531   7.900   0.916 -0.1997  0.1706 -0.2647
26386W        W42280   7.616   0.494  13.720  0.0152 -0.1428 -0.3231
26387W        W42281  11.545   7.723   0.952  0.1009 -0.1213 -0.0082
26388W        W42282   7.169  14.976  10.967  0.0344  0.1392 -0.0658
26389W        W42283   3.464  14.530   2.593 -0.0742 -0.2114 -0.2080
26390W        W42284  14.781   2.849  11.627  0.2197  0.1029  0.3463
26391W        W42285  15.219  10.776   3.221  0.1517 -0.2747 -0.0479
26392W        W42286   6.183  18.151   5.915  0.0744 -0.1590 -0.0724
26393W        W42287   4.124   0.136   1.936  0.0252 -0.1007  0.0163
26394W        W42288   4.767   9.332  16.365  0.0960  0.0686  0.0496
26395W        W42289   0.758  18.104   1.988 -0.2821 -0.0694  0.1854
26396W        W42290  11.551  16.804  16.127  0.0904  0.0681  0.1237
26397W        W42291  14.988  12.824  12.753  0.3625 -0.0852 -0.2420
26398W        W42292  17.501  17.790  12.142  0.1113 -0.2738 -0.0455
26399W        W42293  11.747  11.310  13.489  0.0572  0.0882  0.1959
26400W        W42294   5.650   9.979  13.637 -0.2311 -0.1574  0.0672
26401W        W42295  14.801   6.463   1.143 -0.0288  0.1193 -0.0855
26402W        W42296   2.416  15.479   1.179 -0.2048  0.2249  0.2020
26403W        W42297   9.695   0.908  12.686 -0.0430  0.0600  0.1192
26404W        W42298  17.620  13.573  16.057  0.0277  0.2376 -0.0601
26405W        W42299   8.392   5.983  13.451 -0.0858 -0.3582  0.0129
26406W        W42300   7.556   4.011  13.857  0.2080  0.2167  0.0677
26407W        W42301  16.010   0.985  13.909  0.0366  0.1141 -0.0450
26408W        W42302   9.916   4.548   4.441  0.3431  0.0271 -0.0925
26409W        W42303   4.827  11.997   1.284  0.0396 -0.2131  0.1171
26410W        W42304  14.425  17.668  12.593 -0.2064 -0.0081 -0.0182
26411W        W42305   5.053   5.634  16.427 -0.1316 -0.0813 -0.0146
26412W        W42306  11.682  11.372  12.710  0.1055  0.0285  0.1087
26413W        W42307  14.376  11.554   5.123  0.0166  0.2505  0.2402
26414W        W42308  17.311   7.326  12.905  0.1940  0.0510  0.0345
26415W        W42309   0.171  10.858   0.491 -0.3794  0.1228  0.0065
26416W        W42310   6.081   4.498   2.077  0.0252 -0.1100  0.1468
26417W        W42311   6.661  17.256   3.307 -0.0225 -0.0090  0.2458
26418W        W42312  17.979  13.769  13.791  0.1192  0.2027 -0.1774
26419W        W42313   2.840  10.486   4.265  0.4413  0.2986  0.0572
26420W        W42314  14.132   0.939  16.323  0.1043 -0.3159 -0.3401
26421W        W42315   6.789   1.775   2.074 -0.2012  0.1594 -0.6202
26422W        W42316   7.137   4.012  12.968 -0.0262  0.2932 -0.0235
26423W        W42317   7.941   0.766   1.043 -0.0952  0.1430 -0.2211
26424W        W42318  15.409  12.942   3.243 -0.3263 -0.0348 -0.1809
26425W        W42319   3.216   5.618  11.951 -0.0670 -0.0482 -0.1661
26426W        W42320  12.040  14.856   4.919 -0.1060 -0.2414 -0.1806
26427W        W42321   8.291  17.576   1.112 -0.1207 -0.7042  0.4349
26428W        W42322   7.756  18.009   1.776  0.1253  0.4251  0.1748
26429W        W42323   6.547  11.667   0.069 -0.2811 -0.1175  0.0113
26430W        W42324  13.779   3.004   0.121 -0.0836 -0.1506 -0.0508
26431W        W42325   5.039   6.376   1.978  0.1709 -0.0891 -0.2163
26432W        W42326  17.368   8.357  13.176 -0.0118 -0.4024 -0.1127
26433W        W42327   7.314   5.420   3.751 -0.2328  0.0490  0.4992
26434W        W42328  16.860   9.234  14.481 -0.1271 -0.1088  0.0698
26435W        W42329  16.988   3.595   4.258  0.2262 -0.0076 -0.0101
26436W        W42330   0.868  10.116   5.837  0.1748  0.3630  0.2070
26437W        W42331   2.557  13.794  13.553  0.2236  0.0963 -0.2238
26438W        W42332   5.829   8.058   6.410 -0.1181  0.2205  0.0002
26439W        W42333  10.037  14.636   5.936 -0.0898  0.2374  0.0472
26440W        W42334   9.101   5.362   4.727 -0.0592 -0.2672 -0.1438
26441W        W42335   1.157   5.593  10.465 -0.1119  0.0125  0.1710
26442W        W42336  12.513  14.124  11.504  0.4385  0.4583  0.2577
26443W        W42337   6.519   5.926   1.925 -0.2245 -0.3626  0.0749
26444W        W42338   4.670   2.996  14.042  0.4253 -0.2718  0.2213
26445W        W42339   6.869  18.136  11.206  0.1112  0.1058 -0.1649
26446W        W42340   7.148   9.417   0.003  0.2008 -0.0758 -0.0947
26447W        W42341  14.761  11.579  11.802  0.0564 -0.1533 -0.4923
26448W        W42342  15.840  10.840   1.655  0.1013 -0.3051  0.2495
26449W        W42343  11.947  12.487   1.728  0.0602  0.1558 -0.2836
26450W        W42344  13.152   7.946   2.621 -0.0089 -0.0762  0.0274
26451W        W42345  16.824   3.942  14.563  0.0817  0.1605  0.1101
26452W        W42346   6.113  15.799   3.740  0.0234  0.2765 -0.5029
26453W        W42347   6.898   6.207  12.561 -0.3603 -0.0983 -0.1643
26454W        W42348  17.158  15.210  14.273 -0.0768  0.4122 -0.2778
26455W        W42349  16.225   5.494  13.362 -0.0279 -0.2470 -0.1209
26456W        W42350  16.922   6.388   1.155 -0.2380  0.3250 -0.0352
26457W        W42351  15.227   5.060  11.949  0.0227  0.2015 -0.0281
26458W        W42352   2.319   1.061   0.304 -0.0838 -0.0795  0.0735
26459W        W42353   9.929   0.153  12.336  0.1961  0.0915 -0.2217
26460W        W42354   5.229   6.699  11.434  0.0697 -0.4200 -0.1130
26461W        W42355   3.902  17.109   5.751  0.1455 -0.1037 -0.1508
26462W        W42356   8.038   8.695   2.573 -0.0225  0.1054  0.1143
26463W        W42357   4.067   3.258   2.161  0.1072 -0.0055  0.0847
26464W        W42358  11.377   4.444   4.719 -0.2789  0.0958 -0.1017
26465W        W42359  12.068  12.178   2.257 -0.0453  0.0418 -0.2165
26466W        W42360   4.256   9.816  11.811  0.0580 -0.0663  0.0563
26467W        W42361  16.546   1.209  13.915  0.1514  0.0260  0.1389
26468W        W42362  13.477  13.448   3.850 -0.0320  0.1648  0.0214
26469W        W42363   2.249  18.217  11.838 -0.1032 -0.3701  0.2996
26470W        W42364  17.041   0.335  13.580 -0.2121 -0.0733  0.2303
26471W        W42365   3.809   9.658  16.205 -0.0228 -0.0822 -0.1523
26472W        W42366  16.463  13.328   6.531  0.1328  0.0099  0.0483
26473W        W42367  13.363  11.084   2.638 -0.0744 -0.0842  0.1374
26474W        W42368  12.844   4.542  13.290 -0.0540  0.2761 -0.2401
26475W        W42369   0.134   2.553   2.389  0.3126  0.1796  0.2666
26476W        W42370  18.161   5.978  15.278  0.0063 -0.1646 -0.2405
26477W        W42371   6.750  10.454   2.416  0.3074  0.0154  0.0362
26478W        W42372   4.529   2.682  10.341 -0.2654 -0.3681  0.1357
26479W        W42373   8.839  11.854  15.778 -0.0656 -0.2679  0.4457
26480W        W42374   8.178   6.579  11.212 -0.0141 -0.0599 -0.3783
26481W        W42375   9.428   2.989  11.506 -0.0187  0.0434  0.0850
26482W        W42376   6.883  17.733   4.857 -0.1679 -0.0755  0.1581
26483W        W42377  17.390  14.456   6.473  0.1384  0.2209  0.2061
26484W        W42378   4.532   7.004  13.115  0.0146  0.0561  0.2409
26485W        W42379   0.841   5.966  13.996  0.0201 -0.2211  0.1147
26486W        W42380  11.977   9.572  13.657 -0.1077 -0.0395 -0.1848
26487W        W42381  11.924   4.299   5.022 -0.1191  0.0144  0.3035
26488W        W42382   7.968   3.564  15.293  0.1819 -0.0164  0.0943
26489W        W42383   5.755   4.820  11.974 -0.0924 -0.1148 -0.1887
26490W        W42384   2.190   9.171   2.445  0.0423 -0.1340 -0.1274
26491W        W42385  17.421  16.929  16.194 -0.0568  0.2043  0.1056
26492W        W42386  12.789   5.435   5.062 -0.2437 -0.1820  0.0144
26493W        W42387  15.116   6.877  15.011 -0.1891 -0.1013 -0.0847
26494W        W42388   9.270   9.980   5.429 -0.2294  0.1281  0.3636
26495W        W42389   5.629   6.737   5.184  0.4614 -0.0858  0.0427
26496W        W42390  14.477  14.661   1.935  0.0140 -0.2235  0.0959
26497W        W42391   7.996  17.529  16.367  0.1435  0.0496  0.0254
26498W        W42392   8.163   4.440  11.023  0.0392 -0.0425 -0.0115
26499W        W42393   2.352   8.898   4.605  0.0223 -0.1007  0.0081
26500W        W42394  12.969   4.912   0.091 -0.0303  0.1840  0.0980
26501W        W42395  13.593   8.378   3.804 -0.3513 -0.1089  0.5951
26502W        W42396   8.867  10.715  15.600 -0.3178 -0.0148  0.0285
26503W        W42397  13.906   4.476   2.314  0.1082 -0.0889 -0.0252
26504W        W42398   0.063   5.163   1.397 -0.3185  0.2347  0.1902
26505W        W42399   7.792  11.504   1.585  0.2644  0.0586 -0.0831
26506W        W42400  15.256   8.940  13.286 -0.1723 -0.0132 -0.0819
26507W        W42401  12.227   4.037  13.983 -0.0644  0.3889 -0.0322
26508W        W42402  18.186  16.376  13.678 -0.0153 -0.0445  0.3567
26509W        W42403  14.176   8.870  13.976 -0.0584 -0.0040  0.0663
26510W        W42404   0.512  16.758   5.217  0.2838 -0.0006  0.0748
26511W        W42405  14.658  14.518   2.537 -0.0823 -0.1662  0.0760
26512W        W42406   0.438   7.320  13.911  0.2702  0.1623 -0.1014
26513W        W42407   2.380   5.540   1.622 -0.1194  0.1787  0.4220
26514W        W42408   7.537  14.242   1.363  0.4040  0.1015 -0.1878
26515W        W42409   0.731  12.976   1.494 -0.3609 -0.2211  0.1182
26516W        W42410   0.850  11.138  12.900  0.2185  0.1704  0.0836
26517W        W42411  12.519   1.193   6.223  0.2063  0.2940 -0.0059
26518W        W42412  17.653   2.102   4.074 -0.2866  0.0345 -0.3479
26519W        W42413  15.313  16.753   0.156 -0.0542  0.1006  0.0003
26520W        W42414   2.256  15.311   4.109 -0.3870 -0.0740  0.1463
26521W        W42415  14.878  11.760  12.965  0.1273  0.1094  0.4649
26522W        W42416  18.197  16.512  16.239 -0.3163 -0.0634  0.2107
26523W        W42417   8.375   0.126   2.377 -0.3047  0.0825  0.0703
26524W        W42418  17.615   9.209  12.618  0.1663  0.0310 -0.0809
26525W        W42419  15.385   4.544  13.075  0.1909 -0.2667  0.2842
26526W        W42420  15.979   3.417   5.744  0.1681 -0.2867  0.1445
26527W        W42421  17.808   2.555   1.335  0.2892 -0.2060 -0.2657
26528W        W42422   1.787  13.255  11.492 -0.3118  0.0895  0.2511
26529W        W42423   2.559   0.823   4.598 -0.0054  0.2807 -0.1684
26530W        W42424  17.423   0.888  11.185 -0.0682  0.0792  0.2456
26531W        W42425  16.300   2.340   3.599  0.0898 -0.2859  0.4244
26532W        W42426  10.764   9.423   4.394  0.1077  0.0278  0.2413
26533W        W42427  10.914   0.928   4.676 -0.2065 -0.2043 -0.1720
26534W        W42428   9.586   3.204  16.156  0.0939  0.0860  0.0607
26535W        W42429   9.227   3.457  12.346 -0.2225 -0.0756 -0.2986
26536W        W42430   6.375   9.485   0.684  0.4205  0.0533 -0.0447
26537W        W42431  18.116  16.667   3.267  0.1045  0.1702 -0.2345
26538W        W42432  10.046   9.999   3.469 -0.0440  0.1013 -0.0454
26539W        W42433   9.372   8.670   4.374 -0.3245  0.0817  0.1743
26540W        W42434   5.784   0.768   3.399  0.1973  0.1708 -0.1165
26541W        W42435  18.096   0.358   0.686  0.0373 -0.0800 -0.1453
26542W        W42436   1.567   2.660   1.723 -0.0198  0.0337  0.0096
26543W        W42437  17.241   1.815   0.671 -0.0720 -0.2087  0.0588
26544W        W42438   9.952   5.100  13.743 -0.0650  0.3729  0.0082
26545W        W42439  15.507  10.636   6.176  0.1342 -0.3011 -0.2778
26546W        W42440   7.265   8.268  11.712  0.0379 -0.0956  0.0579
26547W        W42441  17.720   5.607   2.911  0.2155 -0.2544 -0.0280
26548W        W42442   0.886  12.367   2.770  0.1886 -0.4135  0.3510
26549W        W42443   4.425   0.836   6.111  0.0317 -0.1074  0.0582
26550W        W42444   0.508  10.904   0.002 -0.1372  0.3671 -0.0241
26551W        W42445   2.303   2.345  14.264  0.0074  0.2702  0.4610
26552W        W42446   6.691  17.400  13.978 -0.5174  0.0713  0.1490
26553W        W42447  13.332   5.385   1.529  0.0595 -0.0075  0.0278
26554W        W42448  14.807  17.365   4.622 -0.1591  0.0189 -0.0101
26555W        W42449  15.284  13.415  14.979  0.6522  0.1088  0.2019
26556W        W42450   8.910   7.958   3.297 -0.0500  0.0640  0.1635
26557W        W42451   1.479   0.533  12.531 -0.2775  0.0494 -0.1473
26558W        W42452   2.720  12.997   4.443  0.2738  0.1541  0.0772
26559W        W42453  15.458   8.489   1.829 -0.0857 -0.5035  0.5709
26560W        W42454  13.819   0.999  15.210 -0.0886 -0.0677 -0.1236
26561W        W42455  10.181   6.179  13.617 -0.1922 -0.0729 -0.2485
26562W        W42456  12.593  14.051   3.899 -0.2552 -0.0441 -0.0295
26563W        W42457   7.296  13.214   4.229 -0.1323 -0.2827 -0.2467
26564W        W42458   7.474  16.653  10.298  0.3469  0.0492  0.0052
26565W        W42459   6.713   4.968   4.382 -0.1392  0.2745  0.1275
26566W        W42460   0.067   0.345  12.954  0.0253  0.0806 -0.0292
26567W        W42461   2.422  13.652   3.519 -0.0990  0.3032 -0.1681
26568W        W42462   8.845   3.229   5.866 -0.0138  0.0742 -0.3429
26569W        W42463   7.940  17.164  15.395  0.2428  0.0691 -0.3461
26570W        W42464   5.286   1.189   1.096 -0.1953 -0.0707 -0.0131
26571W        W42465  14.521  10.770   2.006 -0.0780  0.1329 -0.1510
26572W        W42466   3.553  16.455   1.519  0.0592 -0.2230 -0.0521
26573W        W42467   8.338   4.452   2.129 -0.1007 -0.1669  0.3389
26574W        W42468  14.036  13.201   3.755  0.1047  0.2126  0.0507
26575W        W42469  17.551   3.911   5.324  0.0914  0.3633 -0.1129
26576W        W42470  10.004   9.576   0.390 -0.1773 -0.1757 -0.1058
26577W        W42471   5.029   7.391  16.229 -0.0388 -0.2333  0.0189
26578W        W42472  17.914   3.716   1.441  0.1804 -0.4011  0.0764
26579W        W42473  13.734   8.708  10.905  0.2645  0.0239  0.1583
26580W        W42474  14.798   1.593   5.566 -0.0375 -0.0552  0.3075
26581W        W42475   7.956   4.686  11.445 -0.1268 -0.1273  0.0992
26582W        W42476  17.307  14.228   1.158  0.1070 -0.0836 -0.1253
26583W        W42477   5.292   8.952  13.637  0.0959  0.1506 -0.0478
26584W        W42478  15.217   6.570  14.115 -0.2794 -0.0688 -0.0076
26585W        W42479  15.469   5.270   2.869  0.0742 -0.1466 -0.1894
26586W        W42480  13.269  15.417  15.436  0.2123  0.1059  0.0871
26587W        W42481  11.786  10.108  13.319 -0.1900  0.0553  0.0418
26588W        W42482   5.218   6.157  13.601 -0.0898  0.1359 -0.1260
26589W        W42483   3.331  13.168   4.227  0.0635 -0.0876 -0.2148
26590W        W42484  14.938   3.846  15.792 -0.1980 -0.0728 -0.0821
26591W        W42485  17.145   4.118  15.709 -0.1062 -0.1972  0.0609
26592W        W42486  18.024  12.721   1.160 -0.1788  0.0715 -0.6124
26593W        W42487   2.056   4.677   0.775  0.0416 -0.2553 -0.0491
26594W        W42488   5.002   3.073   5.503 -0.0887 -0.5694 -0.0292
26595W        W42489  13.729   8.064   1.387  0.3004 -0.0949 -0.1630
26596W        W42490   3.084  13.421  14.632 -0.3950 -0.0949  0.0836
26597W        W42491  14.318   7.194   1.324  0.2285 -0.2581 -0.3516
26598W        W42492  10.895   4.748   4.680  0.0888 -0.2685 -0.0944
26599W        W42493   1.212  10.769   2.454  0.0581 -0.0917 -0.4154
26600W        W42494   2.898   4.368   4.770  0.1728  0.1911 -0.0674
26601W        W42495  14.807   8.370  14.446 -0.1518 -0.2024 -0.1058
26602W        W42496  10.679   8.980  12.229 -0.0616  0.3242 -0.0884
26603W        W42497   5.141   7.750  14.233  0.1003  0.4257 -0.1406
26604W        W42498   7.391   1.899   3.303  0.0277 -0.3945  0.0482
26605W        W42499   4.196   4.144  14.225  0.0040  0.2243  0.1287
26606W        W42500  14.244   8.065   1.560  0.3638  0.1043 -0.2107
26607W        W42501  17.939   6.955  15.224 -0.3686 -0.0255 -0.3434
26608W        W42502   5.942   0.012  14.986 -0.0669  0.3690 -0.0208
26609W        W42503   1.137  11.917  13.350  0.1269 -0.0845 -0.0727
26610W        W42504   3.132   1.001   1.470  0.1194 -0.3201  0.5079
26611W        W42505   1.145  15.710  13.161 -0.1912 -0.0997  0.1053
26612W        W42506  11.227   1.341   4.590 -0.2586 -0.1200  0.0814
26613W        W42507   2.339   0.699   2.937  0.1303  0.0902 -0.0976
26614W        W42508   6.818  12.405  14.555 -0.0339  0.0881 -0.0373
26615W        W42509  12.085   1.329  15.185  0.0977  0.1484  0.2153
26616W        W42510  13.467  12.547  12.072 -0.0033  0.0092 -0.1771
26617W        W42511  11.255  16.445   4.896 -0.1860 -0.2997  0.1443
26618W        W42512   8.165   3.751   0.918  0.1883  0.0929  0.1468
26619W        W42513   1.651  10.476   3.942  0.0456 -0.1373 -0.0859
26620W        W42514  13.403   2.389   3.228  0.1621 -0.0287  0.1235
26621W        W42515  14.793  12.099  15.684  0.1071  0.1005 -0.2498
26622W        W42516  16.457   3.734  14.203  0.2744  0.0633 -0.1255
26623W        W42517  10.181  14.965   5.635  0.2448 -0.0143 -0.0214
26624W        W42518   8.197  14.847   3.204 -0.2537 -0.0189  0.2909
26625W        W42519   2.386  15.275  15.542 -0.0425  0.0708 -0.0924
26626W        W42520  17.683  16.742   3.771 -0.1146  0.0205  0.0701
26627W        W42521   3.260   8.565   1.930 -0.1194 -0.1657  0.1419
26628W        W42522  16.755  15.806  15.436 -0.2883 -0.0146 -0.1232
26629W        W42523   4.440  12.547  13.503  0.0416 -0.2148 -0.0671
26630W        W42524   5.436   0.056  15.093 -0.3815 -0.0471 -0.1965
26631W        W42525   5.990  17.486  11.104  0.0271 -0.0383  0.1695
26632W        W42526  13.690   4.728   3.280 -0.3254  0.3458 -0.2376
26633W        W42527  14.153   4.916  13.579  0.3009  0.1549  0.0293
26634W        W42528   6.534   2.273  11.491  0.0556 -0.1766 -0.3894
26635W        W42529  16.175  17.060   4.002 -0.2865  0.2634 -0.1677
26636W        W42530   2.257   8.207  12.482 -0.0858 -0.0906  0.1248
26637W        W42531   8.754   4.635   0.757 -0.2391 -0.1894 -0.0594
26638W        W42532   9.435  17.673   5.082  0.2191 -0.1553  0.0277
26639W        W42533   2.118   0.419   3.929 -0.2323  0.3451 -0.2463
26640W        W42534  16.496   5.736  13.690  0.0388  0.1579 -0.0460
26641W        W42535   2.916   3.757  11.053 -0.0855 -0.1928  0.3452
26642W        W42536  16.472  15.048  12.180  0.0338  0.1073  0.1385
26643W        W42537   7.736   0.833   2.119  0.0008  0.0906 -0.2162
26644W        W42538   6.762  14.047  15.910  0.0291  0.1655 -0.0657
26645W        W42539   3.466  16.256  10.743  0.1794 -0.1106  0.1927
26646W        W42540   5.399   8.555   0.396  0.0637 -0.3865  0.0087
26647W        W42541   6.761  15.758  15.437  0.1280 -0.0137  0.2286
26648W        W42542   7.202   7.092  12.853 -0.0648 -0.2262  0.1101
26649W        W42543   3.983  15.639   2.217 -0.0552  0.2024  0.0249
26650W        W42544  14.777   7.356  11.983  0.0387 -0.0807  0.2446
26651W        W42545   4.542   4.209  14.715 -0.1152  0.1106 -0.2111
26652W        W42546  11.280  16.043   1.861  0.0789  0.1581 -0.2369
26653W        W42547  13.925   6.669  16.124 -0.2112  0.3366  0.2200
26654W        W42548  10.172   6.157   4.017 -0.1111  0.1837 -0.2950
26655W        W42549   8.379   2.109   5.512 -0.1311 -0.1942  0.3379
26656W        W42550  13.128  17.991  13.382  0.1821 -0.0787 -0.1008
26657W        W42551  17.790  16.907  14.477  0.1133  0.1821  0.1987
26658W        W42552   8.488  15.239   1.832  0.0419 -0.0232 -0.2750
26659W        W42553   9.916  13.355  11.957  0.0052  0.2456 -0.1818
26660W        W42554   1.002   5.155  13.978  0.0466  0.0493 -0.0002
26661W        W42555  11.159   5.555   1.951 -0.2578 -0.0035 -0.1222
26662W        W42556   3.447   9.771  15.166  0.0126  0.0981  0.2197
26663W        W42557  12.186   6.929   2.517  0.1606  0.1579 -0.4546
26664W        W42558   0.542  10.673   4.146 -0.0821 -0.0492 -0.0551
26665W        W42559   4.228   1.768  11.566 -0.0378 -0.0353  0.1331
26666W        W42560  16.615   8.974   3.326  0.2961 -0.0704 -0.1964
26667W        W42561  13.623  16.882   5.057  0.1839  0.0571  0.0270
26668W        W42562  17.545   2.940   3.319 -0.1400 -0.1404 -0.1465
26669W        W42563   9.250   3.913   0.614 -0.1716  0.0608 -0.0739
26670W        W42564   0.088  12.815   0.410  0.4572 -0.1913 -0.1355
26671W        W42565   3.419   2.283   4.913  0.0448  0.1023  0.3098
26672W        W42566   8.459   6.717  13.933  0.1410  0.1080 -0.0945
26673W        W42567   0.656   8.445   0.550 -0.0307  0.2887  0.3996
26674W        W42568   5.982  10.308   0.383 -0.1730 -0.0380  0.2246
26675W        W42569   0.245   2.179   2.061  0.1896  0.3153  0.0109
26676W        W42570   5.144   3.240  13.197  0.2343  0.1475 -0.1882
26677W        W42571  13.315   6.359   1.039  0.0370  0.2155 -0.0513
26678W        W42572   2.354  17.725  11.920  0.0068 -0.1410  0.1220
26679W        W42573  14.509   9.529  12.966  0.1417 -0.0641 -0.1993
26680W        W42574  13.179  11.396   1.070  0.4808  0.0157 -0.1038
26681W        W42575   2.386  15.679  15.236 -0.0684  0.3282 -0.3138
26682W        W42576  14.800  13.546   0.515  0.3585  0.4179  0.1288
26683W        W42577  16.756   5.636  12.901  0.1661 -0.1634  0.0881
26684W        W42578  17.248   1.573   4.188  0.0200 -0.0532  0.1730
26685W        W42579  17.894  16.046   1.388 -0.1280  0.0192 -0.1946
26686W        W42580   0.231  13.621  15.854 -0.2789  0.2139 -0.2615
26687W        W42581   0.475   1.214   3.900  0.1467  0.0268 -0.0325
26688W        W42582   4.472  17.377  13.253  0.1251  0.3557  0.2165
26689W        W42583   0.543  12.988   4.946  0.3003 -0.5801 -0.3315
26690W        W42584  12.636   1.917   3.909 -0.2365  0.2077 -0.2090
26691W        W42585  18.014  12.408   0.631 -0.1046 -0.2381  0.0586
26692W        W42586  16.934   4.330  12.068  0.1002 -0.2537  0.1443
26693W        W42587  16.203  17.507   1.805  0.0300 -0.2123  0.0645
26694W        W42588  14.186  13.369  11.830  0.1473 -0.0501  0.1515
26695W        W42589  16.980  11.558   0.939  0.0642 -0.0293 -0.1736
26696W        W42590   3.268   1.726  11.550 -0.1269  0.0911  0.3215
26697W        W42591   0.441   3.242  13.474  0.2579  0.0680 -0.2430
26698W        W42592  13.864   0.036  12.904  0.0834  0.1157  0.3153
26699W        W42593  17.619  15.365  14.096  0.1140  0.1913 -0.3505
26700W        W42594  12.457  10.474  15.237  0.0745  0.4089  0.0086
26701W        W42595   3.517   7.161   3.816  0.0931 -0.2432  0.3017
26702W        W42596  15.716  17.693   2.034 -0.0292  0.2260 -0.1728
26703W        W42597   3.473  13.208   6.025  0.5725  0.2724  0.1395
26704W        W42598   5.078  11.108  13.868 -0.1955 -0.0542 -0.0432
26705W        W42599   8.717  12.462   0.630  0.0222 -0.0370 -0.1171
26706W        W42600  16.119   6.630   3.917 -0.1216  0.0275 -0.1771
26707W        W42601  14.116  11.389  12.248  0.1516 -0.1868 -0.0100
26708W        W42602   6.738  15.688   2.538  0.0499 -0.0517  0.0092
26709W        W42603   8.496  16.962   2.383 -0.1952  0.0842  0.3830
26710W        W42604   3.488   1.721  14.616 -0.1656 -0.2578 -0.2110
26711W        W42605   5.416   5.390   4.079  0.0082 -0.1082  0.1605
26712W        W42606  14.176  17.111  13.673 -0.1881  0.2331 -0.1397
26713W        W42607  10.382   3.919  13.265 -0.2600  0.0699  0.2565
26714W        W42608   9.089   8.568   1.401 -0.0666 -0.0530  0.0315
26715W        W42609   0.271   6.639  12.227  0.0006  0.2352  0.1144
26716W        W42610   6.270   8.655   1.440 -0.0212  0.1215 -0.0596
26717W        W42611  16.824   6.228   2.861 -0.2415 -0.2466 -0.1819
26718W        W42612   7.824  14.768  13.266 -0.2617 -0.3271  0.1421
26719W        W42613   3.778   1.307   4.718 -0.0339  0.2300 -0.1432
26720W        W42614   9.638  11.023  11.424  0.3056 -0.0847  0.0393
26721W        W42615   1.582  15.903   4.636 -0.0936 -0.3142 -0.3332
26722W        W42616   5.273   1.427   4.160 -0.2029 -0.0976  0.3552
26723W        W42617   0.415  13.983  12.482 -0.3850  0.2546  0.3539
26724W        W42618   3.829  13.042   0.976 -0.3091 -0.0221 -0.2890
26725W        W42619  14.390   8.376  12.065 -0.2117  0.0640 -0.0632
26726W        W42620  14.502  17.891  15.206  0.1777  0.1788  0.2777
26727W        W42621   9.079  13.631   0.058 -0.0301 -0.2942  0.0708
26728W        W42622   9.402   7.292  15.760 -0.0482  0.0833  0.0084
26729W        W42623  11.400   9.514  14.925  0.3139  0.0437  0.0336
26730W        W42624   4.216   7.664  14.544 -0.0423 -0.3646 -0.0157
26731W        W42625   0.733   3.843  12.226  0.0676 -0.0740  0.1052
26732W        W42626  14.295   1.035   2.537 -0.1501  0.0618  0.0090
26733W        W42627   1.171   9.408   1.662  0.0411 -0.1257 -0.2016
26734W        W42628   4.652   6.850  13.879 -0.1157 -0.1278 -0.2227
26735W        W42629   4.816  12.821   1.723 -0.3003  0.0431  0.0681
26736W        W42630  10.781  12.028  15.982  0.0997  0.0235 -0.0799
26737W        W42631   6.166  17.829   0.191 -0.2053  0.5277  0.0713
26738W        W42632   2.653   0.509   2.583 -0.3438 -0.0058 -0.1453
26739W        W42633   3.891  13.402   3.424  0.0874  0.2586 -0.0240
26740W        W42634  13.399  16.372  14.920  0.0271  0.0127 -0.0077
26741W        W42635   8.191   2.529   3.208  0.3239 -0.6528  0.0668
26742W        W42636  14.293   7.855  15.910 -0.1052 -0.1415  0.1323
26743W        W42637   2.493   8.268  13.401  0.2020 -0.0234  0.0845
26744W        W42638   6.453  13.304   1.202  0.3519  0.4707 -0.1127
26745W        W42639   7.955  15.869  13.436 -0.0832 -0.1173  0.1419
26746W        W42640  10.154  12.526   2.167  0.2764 -0.1222 -0.0811
26747W        W42641  13.097  12.789   3.221 -0.2157  0.0821 -0.0197
26748W        W42642   9.898   9.993   0.045  0.0856  0.1552 -0.0597
26749W        W42643  14.006   3.797   0.169  0.0982 -0.0558 -0.1150
26750W        W42644   9.265   4.179  14.357 -0.0143 -0.0630  0.0358
26751W        W42645   4.544   8.162  12.704  0.0545 -0.0530 -0.1126
26752W        W42646   9.068  13.446  11.794 -0.0514 -0.2462  0.2180
26753W        W42647  13.048  11.957   3.369  0.0399 -0.0467 -0.0377
26754W        W42648   7.093  13.016  12.219 -0.0499 -0.0171 -0.0746
26755W        W42649   1.301   7.502   0.640  0.0836 -0.2439  0.0897
26756W        W42650  12.685  16.490   3.135 -0.0567  0.0614 -0.0334
26757W        W42651  15.527  12.101   1.641  0.1637  0.0197 -0.0171
26758W        W42652   1.472   0.292   5.465 -0.1192  0.0908 -0.3206
26759W        W42653   0.628   8.967  15.268  0.0777 -0.1026  0.0737
26760W        W42654   8.053  15.145   1.520 -0.0823 -0.0052 -0.4081
26761W        W42655   5.464   2.257   0.701  0.0961 -0.0440  0.1083
26762W        W42656  17.134   4.203   1.863 -0.1222 -0.0857 -0.0621
26763W        W42657  12.898  16.723   2.009  0.0881  0.0860  0.3821
26764W        W42658   9.552   5.831  12.035 -0.1502 -0.0392  0.0168
26765W        W42659  17.700  12.171  12.858 -0.2500 -0.0864  0.0630
26766W        W42660   0.626  16.894   3.437  0.1124 -0.0381  0.1912
26767W        W42661  15.922  12.716   3.005  0.0063 -0.1626  0.2151
26768W        W42662   6.701  10.687  14.131 -0.0565 -0.3747 -0.2531
26769W        W42663  17.018   0.867   6.313  0.0013  0.0868  0.1258
26770W        W42664  10.223  17.737  15.244  0.0010 -0.1956 -0.3290
26771W        W42665  17.580   7.511  15.773  0.0651  0.4379  0.2898
26772W        W42666  17.392   4.596   3.259 -0.0615  0.0748  0.1662
26773W        W42667   3.362  11.467   2.112  0.3228 -0.0265  0.2505
26774W        W42668  11.944   7.134   0.383  0.2205  0.4954 -0.1377
26775W        W42669   8.104   0.827  12.033  0.1976  0.0731  0.2442
26776W        W42670   7.468  16.112   2.524 -0.2177  0.0978  0.5251
26777W        W42671  13.875  10.821   1.389  0.1807  0.1151  0.0895
26778W        W42672  12.249   2.069   0.270  0.2540 -0.2339 -0.3292
26779W        W42673   3.797   8.064  15.542  0.3101 -0.0390 -0.1626
26780W        W42674  12.631  16.252   5.035  0.2145 -0.0237  0.0335
26781W        W42675   6.630  15.093  15.985 -0.1763  0.4606 -0.4096
26782W        W42676   5.731  14.154   5.261 -0.2397 -0.0712  0.0982
26783W        W42677   6.857   2.409   0.234  0.2021  0.2102 -0.0359
26784W        W42678  11.139  18.170  13.191 -0.4482 -0.0495  0.0482
26785W        W42679   8.729   7.556  16.358  0.0307 -0.0588 -0.0213
26786W        W42680   6.973  12.473   6.071 -0.2180 -0.4603 -0.0447
26787W        W42681  14.929  12.735   1.281 -0.0733 -0.2246  0.1642
26788W        W42682   1.811   7.190   4.456 -0.2784  0.1483  0.0067
26789W        W42683  17.669   5.146  16.379 -0.4103 -0.0162 -0.1664
26790W        W42684  16.957   5.551  13.417 -0.3531 -0.0083 -0.1897
26791W        W42685   8.101  11.426  12.093 -0.1531 -0.0056 -0.4427
26792W        W42686   9.988  13.644  16.372  0.0873 -0.1236 -0.1801
26793W        W42687   1.117   5.654  14.961 -0.0917  0.0246 -0.2162
26794W        W42688  14.455  11.138  15.867 -0.0315 -0.2851 -0.3157
26795W        W42689   4.581   1.493  11.180 -0.0740  0.2748 -0.0140
26796W        W42690   5.927  13.520  14.544  0.1563  0.2126 -0.0372
26797W        W42691  14.558  13.153   0.107 -0.3188  0.4514  0.0262
26798W        W42692   6.935   8.284   0.748 -0.2796 -0.0641 -0.2167
26799W        W42693  15.451  12.025  12.731 -0.1091 -0.1695 -0.0961
26800W        W42694  13.317  11.453  14.768 -0.1657  0.1339  0.3380
26801W        W42695  10.999   0.567  11.444 -0.2056  0.0584  0.1731
26802W        W42696   5.934  11.022  13.904 -0.1295  0.0674 -0.0476
26803W        W42697   1.815   9.055  15.808  0.1446  0.1757  0.0087
26804W        W42698  12.323   1.408  11.962  0.0387  0.0722  0.2110
26805W        W42699  16.378   2.874   4.629 -0.1898  0.1484  0.1559
26806W        W42700   2.459   4.231   1.102 -0.0112  0.0041 -0.0663
26807W        W42701  14.355  17.626   4.841  0.1773  0.2957 -0.1252
26808W        W42702  16.066  12.796  16.452  0.3565  0.4030  0.0867
26809W        W42703   3.231   4.982  15.296  0.2044  0.4462 -0.1922
26810W        W42704  16.990   1.979   1.102  0.3558  0.2185 -0.0792
26811W        W42705  10.991  12.741  13.473 -0.2408  0.0898  0.0411
26812W        W42706   1.422   3.704   3.163 -0.0329  0.1715  0.1417
26813W        W42707   0.411   4.034   6.006 -0.0099 -0.1470  0.2226
26814W        W42708   4.985  12.071  13.060 -0.1735 -0.0425 -0.1889
26815W        W42709   7.416   0.401   5.314  0.0128  0.2090  0.0863
26816W        W42710  12.432   3.697  14.666  0.4414  0.0291  0.1667
26817W        W42711  17.771  18.229   0.585  0.4801  0.1521 -0.1660
26818W        W42712   3.776   2.036   0.740  0.0844 -0.2881  0.0333
26819W        W42713   9.315   5.205   0.599  0.1299 -0.2040  0.0672
26820W        W42714  16.901  14.167   0.862 -0.2193 -0.1235 -0.0086
26821W        W42715   5.161   7.940   3.667 -0.3158  0.0458  0.1223
26822W        W42716  11.389   8.778  12.878  0.2538  0.0472  0.0865
26823W        W42717  11.643   1.936  12.456  0.3000  0.1646 -0.0061
26824W        W42718   9.091  14.220  15.961 -0.0896  0.0121  0.0846
26825W        W42719  16.576  14.763   2.120 -0.0185 -0.2051 -0.0801
26826W        W42720   4.889  11.589  13.171 -0.1040 -0.1509 -0.0502
26827W        W42721  16.571  13.241   1.088 -0.0047 -0.3063 -0.2734
26828W        W42722   4.426   7.644  10.683  0.1721 -0.0834 -0.1366
26829W        W42723   2.754   5.497   5.200  0.1012  0.1845 -0.1381
26830W        W42724   9.158  16.508   4.919 -0.1010 -0.0278  0.1078
26831W        W42725  12.773  12.432   4.490 -0.2485 -0.5099 -0.0042
26832W        W42726   5.433   9.999  15.402  0.1646 -0.0654  0.1191
26833W        W42727   4.665   2.542   3.136  0.0372  0.1153 -0.1477
26834W        W42728  11.383  10.672   4.414 -0.1564 -0.1092  0.1157
26835W        W42729  12.004   8.253   3.866  0.0677 -0.1453  0.1899
26836W        W42730   3.670   7.977   3.076  0.1365  0.0450 -0.0489
26837W        W42731   6.973  13.132   1.906  0.3328  0.0872 -0.2683
26838W        W42732  10.753   4.073   2.960  0.2594  0.1096 -0.2361
26839W        W42733   2.860   8.697   0.734  0.2304  0.0919 -0.0840
26840W        W42734  17.999   4.432  12.981 -0.2566 -0.1438  0.0395
26841W        W42735   4.718   6.376   2.760 -0.2641 -0.2597 -0.1956
26842W        W42736  12.005   7.782   4.633  0.3095  0.2506 -0.0569
26843W        W42737  13.188   8.258   3.026  0.3019  0.0204 -0.4087
26844W        W42738  14.639   8.858   4.674 -0.1591  0.1445 -0.1336
26845W        W42739   0.740  16.864   0.868  0.0599 -0.0977 -0.1325
26846W        W42740   1.409  10.455  15.373 -0.0160 -0.3241  0.1157
26847W        W42741  10.505  11.179  13.563  0.2205 -0.1910 -0.1261
26848W        W42742  10.221   4.854  11.208 -0.1750  0.1165  0.2340
26849W        W42743  10.783  12.363  13.280  0.0282 -0.1333 -0.4255
26850W        W42744   8.782  15.822   1.362 -0.2580 -0.3502  0.1528
26851W        W42745   1.792  14.321  12.661 -0.0875 -0.2728  0.3148
26852W        W42746  15.229  10.957   2.330  0.1163 -0.2218 -0.1022
26853W        W42747  14.549  16.857  13.210 -0.2557 -0.0987 -0.3454
26854W        W42748  14.171  16.402   1.454 -0.2217 -0.1817  0.0361
26855W        W42749  16.844  14.115   0.403 -0.0554 -0.0537 -0.0259
26856W        W42750   6.091   5.172  15.260  0.3015 -0.1085  0.0894
26857W        W42751   3.028  11.382   6.045  0.1089 -0.0679  0.0519
26858W        W42752   6.727   1.510  12.033 -0.3626  0.1274 -0.0629
26859W        W42753  13.904   2.569   0.366 -0.1216 -0.0881  0.0271
26860W        W42754  16.405  13.411   3.882  0.1108  0.0246 -0.0198
26861W        W42755  16.287  15.491   2.688 -0.0714 -0.2335 -0.0139
26862W        W42756   1.592  16.511  13.052 -0.2270 -0.3357 -0.1990
26863W        W42757   5.908  18.065  12.310 -0.3874 -0.2499 -0.1008
26864W        W42758   5.046   7.976   2.234  0.1539  0.2093 -0.1118
26865W        W42759   4.456  11.449   3.726 -0.0798 -0.1773  0.0107
26866W        W42760  17.947  15.533  14.753  0.0779 -0.0005  0.1698
26867W        W42761   6.069   5.163   0.217  0.3185  0.0652  0.0004
26868W        W42762  10.332  15.765   0.249  0.1029 -0.1442  0.0860
26869W        W42763  15.613   2.045   0.370  0.1556  0.1355 -0.1831
26870W        W42764   0.408  14.163   3.943 -0.0258  0.0075 -0.1956
26871W        W42765   1.464  14.440  14.908 -0.1320  0.3319 -0.0023
26872W        W42766   8.425  17.026   1.485  0.1087 -0.0325  0.1323
26873W        W42767   0.418   9.276  13.735  0.0123 -0.0629  0.2244
26874W        W42768  16.805  16.092  13.977  0.0193  0.1791  0.3096
26875W        W42769  17.396  10.162   1.906 -0.0291 -0.0994 -0.2949
26876W        W42770   0.439   2.574  14.687 -0.1269  0.0151 -0.0997
26877W        W42771   3.501  12.431   3.815 -0.0853  0.1433  0.0129
26878W        W42772  16.878   9.609   2.621  0.0538 -0.1408  0.3223
26879W        W42773   4.380   6.145   3.798  0.0429  0.2430  0.4065
26880W        W42774  10.540  14.532   5.568 -0.3889  0.2088 -0.1873
26881W        W42775   1.204   3.146  14.768 -0.1764 -0.4663  0.0486
26882W        W42776  12.906  17.669   1.978 -0.2512 -0.0503  0.3346
26883W        W42777   5.224  15.027   0.816 -0.0327  0.0234  0.2023
26884W        W42778   2.910   4.209   4.261 -0.0859 -0.0493 -0.1484
26885W        W42779   9.150   8.823  12.558  0.1952 -0.1959 -0.2785
26886W        W42780   7.413   4.760   1.993  0.0060 -0.2730 -0.2629
26887W        W42781   5.592   8.477  11.378  0.0739 -0.1346 -0.1790
26888W        W42782  12.842   7.421   1.469 -0.1635 -0.7063 -0.6079
26889W        W42783   8.648   6.620  14.891  0.0658 -0.0172 -0.0473
26890W        W42784  12.472   3.654  13.770  0.1914 -0.0520 -0.2113
26891W        W42785  14.153   8.326  13.428 -0.0884  0.0146  0.1345
26892W        W42786   2.400   9.423   2.826  0.0193 -0.1663 -0.1131
26893W        W42787  16.101   9.740  14.843 -0.0379 -0.1198 -0.1450
26894W        W42788   4.386  14.626   0.808  0.2143 -0.0054 -0.1084
26895W        W42789   1.166  11.784   3.936 -0.3716 -0.2215 -0.1665
26896W        W42790   7.678  12.541  13.622 -0.0074 -0.1419 -0.0234
26897W        W42791   4.291  14.478  15.268  0.1083 -0.1977  0.0767
26898W        W42792   5.932   9.523  11.259 -0.2842  0.1248  0.1105
26899W        W42793   1.588  11.760  14.202 -0.0568  0.1448 -0.0878
26900W        W42794  15.137   6.113   0.852 -0.0875  0.2060  0.0536
26901W        W42795  12.428  13.205  13.582 -0.0157  0.2699 -0.3496
26902W        W42796   0.355  13.883  14.262  0.0995 -0.1074  0.2123
26903W        W42797   4.469  15.482   2.101 -0.0035 -0.0420  0.0345
26904W        W42798  10.645   5.836   1.970 -0.3539 -0.1829  0.1928
26905W        W42799  10.742   2.280  12.045  0.4633 -0.4237  0.0484
26906W        W42800   7.142   8.203   1.251 -0.2382  0.1898 -0.0629
26907W        W42801   8.294   6.500   0.239 -0.1501 -0.1191  0.0783
26908W        W42802  12.002  10.256  11.198 -0.1417  0.0502  0.0138
26909W        W42803   3.567  17.888   1.020 -0.0838  0.1275  0.2384
26910W        W42804   0.153   9.186   3.028  0.3355 -0.0820 -0.1104
26911W        W42805  15.331  14.912   4.593 -0.0666 -0.0987  0.0322
26912W        W42806   3.985  14.771   1.028  0.1317 -0.1370  0.1373
26913W        W42807   5.041   2.689  15.864  0.1769  0.1407 -0.0385
26914W        W42808  17.762   2.660  15.125  0.2783 -0.1173  0.3949
26915W        W42809   7.605  17.852  14.678 -0.0872 -0.0677  0.0810
26916W        W42810   2.558   4.693   4.240 -0.1618 -0.2522 -0.4033
26917W        W42811  14.884   2.829   2.387 -0.2298 -0.3990  0.0544
26918W        W42812   9.127   7.422   0.778  0.1009 -0.2665 -0.1031
26919W        W42813  12.800  17.194  16.067  0.3824  0.0894  0.0323
26920W        W42814   5.858  16.432  11.843  0.0986 -0.1491 -0.4568
26921W        W42815   8.770  14.418  14.612  0.0893 -0.0681  0.0394
26922W        W42816  10.686   7.253   5.215  0.0482 -0.0390  0.0513
26923W        W42817   0.698  17.466   1.533 -0.2179  0.0437  0.0085
26924W        W42818   1.346   5.974   1.676  0.1696 -0.1182  0.3257
26925W        W42819   4.013  11.811   0.823 -0.1117 -0.1663  0.0434
26926W        W42820  13.690   0.904   4.790  0.0876 -0.0255 -0.1368
26927W        W42821  16.168   3.554  11.501 -0.2538 -0.0445 -0.0634
26928W        W42822  12.108   3.361   1.084  0.0838 -0.1662 -0.2073
26929W        W42823  12.547   7.857  15.005  0.0072  0.1833 -0.0494
26930W        W42824   8.164  15.178  13.138 -0.1499 -0.0382  0.4112
26931W        W42825  15.907   9.402  12.994 -0.1777  0.1955  0.0668
26932W        W42826   0.858  11.092  15.903  0.1090 -0.2449  0.1883
26933W        W42827   5.509   9.503  13.574  0.0950 -0.0685  0.0297
26934W        W42828  11.471  17.759  12.810  0.2148  0.2276  0.1934
26935W        W42829  12.105  13.640   5.836 -0.2558 -0.1587  0.0228
26936W        W42830   5.610  16.750   1.924 -0.0584 -0.3438  0.0667
26937W        W42831   3.111  15.783  14.410  0.1625  0.0873 -0.0798
26938W        W42832   8.915   2.621   6.551  0.0095  0.2128  0.1219
26939W        W42833   8.279  10.953   4.672 -0.1100  0.0698  0.1236
26940W        W42834   0.747   6.001   2.552  0.0904  0.2864 -0.1453
26941W        W42835  15.463  13.675  11.787 -0.1421 -0.1945 -0.2032
26942W        W42836  15.584   6.844  14.988 -0.0668 -0.0509  0.1782
26943W        W42837   0.907   6.405  14.409  0.1946 -0.2434 -0.2506
26944W        W42838  15.383   8.468   5.170  0.0619  0.1116  0.3562
26945W        W42839   9.776  17.144   2.851 -0.0287 -0.0658 -0.1965
26946W        W42840   1.570   1.185  14.407 -0.1393 -0.0412  0.0354
26947W        W42841  13.383  16.304  11.283  0.0932 -0.2281 -0.0665
26948W        W42842  12.351  10.986   2.980 -0.1465 -0.2029  0.0871
26949W        W42843  16.628  11.404   2.713 -0.3572  0.2241 -0.1944
26950W        W42844  17.784   3.316  15.990 -0.0664  0.1946 -0.1619
26951W        W42845  13.409  14.696   4.706  0.0323  0.2027 -0.2715
26952W        W42846  11.848  17.513  12.161  0.0798  0.2947  0.1152
26953W        W42847   6.719  11.202   1.943  0.0630 -0.1529 -0.1806
26954W        W42848  12.190  17.898   2.343  0.1692  0.1527  0.3965
26955W        W42849  10.459  15.336  11.628 -0.0332 -0.2493 -0.0004
26956W        W42850   1.788   3.521   2.501  0.0596  0.0230  0.0983
26957W        W42851   1.958   7.076  12.293  0.1373 -0.0011 -0.2260
26958W        W42852  10.568  10.226   0.624  0.2095 -0.3897 -0.1343
26959W        W42853   7.732  12.739  13.170 -0.0573 -0.0369  0.0258
26960W        W42854  15.141   0.380   0.634  0.2167  0.0376 -0.1980
26961W        W42855  17.277   7.102   4.496  0.0666  0.2535 -0.4691
26962W        W42856   6.577   6.274  11.219 -0.4252  0.0368  0.1846
26963W        W42857  10.955   9.758  13.754 -0.2498 -0.1740  0.0387
26964W        W42858   7.749  18.123   0.480  0.2393 -0.1060 -0.2923
26965W        W42859   5.158   2.797  13.515  0.3210 -0.4444 -0.0413
26966W        W42860  16.363  14.111  15.900  0.0077  0.0155 -0.1611
26967W        W42861  14.581  13.315   4.640 -0.0025 -0.1178  0.0057
26968W        W42862  16.342   4.069  11.679  0.0795  0.2142  0.0461
26969W        W42863  13.520   0.519   3.416 -0.1001 -0.0226  0.2646
26970W        W42864  13.297  13.332  11.835  0.0360 -0.0603 -0.0914
26971W        W42865   8.569   0.878  11.226 -0.2265  0.4018  0.2155
26972W        W42866  17.788  14.046   4.571  0.1633  0.3000 -0.2248
26973W        W42867   5.398   7.330   4.422  0.0105 -0.1360 -0.1829
26974W        W42868   6.003   7.746  12.042 -0.1838 -0.0922  0.1420
26975W        W42869   0.150   1.886   1.204 -0.1443  0.1895 -0.2372
26976W        W42870   4.936   7.140  12.800  0.1323 -0.1984 -0.0819
26977W        W42871   7.348   0.735   1.783  0.0382 -0.1632 -0.1817
26978W        W42872   5.904  10.695  15.319 -0.1698 -0.0617  0.1374
26979W        W42873   0.213  10.578   3.793  0.1747 -0.0783 -0.1742
26980W        W42874   1.218   8.927  12.214 -0.2686 -0.3551 -0.2352
26981W        W42875  17.752   0.193   5.614  0.0710 -0.0157 -0.1125
26982W        W42876   3.460  15.888  15.645 -0.0750 -0.0984  0.0430
26983W        W42877   0.364   7.778   1.883 -0.3644  0.1018  0.2204
26984W        W42878   1.671  15.713   4.174  0.1602 -0.2158 -0.3990
26985W        W42879   1.644  16.160  14.814 -0.1187 -0.2965 -0.0599
26986W        W42880   7.820   4.287  14.394  0.4524  0.0975 -0.4575
26987W        W42881  10.247  15.801   1.590 -0.0522 -0.1266  0.1018
26988W        W42882   2.481   4.444  11.571  0.0575 -0.0563 -0.1457
26989W        W42883  16.418  15.347   4.083  0.2242 -0.1120  0.2623
26990W        W42884  14.651  17.982  14.152 -0.0397  0.2724  0.3280
26991W        W42885   9.733   9.916  13.385 -0.1802  0.0642 -0.0640
26992W        W42886   3.576  12.444  15.385  0.1016  0.1812  0.2399
26993W        W42887   3.584  11.543  16.396  0.3751  0.4477 -0.2104
26994W        W42888   7.392   0.572   1.231  0.3756  0.1879  0.3857
26995W        W42889  16.173   4.283  12.887  0.0108  0.0958 -0.1366
26996W        W42890  13.305   6.899  14.257  0.0462  0.0009 -0.0279
26997W        W42891   3.688  10.433   4.010 -0.0069  0.0393  0.0530
26998W        W42892  17.557   1.559   1.477 -0.1299 -0.1069  0.1745
26999W        W42893  11.003   2.972   0.421 -0.1494 -0.1755 -0.1581
27000W        W42894   3.979  12.171   3.724  0.0223 -0.2402 -0.2682
27001W        W42895  17.218  16.596   5.127  0.1548 -0.0046 -0.3596
27002W        W42896  14.451   7.992   5.001  0.2634 -0.1768 -0.2188
27003W        W42897  15.533  15.554   1.946 -0.1042  0.0699 -0.1550
27004W        W42898  11.930  17.841   0.493 -0.1362  0.1097 -0.0820
27005W        W42899   8.979  15.465  11.474 -0.1803  0.2273 -0.1422
27006W        W42900  13.628  12.198   0.220 -0.2135 -0.1417 -0.1354
27007W        W42901  17.068   6.823  14.648  0.0498  0.1531  0.0177
27008W        W42902   4.689  16.389   2.217  0.1683  0.3832 -0.3635
27009W        W42903   2.049  17.655   2.649 -0.3278 -0.1797 -0.1186
27010W        W42904   8.622  17.332  13.123  0.1636  0.2778 -0.0277
27011W        W42905  15.269   3.486   1.664  0.0377 -0.1900 -0.1779
27012W        W42906   6.799   3.552  15.125  0.0455 -0.0098 -0.0904
27013W        W42907  10.968   8.122   3.415 -0.4374 -0.0328  0.1157
27014W        W42908  14.712   9.603   0.559  0.2404 -0.2691  0.1181
27015W        W42909   8.237   2.410  12.831  0.0033  0.0243  0.1433
27016W        W42910  11.292   1.124   2.349 -0.0355  0.0296 -0.3688
27017W        W42911  14.173   9.931  14.240  0.0727 -0.1251  0.1130
27018W        W42912  17.866   1.984   5.790 -0.1177  0.1181 -0.3287
27019W        W42913  11.501  13.234  14.029  0.2086 -0.1517 -0.0099
27020W        W42914   8.335  16.430  15.609  0.0690 -0.2987  0.0141
27021W        W42915  13.728   1.560  11.138  0.0947 -0.0567 -0.4198
27022W        W42916  14.442  12.294   4.812 -0.1075  0.0834 -0.3368
27023W        W42917   2.871  10.986   4.760  0.0830  0.2758  0.4802
27024W        W42918  11.761   4.746  10.736  0.0220  0.0835  0.1223
27025W        W42919   7.505   9.977   1.181 -0.0172  0.0570 -0.2256
27026W        W42920  11.258   4.677   1.488  0.1807 -0.2991  0.1370
27027W        W42921   9.911   2.240  16.253  0.3122 -0.2355  0.1281
27028W        W42922  16.852  12.767   1.767 -0.3031 -0.0670  0.3246
27029W        W42923   1.807  15.406  12.651 -0.2431  0.0190  0.3990
27030W        W42924   3.233  16.356   0.618  0.0527 -0.1234 -0.1766
27031W        W42925   1.426   1.415   2.637 -0.0781  0.0702 -0.1862
27032W        W42926   3.209  17.586  15.593  0.2468 -0.0627 -0.0055
27033W        W42927   0.269   4.680  15.238  0.2636 -0.2276  0.0983
27034W        W42928  16.476  13.699  15.623 -0.2264  0.0962 -0.3366
27035W        W42929   4.209  11.592   4.610 -0.0673 -0.0456  0.0333
27036W        W42930  11.089   4.414  14.721 -0.2648  0.0155 -0.1433
27037W        W42931   6.379   6.009  12.617 -0.0227 -0.2988  0.2334
27038W        W42932  15.024  10.530  15.992  0.1116 -0.2325 -0.0174
27039W        W42933  13.362  11.165  15.799  0.1401  0.3379  0.1723
27040W        W42934   3.160  14.575   4.296 -0.2688 -0.0950  0.1071
27041W        W42935  13.981   4.642  14.333 -0.1356 -0.0086  0.1944
27042W        W42936   8.997   2.578   2.756 -0.1034  0.1842  0.1837
27043W        W42937   4.584   4.683   2.717 -0.0616 -0.1923 -0.0752
27044W        W42938   9.071   6.324   1.351 -0.0229 -0.1890 -0.1261
27045W        W42939  16.422   0.622  15.806  0.0353 -0.3664  0.0018
27046W        W42940   0.028  13.110  15.879  0.1954 -0.1230  0.0164
27047W        W42941  15.509   0.782   4.330  0.1611 -0.0450  0.0661
27048W        W42942   6.317   9.117   2.607  0.1677  0.0771 -0.1459
27049W        W42943   1.452   5.362   5.019  0.0657  0.2407  0.3430
27050W        W42944   7.882  17.115   0.238 -0.0376  0.0398 -0.2624
27051W        W42945   1.993   6.832  14.860 -0.1865  0.0719  0.0612
27052W        W42946   8.276   1.778  16.002  0.0229 -0.3483 -0.0555
27053W        W42947   2.033  11.088  15.955 -0.1543 -0.1205 -0.0546
27054W        W42948  13.492   9.561  15.170 -0.1543 -0.0207 -0.0661
27055W        W42949  17.238  15.901  13.115 -0.1717 -0.0145  0.0547
27056W        W42950  17.783  14.675  11.353 -0.4015  0.1417  0.2500
27057W        W42951  12.115   8.067   1.349  0.1383  0.0670 -0.2890
27058W        W42952  14.346   5.741  13.828 -0.0428  0.1964  0.0178
27059W        W42953  10.949   7.664   3.056 -0.4361 -0.0374  0.3971
27060W        W42954  10.083   1.863  14.245 -0.2018 -0.0089  0.2149
27061W        W42955   9.973   2.873   2.653 -0.1817 -0.1944 -0.2330
27062W        W42956   0.677   7.396   3.500  0.0209 -0.1959 -0.1211
27063W        W42957   1.335   0.015  15.385 -0.0050 -0.1271  0.0768
27064W        W42958   5.299   9.498  14.058  0.0287  0.1866  0.0515
27065W        W42959  12.913  16.694   1.459 -0.1668  0.0437 -0.5098
27066W        W42960  16.081   5.175  11.337 -0.0337 -0.4362  0.0716
27067W        W42961   3.905  12.499  13.423  0.2251  0.0410  0.0156
27068W        W42962   9.269   0.363  14.175  0.3949  0.0251 -0.1840
27069W        W42963  17.948  11.985  16.114 -0.2262 -0.0822 -0.1989
27070W        W42964  16.087  16.327   5.873  0.0571 -0.0305 -0.1073
27071W        W42965   4.781   5.959   5.240  0.0185  0.1670 -0.1163
27072W        W42966  17.879   4.593   2.507 -0.3825 -0.0347 -0.2311
27073W        W42967  15.196   7.279   3.243 -0.3168 -0.1705  0.2255
27074W        W42968  14.405   0.454   3.073  0.3060 -0.0236 -0.1939
27075W        W42969  17.232   7.153   0.640  0.0271  0.0359  0.1334
27076W        W42970  11.149  15.233  15.873 -0.2607 -0.0824 -0.0227
27077W        W42971  17.591  18.113  12.507  0.1547  0.1320  0.0231
27078W        W42972  12.797   9.603   5.993  0.1193 -0.0067 -0.1948
27079W        W42973  12.310  15.410   4.287 -0.4057  0.1192  0.2035
27080W        W42974   5.599   1.447   5.414 -0.3407  0.1063  0.1580
27081W        W42975   0.343  16.767   1.778 -0.2888  0.0674 -0.2437
27082W        W42976   9.616   0.040   2.055  0.0307  0.1010  0.0099
27083W        W42977  12.917  10.731  11.464 -0.0658  0.3953 -0.1352
27084W        W42978   8.212  15.611  16.407 -0.0413  0.0389  0.0140
27085W        W42979   0.424   4.374  11.483 -0.5002 -0.2834  0.0955
27086W        W42980  10.827  12.047   1.066  0.2649 -0.1590  0.1082
27087W        W42981  12.169  10.095  14.481  0.0301  0.1808 -0.0665
27088W        W42982   9.740  18.198   3.369 -0.1273  0.4410  0.3721
27089W        W42983  15.376   1.050  12.633  0.3564  0.0225 -0.1490
27090W        W42984   6.714  15.938  11.756  0.1679  0.0623 -0.0629
27091W        W42985  13.030  11.022  12.449  0.1297  0.0686  0.2633
27092W        W42986  11.770   3.411   1.608 -0.2274 -0.3300 -0.1384
27093W        W42987  15.762  16.099   5.198 -0.0821 -0.3013 -0.0310
27094W        W42988   0.391   7.119   3.889  0.0049  0.3195 -0.0319
27095W        W42989  15.182  11.258   0.614  0.2820 -0.3202  0.0476
27096W        W42990  13.919  13.440  13.695 -0.0332  0.0256 -0.1492
27097W        W42991   9.096   7.705   4.134  0.2321  0.0825  0.0799
27098W        W42992   4.098   3.865  10.913  0.1186  0.0284 -0.0175
27099W        W42993   8.967   5.445  13.682 -0.1089  0.0497  0.3833
27100W        W42994   7.018   6.679  15.505  0.1042  0.2615 -0.1320
27101W        W42995   1.847   5.746  16.261  0.0473  0.2210  0.2092
27102W        W42996   7.885  15.871   2.278 -0.0223 -0.2563  0.2476
27103W        W42997   7.352  14.664   4.152  0.4325 -0.0668  0.3251
27104W        W42998  11.538  11.801   1.718  0.0398 -0.1705 -0.2774
27105W        W42999  11.507  10.971  15.576  0.0264  0.3573  0.0315
27106W        W43000   1.326  17.012  16.307  0.1070 -0.3113 -0.0375
27107W        W43001  17.893  17.381   3.820 -0.0909  0.0380  0.0325
27108W        W43002  10.972   8.463   3.791 -0.1961  0.3752 -0.4552
27109W        W43003  11.659  16.773  15.629  0.1995  0.2175 -0.1082
27110W        W43004   3.234   7.874   3.267  0.2847  0.1032 -0.0956
27111W        W43005  11.148   3.504  14.434  0.2988 -0.3349  0.1231
27112W        W43006   7.532  12.539   1.249  0.1459  0.0053  0.1508
27113W        W43007   1.749   1.839   3.079 -0.0740 -0.3373  0.3159
27114W        W43008   1.275   7.892   4.398 -0.0142 -0.0144  0.0157
27115W        W43009  15.505   0.115  14.631 -0.1096  0.0277  0.0376
27116W        W43010   5.987  12.062  11.444  0.0177  0.3781  0.0515
27117W        W43011   1.646  10.010   4.148  0.1872  0.1976  0.2395
27118W        W43012  15.040  11.422   2.630  0.2334 -0.0078  0.1783
27119W        W43013   3.528   0.921  14.405  0.1603  0.1193  0.2481
27120W        W43014  15.969  10.276   4.408 -0.0135 -0.0157 -0.0041
27121W        W43015  16.411  13.595   0.293  0.2856  0.1628 -0.2418
27122W        W43016   1.786  16.496  15.663 -0.1943 -0.1642 -0.1944
27123W        W43017  17.957   2.717   4.654  0.0529 -0.1077  0.1446
27124W        W43018  17.651  13.666   3.700  0.1127  0.0159 -0.2359
27125W        W43019  11.352  14.097  12.560  0.1531  0.0787  0.2452
27126W        W43020  18.172   0.370  15.242 -0.0602  0.3082 -0.2586
27127W        W43021   4.264   5.338  14.329 -0.0030  0.2055 -0.2796
27128W        W43022  10.596   6.030  12.821 -0.0668  0.0107 -0.0230
27129W        W43023   1.497   7.639  12.920 -0.0244 -0.1666 -0.2003
27130W        W43024   9.413   5.160  15.124 -0.1203  0.4554 -0.1469
27131W        W43025  15.770   3.096   1.599 -0.2110  0.1476 -0.0579
27132W        W43026  10.858   1.636  14.771 -0.0824  0.0768  0.0810
27133W        W43027  11.675   1.335   2.904 -0.0174  0.5069 -0.1433
27134W        W43028  17.483   8.399   3.461 -0.1596 -0.0993  0.2280
27135W        W43029   5.843   6.772  15.083 -0.1267 -0.0665  0.0220
27136W        W43030  12.946   4.682  15.974  0.0744  0.0397  0.0896
27137W        W43031   4.588  13.566   2.002  0.0795  0.3567  0.2748
27138W        W43032  13.061   8.600  15.020 -0.1500 -0.1532  0.2564
27139W        W43033  16.402   8.958   2.897  0.2126  0.0247 -0.1421
27140W        W43034   1.129   1.609  11.577 -0.2173  0.1195 -0.0650
27141W        W43035  10.462   9.350   5.033  0.1191  0.3190  0.0127
27142W        W43036  13.553  11.680  13.970 -0.1355 -0.2837 -0.2211
27143W        W43037  11.484  12.863   4.900 -0.1194 -0.0984  0.0555
27144W        W43038   3.892   6.425   1.845 -0.1576 -0.1450 -0.2450
27145W        W43039   2.696  16.235   1.729  0.1987  0.1426 -0.0555
27146W        W43040  15.817  11.047   0.422 -0.0808 -0.3800 -0.0380
27147W        W43041   7.334  12.445  11.631  0.0907 -0.3767 -0.1735
27148W        W43042  13.435   5.780   0.012  0.3452  0.0988  0.2080
27149W        W43043  16.936   6.300   4.136  0.1371 -0.2199  0.2989
27150W        W43044   2.065  15.129   3.181 -0.1657  0.0782  0.0856
27151W        W43045   7.583   5.481  13.411 -0.1275  0.2403  0.0376
27152W        W43046   7.807   3.199   3.647 -0.1870 -0.2442 -0.0837
27153W        W43047   8.436  16.855  13.421 -0.0797  0.2389  0.2847
27154W        W43048   8.520   4.839   1.246 -0.0129 -0.1776  0.2191
27155W        W43049   4.064   6.802  12.983 -0.2776  0.0051  0.1076
27156W        W43050   9.808  15.064  12.158  0.3504 -0.0444 -0.0273
27157W        W43051  15.037   6.716  13.333  0.0424  0.2884  0.0671
27158W        W43052  17.227  10.050   0.899 -0.2993  0.1513  0.0675
27159W        W43053  14.560   8.770  12.725  0.0522 -0.0020  0.5788
27160W        W43054   0.760   1.070  14.408  0.0878 -0.0706  0.4218
27161W        W43055  17.589  11.785  12.503 -0.1185  0.4046  0.0043
27162W        W43056   1.533   6.959  10.937  0.2029 -0.0987 -0.1826
27163W        W43057   3.416  14.529   3.874 -0.2535  0.0272 -0.0168
27164W        W43058  16.524   0.318  12.111 -0.2296 -0.2212 -0.1966
27165W        W43059   1.171   1.421   4.575  0.2371 -0.0560  0.0264
27166W        W43060   0.047  16.354   1.019  0.1526 -0.1822 -0.1212
27167W        W43061   9.733  13.323   4.444  0.2634 -0.0071  0.2868
27168W        W43062  17.482   4.355   1.432  0.2001 -0.0675 -0.0806
27169W        W43063   2.990   2.942   1.292 -0.2330 -0.2004  0.0340
27170W        W43064  11.303   3.470  12.238 -0.0189 -0.0725 -0.0130
27171W        W43065   5.637   2.030  14.435 -0.3804  0.0355  0.0171
27172W        W43066   5.765  14.274  13.545 -0.0781  0.1187  0.2412
27173W        W43067   7.411  13.354   3.086 -0.0131 -0.2670  0.1628
27174W        W43068  17.212   5.756   2.772 -0.4081 -0.0159 -0.0789
27175W        W43069  13.175   2.875  13.186 -0.0836  0.1538 -0.1144
27176W        W43070  18.181   7.496  13.964 -0.2402 -0.2504  0.0816
27177W        W43071  12.965   5.071   1.855  0.1956 -0.0298 -0.0831
27178W        W43072   9.528   1.859   1.658  0.1485 -0.1449 -0.1142
27179W        W43073   9.759   7.103  12.262  0.0798 -0.1174  0.0835
27180W        W43074   5.371  11.613   6.169 -0.0656  0.2097  0.2489
27181W        W43075   7.908  12.071  13.535 -0.0339 -0.2600 -0.4243
27182W        W43076   4.346  12.865  16.400 -0.3692  0.0188  0.0560
27183W        W43077   3.629  11.180  15.085  0.0233 -0.3131 -0.0950
27184W        W43078   5.772   7.677   5.409  0.0592  0.0990 -0.0254
27185W        W43079  12.657  16.752  14.433 -0.0485 -0.0634 -0.2259
27186W        W43080  12.938  15.832   3.249 -0.0756  0.1975  0.2154
27187W        W43081   5.320  11.638  11.549 -0.3468 -0.0979  0.1521
27188W        W43082   7.174  10.914  16.182  0.3668 -0.0389 -0.2919
27189W        W43083   2.736  13.361   5.714 -0.2070 -0.4788 -0.2835
27190W        W43084  15.798  14.255   3.738  0.0983  0.2319  0.2679
27191W        W43085   5.918   0.290  12.117 -0.0272  0.3156 -0.0603
27192W        W43086  10.399   5.608  10.847  0.4770 -0.0148  0.5699
27193W        W43087  16.134  17.344  15.126  0.1745 -0.1452 -0.2397
27194W        W43088  16.521   2.677  12.540 -0.2772 -0.1826 -0.2710
27195W        W43089   5.295  12.848   3.621  0.1812  0.1336  0.1477
27196W        W43090  12.610  12.071  12.285 -0.2185  0.0520  0.1772
27197W        W43091  15.038  16.093  13.296 -0.2485 -0.1159  0.3546
27198W        W43092  13.935  13.200  11.358 -0.1807 -0.0518  0.2618
27199W        W43093   6.776  17.139   2.292  0.0851  0.1184 -0.1032
27200W        W43094   2.216   0.116   5.189  0.3413  0.1640  0.1116
27201W        W43095   8.467  12.935  13.254 -0.1043  0.1797 -0.0794
27202W        W43096   3.511  13.263  14.806  0.0206 -0.2537  0.1320
27203W        W43097  14.515  10.897   0.136  0.0586  0.2115  0.1277
27204W        W43098   5.302   2.368  12.065  0.0094  0.3392  0.0820
27205W        W43099  12.052  12.709   3.026  0.0522 -0.0098 -0.2153
27206W        W43100   4.554   4.083   1.268 -0.3726 -0.0238  0.1654
27207W        W43101   7.987  15.269   0.531  0.1377 -0.0757 -0.2842
27208W        W43102   8.001   3.529   2.848  0.1109 -0.1063  0.1197
27209W        W43103   6.589   8.908   3.342  0.1646 -0.0313  0.1951
27210W        W43104  14.914  10.320  12.209 -0.0286 -0.0066 -0.1383
27211W        W43105  15.310  17.183   4.663 -0.1783 -0.0998  0.1457
27212W        W43106   2.731   5.037   0.884  0.2470 -0.3370 -0.5114
27213W        W43107  15.179   0.786  11.732 -0.2376  0.0064 -0.2624
27214W        W43108   0.265  17.668  13.575  0.0306  0.0031  0.0927
27215W        W43109   4.251   6.658  14.833  0.0918 -0.1100  0.1099
27216W        W43110   2.928  16.768   0.728 -0.3721  0.2358  0.1516
27217W        W43111  11.257  18.010  15.847  0.0059  0.0768  0.1296
27218W        W43112   0.530  16.327   2.609  0.0421  0.1098 -0.3624
27219W        W43113   6.684  12.788   2.108 -0.1018  0.2250 -0.0359
27220W        W43114   3.223   0.306   0.076  0.2368 -0.0012 -0.1534
27221W        W43115   7.038  16.694   0.516  0.0677 -0.0567  0.0821
27222W        W43116  10.052   1.851  13.344 -0.0658  0.2087  0.2203
27223W        W43117   9.620  17.470   0.067  0.0232  0.2670 -0.0681
27224W        W43118   6.317   5.554  14.278  0.0381  0.0442 -0.1943
27225W        W43119  13.759   7.512  11.354  0.1232  0.0975  0.0860
27226W        W43120  13.283  14.120   4.616 -0.2847 -0.0435 -0.0574
27227W        W43121  14.130  12.284  13.893 -0.1800  0.3123 -0.1716
27228W        W43122  14.628  11.582  12.284 -0.1071  0.3938  0.4024
27229W        W43123   6.981   9.920   1.240 -0.1366  0.0570  0.1543
27230W        W43124   2.458  10.499   5.406  0.2428  0.0465  0.2084
27231W        W43125   6.201  13.903   1.108 -0.0003 -0.3563  0.1333
27232W        W43126   1.067   7.684  11.370  0.2274  0.1800  0.0150
27233W        W43127  10.134  16.698   1.676  0.1987 -0.0255 -0.1373
27234W        W43128  17.971   9.480   5.169  0.1159 -0.3484 -0.4452
27235W        W43129   4.987  12.328   2.343 -0.1719  0.0150 -0.0389
27236W        W43130   8.981   3.485  13.767 -0.0871 -0.0862 -0.2401
27237W        W43131  10.367   3.260   3.238 -0.1507 -0.0130  0.2393
27238W        W43132  11.272  17.436  16.407 -0.0987  0.3216 -0.0532
27239W        W43133   7.472  12.270   2.241 -0.2878  0.0357 -0.1907
27240W        W43134   0.005   4.299  12.386 -0.0667  0.2503 -0.0614
27241W        W43135  10.525  15.688  12.050  0.4398  0.1618  0.3083
27242W        W43136   7.999  16.303  14.296 -0.4551  0.0063  0.0207
27243W        W43137   9.690  17.677  13.421 -0.0432 -0.0396 -0.2932
27244W        W43138  13.039   7.511  12.490  0.0018 -0.0769  0.1322
27245W        W43139   8.527  13.934  12.554  0.2006 -0.1220  0.0737
27246W        W43140  16.307  16.536  13.171  0.0252 -0.0504  0.0661
27247W        W43141  15.507  10.217   0.759  0.1505 -0.0999  0.1362
27248W        W43142  16.066   0.636   2.314  0.0802 -0.1586 -0.1771
27249W        W43143   6.694  14.550  16.049  0.3052  0.2005 -0.0065
27250W        W43144  15.192   7.740  16.402 -0.2051  0.3741 -0.0232
27251W        W43145  13.329  17.529  13.438 -0.0454 -0.2330 -0.1078
27252W        W43146   4.804   0.301   3.977  0.1736  0.2825  0.0365
27253W        W43147   4.565   2.152   6.249 -0.0265  0.1457  0.3791
27254W        W43148   5.838  10.927   1.154 -0.1804 -0.0342 -0.3939
27255W        W43149  17.817   1.739  13.819 -0.1846  0.0148 -0.0933
27256W        W43150  14.379  17.881   2.040  0.2687  0.2414 -0.2068
27257W        W43151   0.713  15.357   1.731  0.1581 -0.2062 -0.1052
27258W        W43152   7.076   4.563   1.204  0.0862  0.0974 -0.1390
27259W        W43153  12.731  14.128  14.474  0.0781 -0.4117  0.0704
27260W        W43154   8.035   9.703   2.243 -0.2135 -0.0031 -0.2468
27261W        W43155   9.927   6.286  14.680  0.0711 -0.0201 -0.3562
27262W        W43156   8.350   3.345   3.810 -0.0006 -0.0691  0.0496
27263W        W43157   9.267   0.189   4.729 -0.0579  0.2145 -0.0375
27264W        W43158  12.464   4.251   2.872 -0.0077 -0.1393  0.0070
27265W        W43159  14.307   3.841  11.170  0.0378 -0.1206 -0.2281
27266W        W43160   9.932  14.566   1.617 -0.1248  0.2319 -0.1301
27267W        W43161  14.824   2.754  11.130  0.0994  0.0601  0.0992
27268W        W43162   9.168   1.058   0.559 -0.1464  0.2591  0.3016
27269W        W43163   8.641   2.146  11.326 -0.1047  0.0792 -0.1252
27270W        W43164   3.192  18.005   1.361 -0.0036  0.0495 -0.0274
27271W        W43165   9.273   1.603   2.630  0.1650  0.2245  0.0013
27272W        W43166  14.103   5.397   0.780 -0.3884  0.2566  0.0235
27273W        W43167  17.440  14.394   4.910  0.1095  0.1747  0.0012
27274W        W43168  17.127   6.179   4.954  0.0191  0.3796  0.1548
27275W        W43169  13.167  15.049   5.975  0.0829  0.4011  0.0308
27276W        W43170  15.181  12.890  12.257  0.0535  0.0687 -0.0794
27277W        W43171  13.872  10.118  11.837  0.0864 -0.0600  0.0541
27278W        W43172   9.728  15.502  13.295  0.2351  0.1680  0.1437
27279W        W43173   0.182   1.921  16.111 -0.1153  0.1159  0.0244
27280W        W43174  17.745  11.181   1.371  0.1065 -0.1113 -0.2417
27281W        W43175   4.077  13.351   2.105 -0.0187  0.0552  0.0075
27282W        W43176  13.710   3.936   1.098  0.0840  0.0078  0.1820
27283W        W43177  17.819   8.930   4.450  0.3041 -0.0116  0.0474
27284W        W43178   3.098  15.676   3.364 -0.0395 -0.2954  0.1846
27285W        W43179  11.034  12.171   3.428  0.0303 -0.0080 -0.0244
27286W        W43180  11.252  10.763   0.443  0.2593  0.3202 -0.1625
27287W        W43181   1.047  10.307  12.639 -0.1545 -0.1931  0.1127
27288W        W43182   3.757   1.141  15.399 -0.0478 -0.1983  0.0086
27289W        W43183  15.911   3.214  15.913 -0.1946  0.1243  0.1518
27290W        W43184   2.536  15.025   1.348 -0.2908  0.0098  0.2894
27291W        W43185   2.803   0.035  11.839  0.2155 -0.0958  0.1509
27292W        W43186  10.545   0.521   6.267  0.0381  0.0206  0.0192
27293W        W43187  12.182   2.943   2.442 -0.0242  0.0004 -0.1745
27294W        W43188   1.184   0.943   2.871  0.0254  0.1305  0.0469
27295W        W43189   0.452  17.216  12.528 -0.0399  0.2190  0.1699
27296W        W43190  10.959   1.703   2.036 -0.0402 -0.2896  0.1246
27297W        W43191  17.497  13.785  12.474 -0.1419 -0.4758  0.1778
27298W        W43192  11.720   0.952  13.317  0.1588  0.3377 -0.0240
27299W        W43193  11.860   3.531   5.538  0.1642 -0.0763  0.0874
27300W        W43194   6.839   7.242   3.546  0.1013  0.0803  0.0274
27301W        W43195   3.172   8.076   5.904 -0.0316 -0.1913 -0.2519
27302W        W43196   7.992  11.949   5.846  0.1088 -0.0676 -0.1101
27303W        W43197  12.660   0.453  14.574  0.0237 -0.1512 -0.2010
27304W        W43198  14.846   6.894   3.524 -0.0809 -0.0971  0.0807
27305W        W43199   0.966  10.418  14.488  0.2751  0.2663 -0.0449
27306W        W43200  13.515  16.932  14.835  0.3368  0.0315 -0.2355
27307W        W43201  16.699   1.163  12.426 -0.2224 -0.0345 -0.0957
27308W        W43202  12.563   5.814   1.210 -0.0101  0.0309  0.2541
27309W        W43203   4.803   1.463   0.373  0.1417  0.0130 -0.1221
27310W        W43204  12.008  16.929   2.208 -0.0561  0.3398  0.1838
27311W        W43205   8.127   7.217   2.395 -0.4107 -0.0601 -0.3462
27312W        W43206   9.790  17.225  12.519  0.1205  0.0427 -0.3611
27313W        W43207   5.728   4.675   5.174 -0.3336  0.1012  0.0348
27314W        W43208   0.258  14.406  13.344 -0.0609 -0.0193 -0.0859
27315W        W43209   2.452  13.376   0.666 -0.1127 -0.4078 -0.2475
27316W        W43210   5.868   0.578  13.830  0.0688 -0.0925 -0.1440
27317W        W43211  12.734  13.663   3.064  0.0397  0.1322 -0.3741
27318W        W43212  10.385  13.452   0.152 -0.1505  0.3079  0.3055
27319W        W43213  16.171   2.928   0.774 -0.0031 -0.1789 -0.0365
27320W        W43214   7.462   3.924  16.179 -0.1177  0.1028 -0.8302
27321W        W43215  10.249   0.969   1.485 -0.0706  0.1728 -0.1246
27322W        W43216  10.990   1.095   1.047 -0.0044 -0.2782  0.1560
27323W        W43217  16.390   2.456   4.178 -0.2457  0.0737 -0.2682
27324W        W43218  14.354  13.415   1.759  0.1121 -0.1919  0.2157
27325W        W43219   4.436   1.018   9.999 -0.0092  0.1363  0.2845
27326W        W43220  10.164   0.821  13.047 -0.1226 -0.0881 -0.2247
27327W        W43221  12.792  11.942   0.226  0.1270 -0.1008  0.1058
27328W        W43222   0.659  14.820  10.494 -0.1284 -0.1601  0.0629
27329W        W43223  13.663   5.595   2.782 -0.1089  0.1704  0.1474
27330W        W43224  15.548   5.744  16.210  0.0320 -0.0198  0.1123
27331W        W43225  10.068   1.226   1.063 -0.0568  0.0687  0.0639
27332W        W43226   7.402  11.583   4.737 -0.1060  0.2273 -0.0592
27333W        W43227  13.443   8.831  12.776  0.1948  0.1717  0.1888
27334W        W43228   8.783  12.191   0.258  0.1980  0.0983 -0.0536
27335W        W43229  17.392  14.767  14.430 -0.0113 -0.0214  0.1667
27336W        W43230  15.633  17.502   1.556  0.0922 -0.3848  0.2448
27337W        W43231   0.626   0.734  11.473  0.3045 -0.4198 -0.0065
27338W        W43232   0.461   8.781  16.345  0.0710  0.0822  0.0596
27339W        W43233   5.090   5.450  11.591  0.0826  0.0049 -0.1588
27340W        W43234  12.930  13.476  14.768 -0.0700  0.3420  0.1536
27341W        W43235  11.185  12.647   6.144 -0.2903 -0.3798 -0.0347
27342W        W43236  11.470   7.921  15.709  0.0289 -0.2478 -0.0327
27343W        W43237   8.199  16.924  15.846  0.0501  0.2154  0.0218
27344W        W43238  11.927   6.345  11.705  0.0184  0.0666  0.1195
27345W        W43239   6.078  15.884  13.178 -0.1536  0.0371  0.4331
27346W        W43240  13.328  14.080  14.318  0.1141  0.1153  0.2114
27347W        W43241  11.088   6.639  13.133 -0.3167 -0.1715 -0.0755
27348W        W43242  12.118   5.536   2.088 -0.1073  0.1529 -0.0102
27349W        W43243  17.669  14.569   3.394  0.1792  0.2441  0.0263
27350W        W43244   6.661   5.651  12.550  0.2188 -0.0109  0.0135
27351W        W43245   9.334   5.146  14.502  0.0796  0.3363 -0.0380
27352W        W43246  10.259   3.604   4.260  0.3711 -0.0212 -0.0390
27353W        W43247  12.231   3.815   3.887  0.0850 -0.0323  0.1502
27354W        W43248   7.814   4.548   1.458  0.1091 -0.4971 -0.1355
27355W        W43249   1.400   5.415   1.490 -0.2372 -0.2721  0.3330
27356W        W43250   3.904   4.950  12.334 -0.2184 -0.1493  0.2635
27357W        W43251  14.713  12.803  14.332  0.0232  0.0138  0.0781
27358W        W43252   1.740  11.491  14.647 -0.0874  0.0188  0.3679
27359W        W43253  17.271  17.654   0.058 -0.0731  0.1167 -0.0221
27360W        W43254   4.900   1.877  11.495  0.4543  0.0241  0.0837
27361W        W43255   0.810   9.049  14.771  0.1248 -0.3328 -0.0204
27362W        W43256   7.440   5.883  15.295 -0.1005 -0.1347  0.4397
27363W        W43257  14.347   4.924  15.875 -0.0749 -0.2306  0.0824
27364W        W43258   5.042  11.067   2.369 -0.0707  0.3089  0.2017
27365W        W43259   6.429  13.868   5.845  0.1345 -0.1583 -0.0391
27366W        W43260   2.351   4.458  15.776 -0.1521 -0.0694 -0.3904
27367W        W43261   0.141  11.407   1.346 -0.0056 -0.0755  0.2873
27368W        W43262  10.032   2.692  12.788 -0.0225  0.2261 -0.1719
27369W        W43263   3.930  18.092   5.577 -0.1869  0.0818  0.2094
27370W        W43264   2.439   6.605  14.019  0.3512  0.0104 -0.0021
27371W        W43265  13.411   7.966  15.328 -0.2529  0.0969 -0.1507
27372W        W43266   0.647  10.959   4.821  0.0427 -0.2177  0.2119
27373W        W43267   9.253   1.149   3.646 -0.0012 -0.1255  0.0634
27374W        W43268  14.714   6.729   5.005 -0.0511  0.1449 -0.0346
27375W        W43269   3.026   0.402   4.387 -0.1695  0.1689  0.2309
27376W        W43270  16.877  12.878   0.354  0.4950  0.0032  0.1520
27377W        W43271   8.414  12.435   4.010 -0.0936 -0.0740  0.1182
27378W        W43272  15.405   0.339   4.764  0.2724  0.0107  0.0923
27379W        W43273  14.134   3.049   2.001 -0.0865  0.4508 -0.2812
27380W        W43274  13.515  15.096   2.408 -0.0231 -0.1604  0.1453
27381W        W43275   9.299   5.833   5.051 -0.0451 -0.1404  0.0040
27382W        W43276  16.853  10.400   2.753  0.1594  0.0160 -0.2540
27383W        W43277  17.100   0.738  14.692 -0.3888 -0.3035  0.0543
27384W        W43278  13.546  15.385  15.852 -0.0201 -0.0493  0.1439
27385W        W43279  14.068   6.536   2.590 -0.2574 -0.1170 -0.1502
27386W        W43280   0.118  14.437   3.607 -0.0224 -0.0051  0.3118
27387W        W43281   0.241   9.646   2.743 -0.0484  0.1115 -0.1686
27388W        W43282  17.006  13.869  12.522 -0.1589 -0.1069 -0.3086
27389W        W43283  14.464  17.784  11.631  0.0703  0.1926 -0.1629
27390W        W43284   5.403  10.300  11.344  0.1228  0.2407 -0.2013
27391W        W43285   5.628   7.838   1.582 -0.1363  0.2091  0.3969
27392W        W43286  11.087   6.394   3.281 -0.1593 -0.0323  0.0456
27393W        W43287   6.598   1.230  15.863 -0.0776 -0.0156 -0.1246
27394W        W43288   9.907   6.037   3.428 -0.1212 -0.0515  0.2043
27395W        W43289   2.241  16.581  11.775 -0.3077  0.0479  0.1024
27396W        W43290   0.333   2.187   2.573  0.1190 -0.5182  0.1740
27397W        W43291   4.783  16.661   3.992 -0.0619  0.0368 -0.1854
27398W        W43292  17.118   8.900  14.787  0.2335 -0.0348 -0.3577
27399W        W43293  15.134  14.793   5.065 -0.1156 -0.1373 -0.1250
27400W        W43294   8.743  14.067   4.894  0.1196 -0.1195  0.0253
27401W        W43295   1.717   0.767   4.163  0.1121 -0.3460  0.0041
27402W        W43296  14.599   1.300  14.760 -0.0244 -0.2166 -0.2025
27403W        W43297   5.285  11.247   1.900 -0.1179 -0.0385  0.1724
27404W        W43298   7.660   6.427   2.787 -0.1673  0.1262 -0.2027
27405W        W43299   5.996   1.448   1.950  0.1242  0.2881  0.4041
27406W        W43300   3.509  10.349   1.741  0.0536  0.0933 -0.1399
27407W        W43301  12.302   9.934  15.470 -0.1214  0.0699 -0.2184
27408W        W43302  13.649  17.173  13.916  0.0344  0.2647 -0.1502
27409W        W43303  15.757  12.411   2.597  0.0809 -0.1878  0.1980
27410W        W43304   9.791  10.602   1.456 -0.1900  0.0629  0.0732
27411W        W43305   6.243   4.286  13.111  0.0092 -0.0243  0.1710
27412W        W43306   1.821   6.005   0.351  0.3776  0.0660 -0.0195
27413W        W43307  17.197   0.989   0.278 -0.0729 -0.1921 -0.1148
27414W        W43308  14.977   4.366  12.680  0.2849  0.0029  0.0174
27415W        W43309   0.144   4.212   0.193  0.1260  0.1025 -0.1991
27416W        W43310   8.389   0.047  16.181 -0.0670 -0.0813  0.0575
27417W        W43311  12.827   0.819  15.971 -0.1270  0.0996  0.0638
27418W        W43312   9.847   3.511   3.200  0.0696 -0.3456 -0.0139
27419W        W43313  16.732  12.967   3.863 -0.0556  0.1141  0.1941
27420W        W43314   2.537  12.944   3.471 -0.1924 -0.1373 -0.0501
27421W        W43315   2.799   7.674   0.340  0.1554 -0.0317  0.0284
27422W        W43316   0.107  14.767  15.690 -0.0869  0.0384  0.1959
27423W        W43317  11.443  12.749   3.859 -0.0751  0.5749  0.0934
27424W        W43318  15.424  10.844  16.144  0.0458  0.5402  0.1055
27425W        W43319   1.169   6.785  12.737 -0.1392  0.4163  0.0749
27426W        W43320  14.838  14.907   2.904 -0.1546 -0.2360 -0.1290
27427W        W43321   6.034   4.765   3.199 -0.0181  0.0836 -0.2313
27428W        W43322  17.248   0.311  14.997 -0.0481 -0.0491 -0.1687
27429W        W43323   9.064  12.620  12.549 -0.3581  0.1903  0.1257
27430W        W43324   7.427   4.809   4.498 -0.1069 -0.1237 -0.1712
27431W        W43325   6.168   4.470  11.561 -0.2268  0.0549  0.2896
27432W        W43326  11.636  13.518  13.676 -0.4616 -0.2923  0.4544
27433W        W43327  12.785   0.475   4.916  0.0818  0.2387  0.0318
27434W        W43328   3.305  13.738   3.385 -0.0053  0.2730  0.2711
27435W        W43329   0.958   1.472  12.330  0.0789  0.1981 -0.1682
27436W        W43330  12.830   7.591  11.696 -0.1586  0.1353 -0.1538
27437W        W43331  14.741   8.713   0.838  0.0393  0.0502 -0.0600
27438W        W43332   7.449   6.921  10.489 -0.2626  0.1198  0.1544
27439W        W43333   1.248   7.224  16.142 -0.2501  0.1157  0.1465
27440W        W43334  13.463  11.186   3.838  0.1973 -0.0861 -0.1391
27441W        W43335   8.846  13.394  15.319 -0.0865 -0.1038  0.1566
27442W        W43336   6.669  12.787  13.978 -0.2736  0.0081 -0.0928
27443W        W43337   2.705  17.182   4.684  0.0210 -0.0720 -0.1512
27444W        W43338   8.923   2.295  16.405 -0.1861  0.0189  0.0143
27445W        W43339   2.656  10.498   4.800 -0.1902 -0.0160 -0.3613
27446W        W43340   5.656   2.141  10.726  0.2135  0.0533 -0.1371
27447W        W43341   8.248  14.324  14.489 -0.5410  0.0129 -0.3200
27448W        W43342   6.575  17.954  13.216 -0.2258 -0.2085  0.2291
27449W        W43343  13.256   4.017  14.152 -0.0067  0.0333 -0.1491
27450W        W43344  17.102  11.078   5.388 -0.3131  0.0676  0.4023
27451W        W43345   6.974   9.548   6.165  0.0250  0.2238 -0.0728
27452W        W43346  14.929  15.888   2.956  0.2237 -0.2402  0.1447
27453W        W43347   2.371   6.515  12.526  0.0509  0.1243 -0.0008
27454W        W43348  12.533   1.711  14.344 -0.0260  0.1660  0.0697
27455W        W43349  10.567  17.572   3.160  0.2880  0.0095 -0.3934
27456W        W43350  10.013   2.492   5.790 -0.2739 -0.4057  0.0309
27457W        W43351   4.161  13.500  14.371  0.3707  0.1659 -0.1363
27458W        W43352  17.016   6.232   0.663 -0.2240  0.0253 -0.0623
27459W        W43353   5.505   1.220  11.319 -0.0303  0.0401 -0.0314
27460W        W43354  16.899  12.261   1.649 -0.0585 -0.2723 -0.2944
27461W        W43355  13.180   5.702  15.138 -0.0432  0.3260 -0.1384
27462W        W43356   3.826   4.112   0.279  0.0270 -0.0603 -0.0594
27463W        W43357   7.490  13.372  15.144 -0.2250  0.1435  0.0644
27464W        W43358  14.129   3.910  13.966  0.1925  0.0783  0.6066
27465W        W43359   4.464  11.724  11.920 -0.0504  0.0126  0.1766
27466W        W43360  12.719  12.322   3.462  0.0013  0.0255  0.1173
27467W        W43361   2.541   4.572   0.757 -0.1131 -0.2615  0.1491
27468W        W43362   8.363  11.136  11.799  0.1916  0.2184 -0.1118
27469W        W43363  17.277   3.774   1.435  0.3135  0.1011  0.3434
27470W        W43364   6.969   6.542  13.635 -0.4173 -0.3100  0.2188
27471W        W43365   9.121   4.145  12.317 -0.0074 -0.4896 -0.1831
27472W        W43366  13.179   0.091  11.349  0.1295 -0.0569  0.3321
27473W        W43367   2.477   5.492  14.873  0.1017 -0.3358  0.0591
27474W        W43368   7.076  15.053   2.054  0.3414 -0.1154  0.0916
27475W        W43369   1.103   3.563  11.594  0.1695  0.1975  0.2828
27476W        W43370   2.595   5.868  11.393  0.1218  0.0574  0.1273
27477W        W43371  16.707   0.082  11.149 -0.1281 -0.3061  0.1876
27478W        W43372  14.741  10.198  13.471 -0.0937 -0.1129 -0.1464
27479W        W43373  18.231   1.019  12.194  0.1136 -0.1476 -0.1525
27480W        W43374   9.037  13.551  13.599 -0.0737  0.2019  0.1038
27481W        W43375  14.317  17.954   0.757 -0.3208  0.0403  0.1089
27482W        W43376   2.053  11.864   4.034 -0.0481 -0.1765  0.6154
27483W        W43377   4.890   3.014   4.874 -0.0075 -0.1192  0.2513
27484W        W43378   3.049   3.022  13.159  0.2694  0.0561 -0.0692
27485W        W43379  13.389   9.300  14.250  0.2515  0.1026  0.0121
27486W        W43380   6.726   3.116  15.301  0.2978 -0.2086 -0.2411
27487W        W43381  14.519   8.137  11.576 -0.2185 -0.0803  0.2486
27488W        W43382   5.623   1.911  15.684 -0.0612  0.3026  0.2011
27489W        W43383   4.421  17.242   5.919 -0.1774 -0.0672  0.2427
27490W        W43384   7.114   8.638   4.451  0.0112  0.0962  0.1776
27491W        W43385   6.415  11.549  15.140 -0.1542 -0.0347  0.2579
27492W        W43386  14.530  16.867  15.928 -0.3222 -0.0614  0.0685
27493W        W43387  12.754   6.465  11.250 -0.1632 -0.0036 -0.1110
27494W        W43388  11.005  12.772  11.390 -0.0199 -0.4944  0.4852
27495W        W43389   7.659   5.141   2.314 -0.0067  0.0641 -0.1621
27496W        W43390   3.956  10.499  15.757  0.3046  0.1775 -0.1869
27497W        W43391   7.389  10.166   0.697  0.1791  0.1733  0.0123
27498W        W43392   7.710   3.810   2.352  0.0082 -0.0206  0.0351
27499W        W43393   6.993  16.321   0.906 -0.6640  0.4892  0.0640
27500W        W43394   3.252   7.927  15.401  0.1689 -0.0067  0.0583
27501W        W43395  17.025  13.579  14.215 -0.0613  0.1017  0.0917
27502W        W43396   1.230  10.258   4.012 -0.0454 -0.2545 -0.0254
27503W        W43397   8.945   5.639  12.704  0.0415  0.2955  0.1710
27504W        W43398  10.150  14.239  15.833  0.0306 -0.0371  0.4357
27505W        W43399   2.636   9.186  15.294  0.1143  0.0085  0.2710
27506W        W43400  17.560  12.686  13.814  0.0064 -0.0286  0.0395
27507W        W43401  15.732   7.385   3.366 -0.1086  0.3208  0.0041
27508W        W43402  10.153  14.716  13.247 -0.0388 -0.2486  0.0246
27509W        W43403   3.443   4.930   5.185 -0.0337  0.1551  0.0866
27510W        W43404  15.178   1.999   0.085  0.2601 -0.0452 -0.0759
27511W        W43405  17.105   8.588   1.176  0.0738  0.2717  0.1322
27512W        W43406   7.626   8.093  15.884 -0.2424 -0.1937 -0.0921
27513W        W43407   9.353   3.762  10.721 -0.0397  0.1799  0.0556
27514W        W43408   8.506   1.966   1.361  0.2739 -0.0107  0.0708
27515W        W43409  10.879   1.717  11.355 -0.1223  0.0488 -0.0214
27516W        W43410   8.679   3.086   1.585 -0.0390 -0.1659 -0.0498
27517W        W43411  11.563   8.165  11.768 -0.0267  0.2101  0.0655
27518W        W43412   7.588  17.470  11.799  0.0406 -0.2532 -0.0215
27519W        W43413  16.624  18.069  12.524 -0.4315  0.0134 -0.4100
27520W        W43414  15.745   6.954   2.048  0.0582 -0.1636 -0.0506
27521W        W43415   4.571  15.363   1.430 -0.1151  0.1957 -0.0461
27522W        W43416  13.309  11.234  10.217 -0.1328  0.1590 -0.1199
27523W        W43417   0.069  11.828   2.498 -0.0727 -0.2385  0.1263
27524W        W43418   3.996  13.127   4.670 -0.0927 -0.0219 -0.2363
27525W        W43419  17.790   7.248  14.708 -0.0566  0.2455 -0.1124
27526W        W43420   7.514   3.551  14.028  0.2375  0.2644 -0.0649
27527W        W43421   6.014  13.653   5.862 -0.1868 -0.1753 -0.0116
27528W        W43422   8.983  12.093  13.500  0.3294  0.0936 -0.3009
27529W        W43423   6.161  13.300  16.191  0.0252 -0.0515  0.0493
27530W        W43424  12.806   7.807  12.188  0.0628 -0.0781  0.2133
27531W        W43425  13.535  10.535  15.877 -0.2069  0.1152  0.2263
27532W        W43426  17.271   4.835  16.300 -0.0981  0.1552 -0.2284
27533W        W43427  15.532  16.551   4.050  0.0704  0.3768  0.0223
27534W        W43428  12.397  12.115   1.922  0.1486 -0.1742  0.2172
27535W        W43429   5.875  15.214  11.365 -0.0568  0.3776  0.3259
27536W        W43430   8.095  10.746   5.939  0.0556 -0.1330  0.2692
27537W        W43431   2.996   0.158   3.497 -0.1291 -0.2239 -0.0156
27538W        W43432  11.508  10.344   0.556 -0.3892  0.0026 -0.0538
27539W        W43433  18.048   3.605  11.306  0.1526 -0.0997  0.1069
27540W        W43434   7.479  15.297   1.967  0.1489 -0.0356 -0.0047
27541W        W43435   6.157   2.030  14.405  0.2089 -0.2056  0.1523
27542W        W43436  13.039  17.455   5.503 -0.0086  0.0009  0.0591
27543W        W43437  14.182  15.406   4.326  0.0090 -0.0039  0.2443
27544W        W43438   3.393   3.746  14.354  0.1435  0.1509  0.1357
27545W        W43439   5.175  13.794  14.788 -0.2540  0.2431  0.1293
27546W        W43440   3.212  17.292   0.160  0.0657 -0.0256 -0.0153
27547W        W43441   4.566   5.698   3.615 -0.1351 -0.1294  0.0732
27548W        W43442   3.406  17.132  12.730  0.0593 -0.0408  0.0756
27549W        W43443   4.446   6.830   3.671 -0.0738  0.0675  0.1295
27550W        W43444   5.144  12.327  15.198  0.0996 -0.1145 -0.1733
27551W        W43445   4.807   2.558  14.375  0.4427 -0.0322 -0.3762
27552W        W43446  17.324  10.384  12.769 -0.0676  0.0311 -0.2302
27553W        W43447  16.911   7.315  15.878  0.1438  0.2074  0.3661
27554W        W43448   1.337   4.455  13.308 -0.2667  0.2111 -0.2845
27555W        W43449   3.687  11.329  14.116 -0.0109 -0.0286  0.2241
27556W        W43450   1.018   2.485  11.581  0.0805  0.1172  0.1310
27557W        W43451  17.433   4.025  13.040 -0.1180 -0.2224  0.0908
27558W        W43452  10.540  12.427   4.230 -0.1958 -0.1263  0.2453
27559W        W43453   3.660   5.496   4.658 -0.3029 -0.2025 -0.0658
27560W        W43454  15.965  10.013  14.053  0.3129  0.0928 -0.1642
27561W        W43455   3.194  10.971   2.614 -0.1561 -0.2022 -0.2356
27562W        W43456   6.401  12.531  11.535 -0.3425  0.1179  0.1863
27563W        W43457  12.252   9.820  12.403  0.1862  0.0744 -0.1465
27564W        W43458  10.190   0.608  16.042 -0.0677  0.0319  0.0594
27565W        W43459  14.745   9.184   1.582 -0.0970  0.1192 -0.2431
27566W        W43460  16.241  16.346   3.149  0.0675  0.0488 -0.1505
27567W        W43461   9.982  14.958   2.436 -0.0568 -0.3894  0.0203
27568W        W43462   4.330  10.647   1.701 -0.1666 -0.0274  0.1354
27569W        W43463   2.400   9.110  13.072  0.0293  0.2903 -0.4203
27570W        W43464   1.225   9.269   0.181  0.2502  0.0528  0.1539
27571W        W43465   4.091  13.211   2.943  0.4156 -0.2897  0.2084
27572W        W43466   2.890   7.120  15.031  0.0299  0.1315  0.1794
27573W        W43467  17.954  16.750   0.977  0.0577 -0.0346  0.0631
27574W        W43468   8.891   7.094   5.298  0.2902  0.0771  0.0500
27575W        W43469  13.833   0.570   5.122 -0.1547  0.1009 -0.2862
27576W        W43470  16.694   4.569  15.041  0.3538  0.3182 -0.1036
27577W        W43471   3.740  11.044  13.689  0.1648  0.1932 -0.0115
27578W        W43472   6.172   2.831   2.392  0.1128  0.2696 -0.1426
27579W        W43473   5.743   6.481  13.490 -0.0881 -0.0200 -0.1907
27580W        W43474   6.383   2.099   5.408 -0.3463 -0.2816 -0.1670
27581W        W43475   2.264   5.104   5.306  0.2281  0.2049 -0.0378
27582W        W43476   6.061   2.566   3.261 -0.0970 -0.0003 -0.1929
27583W        W43477   5.331   6.448   4.918 -0.1624  0.4010  0.0626
27584W        W43478   6.500   6.780  11.376  0.0729 -0.0193  0.0635
27585W        W43479   4.863  16.012   3.284  0.2434  0.1705 -0.2153
27586W        W43480   7.912  12.994  13.947  0.4504 -0.3068 -0.1130
27587W        W43481   9.578   7.442   0.444 -0.1278 -0.1504 -0.0991
27588W        W43482  15.795   5.936  15.550  0.0366 -0.0609  0.0126
27589W        W43483   6.816   4.991   3.735  0.0361 -0.1016  0.0541
27590W        W43484  15.061  11.583   1.649  0.0967  0.0273 -0.0491
27591W        W43485  17.196   6.441  13.068  0.0664  0.0035 -0.4297
27592W        W43486  16.578   6.048  15.139  0.1875 -0.0161  0.0128
27593W        W43487   3.501   3.769  11.013 -0.1785 -0.3316 -0.1265
27594W        W43488  11.702   5.217   5.033 -0.1562 -0.1436  0.0576
27595W        W43489   0.544   1.549   1.112  0.0687 -0.0381  0.1565
27596W        W43490   7.960  16.807   4.079  0.0938  0.2655 -0.0507
27597W        W43491  12.507   2.225  16.339  0.0964 -0.1495  0.2004
27598W        W43492   3.930  11.086  11.469 -0.2227 -0.2259  0.1342
27599W        W43493   3.779  10.850   0.023 -0.2193  0.0494  0.0821
27600W        W43494  14.626   4.882   5.409  0.1295 -0.1413 -0.0831
27601W        W43495  17.971  10.153  14.399 -0.1801 -0.2064 -0.1997
27602W        W43496  16.810  16.397  13.169 -0.0269 -0.0590 -0.1330
27603W        W43497  12.729   2.917   5.577  0.0670  0.2429 -0.0986
27604W        W43498   4.322   3.710   0.249  0.2462  0.2356  0.2371
27605W        W43499  12.052  11.201  12.453  0.1734 -0.2745  0.2685
27606W        W43500  10.453   8.022   0.667  0.0304  0.0740 -0.1093
27607W        W43501  12.947   3.474  12.057  0.0379  0.1680 -0.1269
27608W        W43502  11.677  16.077   1.343 -0.3239  0.0201  0.1111
27609W        W43503  17.122   5.727  15.937  0.0645  0.0332 -0.0400
27610W        W43504  10.502   3.723  13.970  0.0185 -0.0916 -0.0439
27611W        W43505   8.357   8.931  13.827  0.2177 -0.2930  0.0752
27612W        W43506  17.163  13.144   4.710  0.0106  0.2715 -0.1138
27613W        W43507  12.741  16.356   0.623  0.0917  0.3247  0.2811
27614W        W43508  12.285   0.943   5.506  0.0655  0.4324  0.0632
27615W        W43509  14.038   2.104   0.174  0.6246 -0.0014  0.1994
27616W        W43510   2.637  13.711   5.206 -0.1650  0.1134  0.0091
27617W        W43511   4.617   2.190   5.705 -0.2573  0.1955 -0.1621
27618W        W43512  14.492   5.824   3.178 -0.1728  0.0968 -0.4225
27619W        W43513  12.612   8.763   1.250 -0.0085  0.0622 -0.1539
27620W        W43514   1.661   5.581  11.590 -0.1922  0.5063 -0.1166
27621W        W43515   5.803   8.231   0.541  0.0527  0.1461 -0.0664
27622W        W43516   3.932  15.825  15.463  0.1585  0.4108 -0.0577
27623W        W43517   8.137   6.297   2.253  0.2970 -0.2085 -0.2909
27624W        W43518  18.017  16.837  13.731  0.1295  0.2452 -0.0915
27625W        W43519   1.187   1.381  15.238  0.0228 -0.4997  0.1960
27626W        W43520   3.296  17.718   0.515  0.0533 -0.0203 -0.0686
27627W        W43521  12.774  10.291  11.340  0.1901 -0.2169  0.3875
27628W        W43522  11.929  17.565  10.486  0.1285  0.3270  0.2112
27629W        W43523  17.794   9.159   6.878  0.1469  0.1067 -0.0645
27630W        W43524   7.439  15.498   3.537 -0.2502 -0.0071  0.2673
27631W        W43525  12.360   9.845   0.381  0.1002  0.0006  0.1912
27632W        W43526  16.191   4.902   3.442  0.2000 -0.1419 -0.0424
27633W        W43527  16.184   5.664  14.289  0.0631 -0.1085  0.4050
27634W        W43528  11.855   5.857   0.458 -0.0506 -0.1500  0.1813
27635W        W43529   2.561   7.381  12.819 -0.1803 -0.1925  0.1454
27636W        W43530   7.963   8.211   4.354  0.0989  0.1485 -0.3470
27637W        W43531   0.525  13.442  14.450  0.0946  0.1071  0.1110
27638W        W43532   8.914  12.775   4.983  0.0660  0.0804 -0.2996
27639W        W43533   1.237  14.347   3.104 -0.2445 -0.1379 -0.3457
27640W        W43534   0.034   1.708  12.857 -0.1718 -0.0124 -0.2558
27641W        W43535   0.340   6.591   3.058 -0.0590  0.2202 -0.1846
27642W        W43536   8.193  18.066  12.221 -0.0310 -0.2077 -0.1602
27643W        W43537   9.102   2.590  12.515 -0.0899 -0.0617 -0.1001
27644W        W43538  13.120   9.820   2.080  0.2159  0.1678 -0.2484
27645W        W43539  15.164  14.580   2.447 -0.1568 -0.1190 -0.0586
27646W        W43540  12.145   1.672  11.139  0.0041  0.3066 -0.1891
27647W        W43541  16.416  11.240   3.474  0.2422 -0.1531  0.0682
27648W        W43542  17.842   9.626  12.897 -0.0684  0.1147 -0.0038
27649W        W43543   0.440   7.276   0.761 -0.0798  0.1797  0.0637
27650W        W43544  15.040   9.181   3.246  0.0207  0.2673  0.1172
27651W        W43545   5.094   6.594   2.457 -0.0695 -0.0895 -0.3186
27652W        W43546  15.289  13.469  14.431 -0.1143 -0.0355 -0.2777
27653W        W43547   4.566   3.453   3.344  0.0492 -0.0163  0.2894
27654W        W43548  14.457  11.602  15.706 -0.0653 -0.0621 -0.1350
27655W        W43549   3.499   1.896  12.934 -0.0124  0.0106 -0.0809
27656W        W43550   1.360  13.295   0.079 -0.1394 -0.2947  0.1228
27657W        W43551   8.983   7.483  11.709  0.3244 -0.1414 -0.0130
27658W        W43552   2.497   6.618  13.020 -0.0134  0.2895 -0.0320
27659W        W43553   6.988  14.622  12.804  0.0618  0.1035  0.1896
27660W        W43554  12.301   0.351   4.938  0.6259  0.4216 -0.1149
27661W        W43555  15.413   4.132  11.936 -0.1449 -0.3146  0.0674
27662W        W43556  12.072   8.204  12.742  0.1909 -0.4224  0.2130
27663W        W43557  13.891  15.050  11.706 -0.1654  0.1088 -0.0674
27664W        W43558  13.490  15.644  16.417  0.0389  0.0865 -0.0317
27665W        W43559   8.677  16.777  15.697 -0.0657  0.2334 -0.0958
27666W        W43560  15.901   8.017  15.538 -0.0543  0.2477  0.2545
27667W        W43561   0.206   4.460  14.772 -0.2662  0.0928  0.1788
27668W        W43562  15.511  12.901  13.924 -0.3861 -0.0881  0.2342
27669W        W43563   5.046   1.462  12.961  0.0684 -0.0041 -0.2575
27670W        W43564  14.739  12.552  14.776 -0.1288 -0.1374  0.3913
27671W        W43565   4.898  17.041   5.915 -0.4497  0.0731  0.2137
27672W        W43566   3.503  14.295   3.439  0.0992  0.0944  0.2272
27673W        W43567  17.744  10.795  14.611  0.4133  0.1229 -0.0335
27674W        W43568   4.785   3.373   0.125 -0.0199  0.0268 -0.1390
27675W        W43569   6.066   8.047  13.600 -0.2186 -0.0210  0.1427
27676W        W43570  12.014  11.032   3.514  0.1608  0.1314 -0.0075
27677W        W43571   6.184   6.819  12.621  0.0036 -0.2733 -0.1099
27678W        W43572  17.031  12.672  12.447  0.2696  0.0393  0.1801
27679W        W43573  17.280  17.185   2.866 -0.0545 -0.2960  0.1439
27680W        W43574   5.250   2.180  11.569 -0.0792 -0.1712 -0.1707
27681W        W43575   4.528   1.491  13.519  0.1629 -0.1962 -0.0161
27682W        W43576   6.300   5.628   1.605 -0.1313  0.0589 -0.0506
27683W        W43577   0.688   5.456   3.988 -0.1996  0.1486  0.0797
27684W        W43578  10.168  16.038   6.579 -0.0701  0.1859  0.2382
27685W        W43579   0.909  16.186   0.007 -0.0812  0.1299  0.1086
27686W        W43580   9.719   6.135  10.758  0.0543 -0.0982  0.2056
27687W        W43581   9.321   8.960  11.270  0.1020  0.1926 -0.1504
27688W        W43582  11.160   1.748  16.155  0.0611 -0.3559  0.0332
27689W        W43583   0.837  10.368   1.144  0.3149  0.0079 -0.1684
27690W        W43584   7.684   7.615  15.553  0.1080 -0.2260 -0.2098
27691W        W43585   6.871   7.366  15.584 -0.1911  0.2816 -0.0109
27692W        W43586  16.920   9.883  12.910  0.1141  0.0157  0.1550
27693W        W43587   5.984  18.150   3.867 -0.2418  0.1261  0.2180
27694W        W43588   2.377   8.089   2.544  0.1299  0.2091  0.0916
27695W        W43589   5.509  12.356  13.841  0.0917 -0.3112  0.2180
27696W        W43590   4.908  17.164   1.607 -0.1220 -0.0777 -0.0332
27697W        W43591  17.348   8.919   3.119  0.1175 -0.2615  0.1495
27698W        W43592   9.794  15.296   5.449 -0.0085 -0.0850  0.0841
27699W        W43593  16.863  13.552  14.712 -0.2924  0.1966  0.0854
27700W        W43594   8.638  14.353  15.557  0.3259 -0.2482  0.0546
27701W        W43595  13.102  14.263  13.118 -0.1055  0.0960  0.1466
27702W        W43596  10.152  11.962   4.305 -0.0272 -0.1132  0.1927
27703W        W43597   9.025  12.802  15.872  0.2418  0.0610  0.3548
27704W        W43598  12.370  12.122   3.196 -0.1156  0.4586  0.0762
27705W        W43599   3.543  11.185  15.546 -0.0932 -0.0381 -0.0358
27706W        W43600  11.658   3.293  14.143 -0.1152  0.1339  0.0100
27707W        W43601   9.752  10.812  16.055 -0.3631  0.2779 -0.0981
27708W        W43602   5.696   6.892  13.826 -0.0400 -0.0745  0.0325
27709W        W43603  16.562  14.440  14.310  0.2400 -0.0866 -0.0058
27710W        W43604  12.994   2.247   2.993 -0.1100  0.3478 -0.0102
27711W        W43605   8.671   0.850   3.062 -0.0255 -0.2250 -0.0584
27712W        W43606  10.599  12.652   3.037  0.2365 -0.0442 -0.0354
27713W        W43607  12.716  14.275  16.460 -0.2420  0.0843 -0.1259
27714W        W43608   6.388  17.909  12.343  0.0152  0.0978  0.3008
27715W        W43609   8.486   1.358   4.689  0.0606 -0.1524 -0.0023
27716W        W43610   2.446  16.884   0.614 -0.0699 -0.2089  0.0684
27717W        W43611   1.838  11.787  13.770 -0.0572 -0.0542 -0.2095
27718W        W43612  17.576   0.750  14.883 -0.1424 -0.1922  0.2949
27719W        W43613   5.536   0.643  15.217  0.1693  0.4982  0.0235
27720W        W43614   7.545  16.494   5.390 -0.1223 -0.0557 -0.1638
27721W        W43615   0.529   8.892   1.718 -0.0249 -0.0808 -0.1151
27722W        W43616   1.540  11.238  16.016  0.0899  0.1311 -0.0814
27723W        W43617  17.531   3.317  12.003  0.0441 -0.0688 -0.3503
27724W        W43618  15.699   6.548  15.425 -0.3782 -0.1956  0.2998
27725W        W43619   9.806  13.034   2.351 -0.0648  0.1363  0.0453
27726W        W43620   8.951   3.141   2.068 -0.0843  0.1609 -0.1365
27727W        W43621  16.724   0.639   0.237 -0.2872 -0.1688 -0.2089
27728W        W43622  16.433  14.961  15.924  0.1002 -0.0104 -0.1804
27729W        W43623   2.443  11.022   5.031 -0.0162  0.2232 -0.4087
27730W        W43624  15.219   4.648  15.698 -0.0273  0.4191 -0.0362
27731W        W43625  11.847  16.704   1.162 -0.0468  0.2505 -0.0553
27732W        W43626  10.483  10.830   3.707  0.1741 -0.0554 -0.2227
27733W        W43627   6.412   5.141   5.005  0.1363 -0.0461  0.0739
27734W        W43628   8.575  17.822  15.635  0.0514 -0.0314 -0.0504
27735W        W43629  10.581  13.982  15.749 -0.1361  0.0325 -0.0995
27736W        W43630   7.484  11.055  13.811  0.1799  0.1927 -0.3458
27737W        W43631   9.674   1.392   3.581 -0.1726 -0.1740 -0.3665
27738W        W43632  16.235   1.265   6.008  0.1244 -0.2832 -0.0580
27739W        W43633  17.986   5.533   4.777 -0.2841 -0.2879 -0.1499
27740W        W43634   3.537  17.798  15.328 -0.1190  0.0032 -0.0880
27741W        W43635  17.409   5.023  10.277 -0.1874 -0.0729  0.2974
27742W        W43636  14.441  11.142  13.510  0.1647 -0.0670 -0.0733
27743W        W43637  12.643   5.675   2.051 -0.0931 -0.2582  0.1044
27744W        W43638  12.981   8.158  15.415  0.0912  0.0921  0.0730
27745W        W43639   4.228  16.695  13.816  0.3683 -0.1049 -0.1275
27746W        W43640   2.907  15.996   0.631 -0.2548  0.1499  0.2861
27747W        W43641   6.407  12.479   2.375 -0.0008  0.1039  0.0439
27748W        W43642  18.011  15.299   0.156  0.0390  0.0447 -0.0610
27749W        W43643  10.086  15.991  16.291  0.1686  0.0676  0.1300
27750W        W43644   5.508  11.508  14.463 -0.5104  0.1928 -0.0437
27751W        W43645   0.462  18.096   1.474 -0.0784  0.3828  0.0332
27752W        W43646   3.182   3.693   1.982  0.1258 -0.1084 -0.0488
27753W        W43647  17.632   5.554   3.861  0.1108 -0.0012  0.0020
27754W        W43648   1.718  10.881  15.491  0.1853  0.2437 -0.0933
27755W        W43649   4.227   3.774  15.469 -0.5007  0.0832  0.1506
27756W        W43650   4.001  10.818  11.876 -0.0093  0.0274  0.2636
27757W        W43651  12.000   3.046  10.765  0.1606  0.1835  0.1729
27758W        W43652  12.944   3.135  12.549 -0.0788 -0.2088  0.0856
27759W        W43653  14.389   4.170  15.179  0.1917  0.1367  0.0967
27760W        W43654   4.088   8.727   3.004 -0.0205  0.0079  0.2079
27761W        W43655   1.988  14.359  12.089  0.2792 -0.2765  0.0653
27762W        W43656  15.805   7.115  15.971  0.0860 -0.0981  0.0415
27763W        W43657   7.604   2.968  15.698  0.0685  0.1351  0.0292
27764W        W43658   7.854   6.579   0.957  0.0042  0.2247 -0.2997
27765W        W43659   2.965   0.386  11.482  0.1634 -0.1942 -0.1059
27766W        W43660  14.891   9.725   3.107  0.2535  0.0297 -0.2395
27767W        W43661  14.182  12.525  14.943 -0.1041  0.0569  0.0824
27768W        W43662   8.686   0.174  14.255  0.2421  0.2409  0.0321
27769W        W43663  13.201   3.916   3.921  0.0751 -0.3145  0.0173
27770W        W43664  10.890   2.795  13.661 -0.2240  0.2719  0.1301
27771W        W43665  12.998   5.970  14.072 -0.1142  0.3234  0.1632
27772W        W43666  13.011   2.615  12.703 -0.2132 -0.0860  0.0299
27773W        W43667   8.745   6.774   4.360 -0.0189  0.1142  0.0357
27774W        W43668   1.411   4.763  15.245  0.1077  0.2144 -0.2087
27775W        W43669   2.414  13.719  12.186  0.0577 -0.0056  0.4021
27776W        W43670   9.781  11.458   2.987 -0.0051  0.3153 -0.3235
27777W        W43671  17.431   6.616  13.922  0.3448  0.1188 -0.2683
27778W        W43672  16.313   3.502   3.337  0.2208 -0.0252 -0.1486
27779W        W43673  16.369  13.857  13.609 -0.0480  0.0488  0.2101
27780W        W43674   3.219   0.285  11.929  0.2402  0.3550 -0.0224
27781W        W43675  12.472   4.214   1.927 -0.1538 -0.2030 -0.1070
27782W        W43676  17.713   0.569   4.412  0.0373 -0.0985 -0.0948
27783W        W43677  15.503   4.709  14.800 -0.4482  0.1045  0.3917
27784W        W43678  10.735   6.958  16.044 -0.3268  0.0393  0.0152
27785W        W43679  17.644   4.137   4.764  0.0827  0.1975 -0.2146
27786W        W43680  12.343  14.514   5.959 -0.2937  0.0606 -0.2280
27787W        W43681   2.782  17.170  14.915  0.1117 -0.2340  0.3275
27788W        W43682   8.182   9.257   1.650  0.2940  0.0256 -0.1175
27789W        W43683  10.315  16.978   0.076 -0.0576 -0.2127 -0.0913
27790W        W43684   3.580  14.065   3.027  0.0060  0.2477  0.3901
27791W        W43685  17.569  15.682   0.882  0.1412 -0.1442 -0.0048
27792W        W43686   1.580   2.220   4.094  0.0012  0.1210 -0.0001
27793W        W43687   6.839   0.021  16.429  0.1003 -0.1796 -0.0777
27794W        W43688   5.771  13.062  11.443 -0.2441 -0.0039 -0.1029
27795W        W43689  13.493   7.139  13.680 -0.0238  0.4058  0.0234
27796W        W43690   3.659  16.271  14.364 -0.1375 -0.2467  0.0855
27797W        W43691   2.701   7.514  11.736 -0.0720 -0.0069 -0.0215
27798W        W43692   8.972   1.770  12.831 -0.0933 -0.0828  0.1974
27799W        W43693   3.829   3.720  15.836  0.0482  0.1038 -0.1121
27800W        W43694  14.429  14.799  12.448  0.2878 -0.3797 -0.4127
27801W        W43695  15.590  15.573   5.004 -0.0498 -0.1349  0.1593
27802W        W43696   1.472   9.797   2.590 -0.0433  0.2594 -0.0481
27803W        W43697  12.355  17.848  16.316  0.2909  0.1357 -0.0853
27804W        W43698   1.860  12.536   1.651 -0.1784 -0.0998 -0.1766
27805W        W43699  15.801   0.817  13.473 -0.2659 -0.2235 -0.1339
27806W        W43700  16.253   9.854   4.338  0.0431  0.0131  0.3680
27807W        W43701  15.028  11.840   5.710 -0.1490 -0.0742 -0.2778
27808W        W43702  15.232   8.079  11.931 -0.1492 -0.3300 -0.4121
27809W        W43703   2.060   1.990  15.671  0.0864  0.0112  0.0816
27810W        W43704  11.816  10.684   3.030 -0.0690 -0.0833  0.0048
27811W        W43705  13.340   9.276  12.515 -0.2139  0.5445  0.1986
27812W        W43706   3.363   2.011   5.868 -0.3280 -0.1927  0.1493
27813W        W43707  12.615   8.357  15.115  0.0289  0.2880  0.1383
27814W        W43708   8.383   9.385   5.533  0.0478  0.1278  0.0648
27815W        W43709   2.744  11.882  12.615 -0.1992 -0.0613  0.0901
27816W        W43710   9.786   3.167  13.936  0.0707 -0.1973 -0.0243
27817W        W43711  14.400  12.369  11.083 -0.2660 -0.2743  0.1583
27818W        W43712  12.850   6.898  15.004 -0.0349 -0.2009 -0.1516
27819W        W43713   2.546  12.543   5.245 -0.1526 -0.5068 -0.1321
27820W        W43714  14.700  16.892   5.606  0.0934  0.0185  0.1561
27821W        W43715   3.706  10.994   4.107 -0.2784 -0.0720 -0.1007
27822W        W43716  15.299  10.494  15.490  0.0218 -0.1808  0.0595
27823W        W43717  10.301   5.424   4.182  0.1759  0.2912 -0.2931
27824W        W43718   4.045  13.072  13.438 -0.0090  0.1939 -0.1232
27825W        W43719   8.675   5.153   4.371  0.0250 -0.3031  0.0338
27826W        W43720  11.571   3.667   0.238  0.0466 -0.3577  0.1178
27827W        W43721  10.968   6.585   4.508  0.2056 -0.1138  0.0489
27828W        W43722  13.432  16.524  12.659  0.0194 -0.1129  0.0622
27829W        W43723   0.591   8.205   3.849 -0.1854  0.0627  0.2360
27830W        W43724   4.743   0.471   0.524 -0.1610 -0.0448 -0.1103
27831W        W43725   9.843  12.158   6.375 -0.0506  0.0867 -0.0578
27832W        W43726   3.484   9.550   3.789  0.1766  0.1769  0.0534
27833W        W43727  13.401  10.855   4.955  0.0723 -0.0594 -0.0953
27834W        W43728  15.775   4.913   3.146  0.0680 -0.3674  0.0334
27835W        W43729  16.771  11.444  14.488  0.3713  0.0916 -0.1836
27836W        W43730   7.686   5.687  14.420  0.0257 -0.1153 -0.0693
27837W        W43731   4.453   6.987  14.294  0.1312  0.1352 -0.0977
27838W        W43732  15.259  18.013  13.454  0.2302  0.1377 -0.0142
27839W        W43733   5.890   1.200   5.062  0.2953  0.0633 -0.2059
27840W        W43734  13.397  15.628   4.894  0.1630 -0.0489  0.0895
27841W        W43735  13.137   9.605   1.557 -0.1607 -0.1146 -0.1932
27842W        W43736  11.716  15.786   0.633 -0.0339  0.2283  0.0745
27843W        W43737  12.601   9.735   4.309  0.1772 -0.2454 -0.0074
27844W        W43738  16.860  13.110   6.877 -0.0476  0.0963  0.0327
27845W        W43739   6.070   2.941   4.506  0.3028 -0.1140 -0.1846
27846W        W43740  18.202  12.366  14.595 -0.1097 -0.1824  0.3565
27847W        W43741  11.301   9.883   1.451  0.1312 -0.1653  0.1351
27848W        W43742  17.322   4.095  14.272  0.2473  0.0269 -0.1360
27849W        W43743   4.440  12.145   3.899  0.2167 -0.0987 -0.0757
27850W        W43744   7.441   4.925  12.573 -0.2564  0.1381 -0.0198
27851W        W43745  12.965  10.257  16.290  0.1032 -0.0392  0.2614
27852W        W43746   8.400  11.775  15.412 -0.0014  0.2865  0.3891
27853W        W43747  14.256  11.522  16.260 -0.1323  0.2634 -0.0175
27854W        W43748  16.764  17.825   3.614 -0.0210  0.0204 -0.4052
27855W        W43749   3.053  12.964   3.043  0.0398 -0.1139 -0.0861
27856W        W43750  17.924   6.886  13.219 -0.1797 -0.1542  0.2040
27857W        W43751  14.137   1.878  12.807  0.0419  0.0232  0.0288
27858W        W43752   8.650   6.611  15.406 -0.2338 -0.2704  0.1267
27859W        W43753  18.015   4.488   0.468 -0.1707 -0.0371  0.4048
27860W        W43754   5.838   5.064   3.578 -0.2924 -0.4683  0.4000
27861W        W43755   5.753   8.882   2.769  0.0584 -0.2103 -0.2479
27862W        W43756  10.762  14.754   4.143 -0.1361 -0.0873 -0.3566
27863W        W43757   5.029  16.622  12.272  0.1037  0.0057  0.1527
27864W        W43758   2.706  12.589   4.768 -0.0434  0.0035  0.0039
27865W        W43759  11.097  16.996  16.280 -0.0452 -0.1019 -0.1106
27866W        W43760  17.526  18.189   5.250  0.3746  0.1628 -0.0555
27867W        W43761   1.943   0.432  15.849 -0.0874 -0.0234  0.2493
27868W        W43762   0.724   7.968  15.643  0.4338  0.0444 -0.1430
27869W        W43763  10.638  10.463   1.704 -0.0347 -0.0988  0.0997
27870W        W43764   3.539  14.173  11.798 -0.1071  0.2013  0.3837
27871W        W43765   4.428  13.193  12.944 -0.3919  0.0976 -0.0417
27872W        W43766  17.739   4.800   0.771 -0.0810  0.0567 -0.2063
27873W        W43767  14.517   3.474  16.456  0.0716  0.2050 -0.2162
27874W        W43768  15.827  15.326   3.203  0.0605  0.1291  0.2658
27875W        W43769  17.504  10.173   0.348 -0.4275  0.0125  0.0032
27876W        W43770   4.426  10.231   0.155  0.0969 -0.2323  0.0124
27877W        W43771   6.500   6.114  15.193 -0.1221 -0.0852 -0.1301
27878W        W43772  16.086   9.488   5.904  0.0562  0.0505 -0.2464
27879W        W43773   6.066  15.809  14.503 -0.1662 -0.0920  0.1731
27880W        W43774  11.227  13.188  11.414  0.0490 -0.1373  0.1781
27881W        W43775  14.526  10.654  16.156 -0.0030 -0.0188 -0.1499
27882W        W43776   3.816   9.408   0.205  0.1380 -0.0083 -0.1044
27883W        W43777  12.155   0.742  11.364  0.2029 -0.2573 -0.1049
27884W        W43778   5.829  10.387   4.601  0.0672  0.0092 -0.1223
27885W        W43779  13.795   4.715  13.897 -0.0344 -0.2650 -0.0085
27886W        W43780   8.329   2.937  13.583 -0.1709 -0.1308 -0.2282
27887W        W43781   2.635  15.157   3.734 -0.1621 -0.0070 -0.2518
27888W        W43782  17.214  14.726  12.718 -0.1066  0.0399  0.0393
27889W        W43783   7.732   0.066   3.146 -0.1103  0.2813 -0.1662
27890W        W43784  16.674  12.161  14.685 -0.0374 -0.0950 -0.2741
27891W        W43785  10.692  17.649  15.026 -0.3516  0.2190  0.0392
27892W        W43786  10.356   3.082  12.844 -0.0114  0.1582  0.1075
27893W        W43787   8.686   5.071   4.925  0.1393  0.1408  0.0338
27894W        W43788  10.115  16.966  14.649  0.0087 -0.0343  0.2337
27895W        W43789   2.364  17.003   3.115  0.0469 -0.1882 -0.0958
27896W        W43790  14.978  12.166  15.107 -0.1821  0.2709  0.1489
27897W        W43791  13.729  13.813  16.301  0.0253 -0.0028  0.2123
27898W        W43792  10.010   7.247   4.155 -0.1261  0.1567  0.3138
27899W        W43793   5.939  11.296  15.816  0.0999  0.0286  0.0777
27900W        W43794  17.116  13.143   5.372  0.1810  0.1806  0.3874
27901W        W43795  17.905  12.079  13.960  0.1539 -0.2603  0.3914
27902W        W43796   8.221   8.390  11.290  0.4078 -0.1070 -0.0078
27903W        W43797   6.906   5.742   3.691 -0.0054  0.0455 -0.2707
27904W        W43798   8.962  16.486  11.603 -0.1061  0.1278  0.1400
27905W        W43799   5.027   7.951  12.649 -0.3283  0.2796 -0.0918
27906W        W43800   0.137  13.205  14.970 -0.0168 -0.1277  0.1896
27907W        W43801  13.463   3.054   1.498 -0.0841  0.0929  0.0924
27908W        W43802  14.095  14.592   3.396 -0.0535 -0.2515 -0.2020
27909W        W43803   8.796  11.497  15.205  0.0024  0.0757 -0.4362
27910W        W43804  17.721   7.475   2.016  0.1694  0.0897  0.1671
27911W        W43805  15.903  14.773  13.834 -0.1520 -0.0252  0.2347
27912W        W43806   2.674  16.395  14.580 -0.3125  0.4987 -0.2249
27913W        W43807   8.215   6.221  14.762 -0.2728  0.0880  0.0710
27914W        W43808  13.004  17.257   0.686 -0.0974 -0.0886  0.1033
27915W        W43809   9.743   4.905  11.035  0.1288  0.1168 -0.0667
27916W        W43810   9.863   5.817   1.122 -0.3105 -0.1903 -0.3432
27917W        W43811  12.401   0.651  16.236  0.0918 -0.0726 -0.0287
27918W        W43812   8.389   2.630  16.219 -0.0977  0.1998 -0.3328
27919W        W43813  14.587  16.660  12.243  0.0610  0.3737  0.0992
27920W        W43814   6.044   0.227   1.274 -0.0287 -0.0966 -0.2491
27921W        W43815  16.680  10.689   3.356  0.0145  0.3054 -0.1915
27922W        W43816   9.976  10.281  14.336  0.2630 -0.2752 -0.1752
27923W        W43817   5.102   7.029   0.142  0.2947 -0.0697  0.0255
27924W        W43818  11.827   8.987  15.368  0.0447 -0.0678  0.1033
27925W        W43819  15.684  14.857   3.173  0.2925 -0.1384 -0.0639
27926W        W43820  14.611   9.349   3.024 -0.1089 -0.0267 -0.2647
27927W        W43821   7.922  14.548  16.374  0.3315  0.0747  0.0032
27928W        W43822  14.373  12.852   3.548 -0.0179 -0.1567  0.0220
27929W        W43823   3.691   8.847  14.776  0.1130 -0.4094  0.2747
27930W        W43824   4.756  11.813   0.784  0.3273  0.1618 -0.1086
27931W        W43825   3.541   7.976   2.503  0.4088  0.1159  0.0548
27932W        W43826  17.230   0.248   5.588  0.0549  0.0470 -0.0780
27933W        W43827   6.268   8.514   0.472 -0.0138 -0.0276 -0.1711
27934W        W43828  12.461   6.847  15.344 -0.2818 -0.0121  0.1450
27935W        W43829   1.917   3.630  13.399 -0.0361 -0.0200 -0.1950
27936W        W43830   8.671  13.178   5.145 -0.3142  0.1491 -0.3346
27937W        W43831  11.544   5.549   4.156  0.1225  0.2551 -0.2097
27938W        W43832  13.363   9.046   4.798  0.0911  0.1565 -0.1901
27939W        W43833  18.099  15.187   5.320  0.1118  0.1082 -0.0721
27940W        W43834  13.223  17.895  14.335 -0.0354 -0.1498 -0.2522
27941W        W43835  11.741   0.103   1.401 -0.1316  0.0987  0.1120
27942W        W43836   1.416  17.397   3.416 -0.3885 -0.0096  0.5274
27943W        W43837  16.368  16.099   1.357  0.0264 -0.0984 -0.0998
27944W        W43838  13.563   9.073   0.269 -0.0436 -0.1106 -0.0753
27945W        W43839   1.905   5.910   3.355 -0.2774  0.0045 -0.0999
27946W        W43840  11.186   2.205   5.346  0.1560  0.0719 -0.2538
27947W        W43841  10.625  17.121   2.799  0.0534  0.0732  0.0842
27948W        W43842   2.256   8.718  14.947 -0.1578 -0.3958  0.3231
27949W        W43843   1.406  15.154   4.111  0.1590 -0.0846 -0.1402
27950W        W43844  12.895  17.119   3.847 -0.2100  0.3115 -0.2156
27951W        W43845  16.310  15.068   3.294 -0.1629  0.1102  0.1301
27952W        W43846   1.957  11.894   0.396  0.3784 -0.2493  0.0773
27953W        W43847   8.769   3.939  15.100 -0.1617 -0.1868  0.0850
27954W        W43848  17.903  11.499   1.730  0.0411  0.1106  0.1837
27955W        W43849  15.702   7.266   0.510 -0.0788 -0.3585  0.1961
27956W        W43850   8.503  12.908   3.782 -0.1181 -0.0137  0.2332
27957W        W43851   6.754   1.059   5.021  0.0209 -0.1798  0.0076
27958W        W43852  14.117  14.219  13.204 -0.1251 -0.0593  0.1445
27959W        W43853   4.580  11.066  14.455  0.1782 -0.0357 -0.1699
27960W        W43854   4.376  10.820  15.391  0.0882 -0.1077 -0.0058
27961W        W43855  11.422   7.002   2.083 -0.1960  0.2019 -0.0667
27962W        W43856   7.555  11.402  12.623  0.0456 -0.0426 -0.0709
27963W        W43857  14.298   7.101   5.061  0.0769 -0.0136 -0.3045
27964W        W43858   1.654  18.112   5.349 -0.2367 -0.2490  0.4182
27965W        W43859  10.293   6.516   2.501 -0.0907  0.0005 -0.0597
27966W        W43860   3.562   4.700   0.604 -0.2293 -0.0945 -0.1085
27967W        W43861  17.951   4.529   4.466 -0.4737  0.0183  0.3295
27968W        W43862   3.673   7.546  14.758 -0.0978  0.0073  0.1970
27969W        W43863   3.226  18.177   4.505 -0.0748  0.1578  0.0750
27970W        W43864  10.041   0.578  10.323  0.1270  0.1388 -0.3594
27971W        W43865   8.200  11.882   1.406  0.1756 -0.3119 -0.0581
27972W        W43866   7.831  14.421   1.771 -0.0388  0.0434  0.1607
27973W        W43867   0.996   9.936   5.268  0.1898  0.2278  0.0644
27974W        W43868   9.842   8.037  15.850  0.0660 -0.0936 -0.5936
27975W        W43869   8.099  11.837  14.640  0.1948 -0.2587 -0.0879
27976W        W43870   9.611  11.401  12.426  0.0658  0.2816  0.0307
27977W        W43871   1.177  11.406  14.241 -0.1424  0.1202 -0.2602
27978W        W43872  10.761  16.997   0.694 -0.0206  0.4689 -0.4553
27979W        W43873  17.089   4.417   6.014 -0.2208 -0.1877  0.0593
27980W        W43874   7.435  12.491   2.830  0.2340 -0.0948  0.0903
27981W        W43875   8.300   9.273  15.923  0.0983  0.0913  0.4048
27982W        W43876   7.555   9.656   4.551 -0.0359 -0.0519  0.0009
27983W        W43877  13.747  15.615  11.720 -0.2643  0.2576 -0.2108
27984W        W43878   1.884   3.952   4.807 -0.0373 -0.2436  0.1522
27985W        W43879  11.925   9.019   1.792 -0.0127  0.1411  0.1463
27986W        W43880  11.188  17.639   2.271  0.0076  0.0103 -0.1555
27987W        W43881   0.783   5.851  12.630  0.0872 -0.2947 -0.3368
27988W        W43882  12.244   6.232   3.822 -0.4685 -0.1289  0.3189
27989W        W43883   3.047   4.825   4.866  0.4327  0.1796 -0.2080
27990W        W43884  14.727  11.317   0.424  0.1815  0.0067 -0.0355
27991W        W43885   6.297  11.390  14.010  0.1471 -0.1375 -0.0593
27992W        W43886   6.592   0.909   2.722  0.1961  0.1455  0.1669
27993W        W43887  16.655   7.778   1.788 -0.0173 -0.0180 -0.0790
27994W        W43888   5.006  13.906  13.354 -0.3133 -0.0933  0.0705
27995W        W43889   9.927   9.798   1.446  0.0742  0.0557 -0.1670
27996W        W43890  17.011   5.570   1.465  0.4233  0.1374  0.2852
27997W        W43891  16.863  17.932   3.153  0.0806  0.4331 -0.0928
27998W        W43892   4.239   4.055  12.306  0.3385 -0.0907 -0.1573
27999W        W43893   7.359   7.364   2.787 -0.1923 -0.0677  0.0535
28000W        W43894  15.417   2.973  13.855  0.3233 -0.1525  0.2162
28001W        W43895   5.432   7.954   6.042  0.3007 -0.2894  0.2656
28002W        W43896   6.033  17.217  13.801  0.0984  0.0483 -0.0135
28003W        W43897  13.158   1.169  15.051 -0.0842 -0.1278  0.0254
28004W        W43898   2.488   5.985   1.686 -0.0418  0.0066  0.1251
28005W        W43899  10.518  11.786   4.673  0.1312 -0.0709 -0.0613
28006W        W43900  13.007  14.833   4.442 -0.0102 -0.0659 -0.4885
28007W        W43901  12.862   9.802  13.144 -0.4425  0.2058 -0.2733
28008W        W43902   5.729   6.335   4.346  0.0765  0.3288 -0.0464
28009W        W43903  17.607  16.293  15.580  0.0950 -0.0123  0.3134
28010W        W43904   9.737   2.300  14.310  0.1429  0.1385 -0.1866
28011W        W43905   1.038   5.387  13.406  0.1351 -0.1726  0.0110
28012W        W43906   1.158   8.903   1.631  0.1714 -0.1875 -0.0839
28013W        W43907   1.259   5.218  12.002  0.0397  0.0129 -0.1062
28014W        W43908  16.407   7.220   4.704 -0.1621  0.1799  0.0661
28015W        W43909   4.938  15.784   3.747  0.1453 -0.0392  0.3157
28016W        W43910  11.636   1.726  11.336 -0.3086 -0.3179 -0.0810
28017W        W43911   5.556  10.579   0.298  0.4606 -0.0187  0.2703
28018W        W43912  10.180  11.367  11.457  0.0572  0.2411 -0.2645
28019W        W43913  13.786   4.559  13.409  0.1790  0.0491 -0.0526
28020W        W43914   9.746  13.262  15.633  0.1035  0.1672 -0.0293
28021W        W43915  15.966  12.747   4.294  0.1352  0.3064 -0.0135
28022W        W43916   1.639  17.313  14.455 -0.3454 -0.3125  0.0199
28023W        W43917  14.622  15.593   0.844  0.2130  0.0754 -0.0592
28024W        W43918   4.056  11.989   3.205 -0.3871  0.0824 -0.0034
28025W        W43919   5.814  12.941  14.450 -0.1458  0.1176 -0.0312
28026W        W43920   3.252  14.130   4.480 -0.3146 -0.3107  0.1850
28027W        W43921   7.854   7.761   2.530 -0.1501 -0.0290 -0.1421
28028W        W43922   7.374   6.930   2.001  0.1893  0.1257 -0.1870
28029W        W43923   3.206   8.417  12.391  0.1069  0.1409 -0.0265
28030W        W43924   0.341  16.459   0.607 -0.1877 -0.1000  0.0405
28031W        W43925  11.527   5.291  14.618  0.0143  0.3529 -0.3660
28032W        W43926   2.054   7.526   5.377  0.1817  0.2879 -0.1146
28033W        W43927   0.774  13.776   2.491  0.1959  0.1273  0.2466
28034W        W43928  13.590   3.489   0.076  0.0794 -0.0093  0.1712
28035W        W43929  15.896   1.184   5.634  0.2239  0.1486 -0.3744
28036W        W43930  10.564  15.788   5.150  0.0121 -0.1469  0.0873
28037W        W43931   3.188   6.181   2.255 -0.1001 -0.2178 -0.0612
28038W        W43932   0.272   1.420  16.175  0.2540  0.1151 -0.2238
28039W        W43933   4.700  10.524  14.502  0.0038 -0.3719 -0.1801
28040W        W43934  12.198  17.500   0.210 -0.0305 -0.0245  0.2844
28041W        W43935   1.830   8.253   6.634 -0.1135 -0.0702 -0.3379
28042W        W43936   4.238  12.134   2.072 -0.1668  0.0624  0.4208
28043W        W43937   6.779   2.578  13.986  0.0925 -0.1596  0.0434
28044W        W43938  13.135  10.138   1.624  0.1715 -0.1855 -0.1625
28045W        W43939   5.718  17.170   3.243 -0.0199  0.0264  0.2576
28046W        W43940  12.415   6.764  12.825  0.1213  0.0963 -0.1968
28047W        W43941   7.369  16.431  15.874  0.0601  0.0130 -0.0270
28048W        W43942   2.258  18.085   2.869  0.2271 -0.0707 -0.0619
28049W        W43943   0.729  15.263  14.562 -0.1568  0.2861  0.1920
28050W        W43944  11.074  12.129   2.183  0.0153  0.2372 -0.1733
28051W        W43945   4.954  18.229   4.941  0.2564  0.0392 -0.2665
28052W        W43946  15.013  11.698  15.476  0.1970  0.0085 -0.4253
28053W        W43947   7.608   5.736  12.861  0.0032 -0.1816  0.4866
28054W        W43948  15.484  15.863   2.988  0.4617 -0.5378 -0.0304
28055W        W43949   3.812   7.501   4.789  0.4399 -0.1497 -0.2088
28056W        W43950   1.655  14.082   3.305 -0.1443 -0.1748  0.3173
28057W        W43951   7.274   2.523  15.801  0.2024  0.0943 -0.2981
28058W        W43952  10.679  12.483  16.186  0.1387 -0.1349 -0.4178
28059W        W43953   7.200   6.112  13.636  0.1384 -0.0528 -0.0210
28060W        W43954   7.883   4.300   1.875  0.0617  0.0620  0.4348
28061W        W43955   9.522  16.207   0.495  0.1444 -0.1701 -0.1296
28062W        W43956   6.503   8.616   2.947 -0.3453 -0.0537  0.2486
28063W        W43957  11.876  11.065   2.535  0.5304  0.0320  0.3764
28064W        W43958   5.818   9.349   5.370  0.2805  0.4570 -0.4996
28065W        W43959  12.749  17.660  14.231 -0.1577  0.3270 -0.0598
28066W        W43960   4.793  14.275   0.360  0.1832 -0.1527  0.1160
28067W        W43961   4.695   4.044   5.710 -0.0100 -0.0222  0.1319
28068W        W43962   5.274   6.809  14.942 -0.0063  0.2307 -0.5607
28069W        W43963  14.812   0.784  12.489 -0.3864 -0.0286 -0.3927
28070W        W43964  17.293   3.914   3.163  0.1138  0.0327 -0.1267
28071W        W43965   6.312   2.252  16.082 -0.0626 -0.0491 -0.2431
28072W        W43966   7.946  14.678  14.278  0.1150  0.2644  0.3099
28073W        W43967  13.742   7.877   5.404  0.4272 -0.0269 -0.2983
28074W        W43968   0.447   7.080  15.984  0.0181  0.0919 -0.0839
28075W        W43969  12.441   0.837   5.053  0.0735 -0.2817 -0.1284
28076W        W43970   6.351  17.173  13.293 -0.0467  0.0613  0.0071
28077W        W43971  11.739   1.900   3.987 -0.4875  0.1401  0.1874
28078W        W43972  10.879  14.201  12.804  0.1178 -0.1082 -0.1183
28079W        W43973   1.727   4.401  10.848  0.0613  0.0903  0.0021
28080W        W43974  15.655   1.215   4.619  0.3665 -0.1031  0.1778
28081W        W43975  15.028   4.306   0.643 -0.1047 -0.1549  0.3859
28082W        W43976  11.032   1.941  15.226  0.4443 -0.1633  0.1061
28083W        W43977   0.936   6.452   5.033  0.1091  0.3658 -0.1581
28084W        W43978   3.481  10.204  14.862  0.2693 -0.2316  0.0300
28085W        W43979   1.957   0.550  12.311 -0.1929 -0.2004 -0.0522
28086W        W43980   3.680  15.931   6.366  0.0416 -0.1976  0.0220
28087W        W43981   1.815  10.174   2.775 -0.0022 -0.1829 -0.0189
28088W        W43982   6.493   8.767  12.454 -0.2505  0.0058  0.1301
28089W        W43983   0.542   2.557   1.308 -0.0481  0.1201  0.2533
28090W        W43984   3.944   9.370  13.569 -0.1294 -0.4007  0.0062
28091W        W43985   8.838   4.345   1.396  0.2192  0.2191 -0.1568
28092W        W43986  12.137   1.286   1.124  0.0648  0.0804  0.0324
28093W        W43987  14.305  17.156   4.666  0.1081 -0.0498 -0.1231
28094W        W43988   9.086   0.101  11.715 -0.1995  0.0414 -0.4804
28095W        W43989  17.059   0.619  11.071  0.2879  0.5366 -0.2891
28096W        W43990   6.082   4.909  14.761 -0.2770 -0.1203 -0.1238
28097W        W43991   9.431  12.454  16.038 -0.3275 -0.0863 -0.1117
28098W        W43992  16.192   6.469   5.271  0.0710 -0.0999  0.0220
28099W        W43993  11.541  17.950   3.924  0.0477  0.1461  0.1180
28100W        W43994  13.331  15.409   1.628 -0.0790 -0.5326  0.0609
28101W        W43995   1.674   1.008   6.243 -0.1225 -0.1675  0.4353
28102W        W43996   4.752   3.068  11.890  0.1954 -0.1254 -0.0287
28103W        W43997   7.521  12.015   4.327  0.1792  0.0360 -0.0521
28104W        W43998   5.721   4.130  15.369 -0.2070  0.0724  0.1646
28105W        W43999  15.178  16.580   0.941 -0.1682 -0.1432 -0.0510
28106W        W44000  15.382  13.957  13.652 -0.0282  0.2193 -0.1238
28107W        W44001  16.208  17.521  13.535  0.1689 -0.1211  0.1035
28108W        W44002   2.000  10.040  12.504 -0.2094 -0.2322  0.2374
28109W        W44003   6.332   1.696   0.399 -0.2340  0.2162 -0.1323
28110W        W44004   0.770   1.007   4.316  0.1957 -0.1778  0.2961
28111W        W44005   9.732  15.534  15.857  0.1204 -0.1308  0.1034
28112W        W44006   7.372   5.960   4.923  0.0617  0.2975 -0.1844
28113W        W44007   1.859   8.707  16.339 -0.2357  0.0538 -0.1962
28114W        W44008   4.990   8.770  13.277 -0.2048  0.0933  0.0271
28115W        W44009  12.965   6.206   3.396  0.3820 -0.0341 -0.1891
28116W        W44010   8.871   9.459   5.388  0.1758 -0.0723 -0.2612
28117W        W44011  16.969   6.156  14.423  0.1345 -0.4049 -0.0721
28118W        W44012   7.156   5.604  13.741 -0.1324  0.0673  0.0394
28119W        W44013  12.920  11.733   0.726 -0.0633 -0.2769  0.1303
28120W        W44014  15.700  14.773   3.751  0.2211  0.0166  0.0522
28121W        W44015  12.181   8.372   0.513  0.1354  0.2152  0.0263
28122W        W44016   0.154  16.845  15.640 -0.4891 -0.0608 -0.2831
28123W        W44017   7.301   7.643   4.709  0.0491 -0.2387  0.4945
28124W        W44018   4.689  15.953   4.792  0.0991 -0.0113 -0.3226
28125W        W44019   5.553  11.340   2.329  0.0667 -0.0574  0.0995
28126W        W44020  12.038  10.349  10.682 -0.0571  0.0411 -0.2239
28127W        W44021  17.302  14.307   0.622 -0.1374  0.0401  0.1611
28128W        W44022   5.676  10.175  16.447 -0.1403  0.0618  0.1582
28129W        W44023  14.198   9.672   2.881  0.0826  0.4008 -0.0318
28130W        W44024  17.587  11.349  12.209  0.0971  0.0267 -0.0529
28131W        W44025   7.520   6.111  15.938 -0.1810  0.0737 -0.1962
28132W        W44026   1.246  14.542  15.478 -0.1289  0.1595 -0.0195
28133W        W44027  10.200   9.409   2.566 -0.2636  0.0162 -0.2108
28134W        W44028   0.159   2.170  15.681 -0.1979 -0.2754 -0.1607
28135W        W44029   5.453   9.617   0.533  0.2970 -0.0003  0.0490
28136W        W44030   1.945   0.475  12.874  0.0618 -0.0454 -0.0028
28137W        W44031  16.283   6.155   2.046  0.1022  0.0332  0.0657
28138W        W44032   0.513   0.398   2.285  0.0362 -0.1483 -0.0483
28139W        W44033   7.882   1.176  13.208 -0.2149  0.0859 -0.0495
28140W        W44034  13.181   1.818   0.505 -0.0135 -0.0485 -0.6618
28141W        W44035  17.152   2.010   4.335 -0.0259  0.1331  0.2555
28142W        W44036  12.226  17.002   0.972  0.1592  0.1802 -0.2142
28143W        W44037   4.402  15.285   2.973 -0.2801  0.5741 -0.0887
28144W        W44038   7.840  11.719   0.132 -0.0719 -0.2118  0.2093
28145W        W44039  11.993   2.972   1.379  0.1589  0.0871  0.0503
28146W        W44040   9.510   2.786  12.794 -0.1405  0.1736  0.0249
28147W        W44041  14.022   2.028  11.005  0.0878 -0.0354 -0.2330
28148W        W44042   9.670  11.341  15.922 -0.0023 -0.0768  0.1029
28149W        W44043   2.949   3.020  11.519  0.0202 -0.1198 -0.0204
28150W        W44044  15.420   1.096  11.384  0.2457  0.0650  0.0429
28151W        W44045   3.250   2.138  12.434  0.0842 -0.1380 -0.1681
28152W        W44046   5.580   4.162   1.868  0.0733 -0.0607  0.2071
28153W        W44047   1.562  12.768  11.753 -0.0546 -0.4336 -0.1129
28154W        W44048   3.292   7.573  15.791 -0.0648 -0.0819  0.0250
28155W        W44049  14.006  10.088   2.677 -0.1237  0.1871  0.2537
28156W        W44050   7.832   4.004  14.929 -0.2671 -0.2344 -0.0662
28157W        W44051   1.604   5.317   3.401 -0.0899 -0.0376  0.0535
28158W        W44052   5.903   1.192  11.799 -0.1549 -0.2312  0.0503
28159W        W44053  17.477   1.643  15.863 -0.0304 -0.0724 -0.3310
28160W        W44054  18.212   8.635   4.514 -0.1972 -0.2289  0.0590
28161W        W44055   8.233  17.256   4.188  0.0938  0.2457  0.1780
28162W        W44056   2.453   3.394  10.342  0.1343 -0.3059 -0.3528
28163W        W44057   6.154  12.040   0.129  0.2945 -0.4745  0.2458
28164W        W44058  11.774   8.719  12.536 -0.2474  0.0778 -0.0373
28165W        W44059   1.281   7.364  14.239  0.0318  0.2016  0.0023
28166W        W44060  14.831  13.825   4.599  0.1741  0.0149  0.1218
28167W        W44061   0.897  11.939   5.230  0.0031  0.0040 -0.0909
28168W        W44062   7.517  12.036  11.517 -0.0043  0.0369 -0.1397
28169W        W44063   6.092   5.782  16.144 -0.1915  0.2276  0.0884
28170W        W44064   0.822   2.375   5.619 -0.0605 -0.0339  0.0925
28171W        W44065  15.264  11.816   0.596 -0.3312  0.2896  0.3858
28172W        W44066  13.996  14.164  15.084 -0.4026 -0.1439 -0.3013
28173W        W44067   4.712   9.345   2.223  0.0709 -0.0663  0.0554
28174W        W44068  13.974  12.657  13.065  0.1856  0.3027 -0.0915
28175W        W44069  16.004   8.321  13.755 -0.0465  0.4189  0.2051
28176W        W44070  14.177  10.432   0.544 -0.1794 -0.4201  0.0639
28177W        W44071  16.610   2.190  11.662  0.3010 -0.0627 -0.2173
28178W        W44072   8.696   7.994   4.187 -0.3259 -0.1044 -0.0907
28179W        W44073  15.826  16.883   0.237  0.0201  0.1611 -0.0024
28180W        W44074   1.923   5.196  13.138  0.1328  0.2859 -0.0509
28181W        W44075   7.708  10.872   2.193  0.1603  0.1991  0.3439
28182W        W44076   9.282   8.026  15.426  0.0135  0.0755  0.2377
28183W        W44077  11.325   9.515   0.209 -0.4006  0.0940  0.1240
28184W        W44078   4.644   4.244  12.499  0.2044  0.0923 -0.1167
28185W        W44079  13.103  18.027  15.115 -0.2205  0.2656  0.2478
28186W        W44080   1.388  15.842  10.661 -0.1137  0.0530  0.2236
28187W        W44081   1.218   7.309  12.625  0.0486 -0.0735 -0.2818
28188W        W44082   5.935  12.585  11.657  0.1827  0.0135 -0.1266
28189W        W44083   5.349  16.769  15.783  0.1657  0.0349  0.2515
28190W        W44084  16.192   2.710   2.431  0.0418  0.1616 -0.2150
28191W        W44085  14.859   8.959  16.029  0.0126 -0.0918 -0.2096
28192W        W44086   9.237   7.806  12.022  0.3640 -0.0284 -0.1759
28193W        W44087   6.715  10.309   5.089 -0.0418 -0.1988  0.2195
28194W        W44088  16.397  11.509  12.517 -0.0783  0.2078  0.0089
28195W        W44089  10.687  13.853   3.584 -0.1680  0.0536  0.0124
28196W        W44090  13.678  17.709  15.119 -0.1036  0.3031  0.1775
28197W        W44091   4.173   6.366   2.260 -0.5242  0.0888 -0.0890
28198W        W44092   8.769   5.277   5.840 -0.0287 -0.0236 -0.1824
28199W        W44093  15.394  10.667   0.508  0.1035 -0.2245  0.0506
28200W        W44094  15.653  11.196   4.955 -0.4189 -0.0563  0.0323
28201W        W44095  10.876  17.791  13.351 -0.0548  0.1122 -0.2066
28202W        W44096   9.453  15.647  16.449  0.0426  0.2328  0.0584
28203W        W44097   9.246  12.410   2.852 -0.1312  0.1787 -0.1219
28204W        W44098  12.783   8.374  12.217 -0.1721  0.2721  0.1093
28205W        W44099   2.747  15.152   4.233  0.1247  0.1043  0.0144
28206W        W44100   5.182  14.226  16.247 -0.1277  0.0801  0.1303
28207W        W44101   0.648  12.896  15.759  0.0485  0.1290  0.0757
28208W        W44102  10.738  10.064  11.411 -0.0102  0.2113 -0.1492
28209W        W44103  14.481  10.172  12.415  0.2431  0.0468 -0.1421
28210W        W44104  13.171   7.113   2.828 -0.0591 -0.1646  0.1639
28211W        W44105   3.318   8.774  15.837  0.2403 -0.0403  0.1810
28212W        W44106  14.658  12.135   2.743  0.6035  0.1542 -0.4794
28213W        W44107   2.996   5.995  12.197  0.0760 -0.2409  0.0902
28214W        W44108  15.447   0.155   2.776  0.2420 -0.0439 -0.0583
28215W        W44109  13.569   0.579  12.224 -0.3688  0.0163  0.1614
28216W        W44110   4.733  16.374  12.723  0.0029 -0.1114 -0.1850
28217W        W44111  15.245  12.110  16.088  0.0155  0.0392  0.0345
28218W        W44112   0.178   6.905   5.136 -0.0441 -0.1594 -0.2682
28219W        W44113  15.553  11.484  15.341 -0.0817 -0.1585  0.3190
28220W        W44114   7.685  16.225  16.377 -0.4040 -0.0070 -0.0413
28221W        W44115   1.607  17.460  16.369 -0.2263  0.0610  0.2315
28222W        W44116   3.677   9.483   1.995 -0.1026 -0.1317  0.1840
28223W        W44117  16.540  14.476   1.735 -0.1209  0.0720  0.0607
28224W        W44118  14.147  14.231   4.814 -0.0254  0.1511  0.0922
28225W        W44119  13.586   7.807  14.480  0.0890 -0.0312 -0.1724
28226W        W44120  14.293  13.602   2.279  0.0997 -0.3549 -0.2423
28227W        W44121  17.872   3.470   4.018 -0.0538 -0.2527 -0.0562
28228W        W44122   2.338  14.270   0.467 -0.0494 -0.0784  0.2159
28229W        W44123  14.095   2.557   3.342 -0.0077  0.0195 -0.0563
28230W        W44124  15.125  14.901  11.868  0.2335  0.0951  0.3839
28231W        W44125   6.728   9.199  10.996 -0.1079  0.0072 -0.3500
28232W        W44126  12.109  13.497  12.272 -0.0581  0.1780  0.0884
28233W        W44127  10.846  10.910  11.893  0.0124  0.0312  0.0079
28234W        W44128   9.548  15.805  14.978  0.0867  0.1666 -0.0671
28235W        W44129   1.772  14.809   4.111  0.0630 -0.1852  0.0185
28236W        W44130  12.497  11.282  14.602 -0.2299  0.1695  0.1348
28237W        W44131  10.555   9.970   1.898  0.1202  0.2353  0.0472
28238W        W44132  14.708  10.690   3.885  0.1872  0.2141  0.0084
28239W        W44133  16.596  11.987   4.259  0.0987 -0.3296  0.2851
28240W        W44134  10.320  12.116   5.606  0.1581  0.0501 -0.2047
28241W        W44135   3.229  16.654  11.797  0.2779  0.0427  0.1733
28242W        W44136   7.399   5.284  14.578 -0.0794 -0.2263 -0.1900
28243W        W44137  12.190   2.978   3.662  0.2615  0.0493  0.1593
28244W        W44138   4.659   5.202   4.706  0.2128  0.0743 -0.1299
28245W        W44139  14.135   3.183   4.614 -0.2690  0.0390 -0.0226
28246W        W44140   9.154   4.638  14.371 -0.0015 -0.0886  0.0981
28247W        W44141   1.550   3.886   2.223  0.0541 -0.1017  0.0087
28248W        W44142   3.652   9.187  16.183  0.3355  0.0334 -0.0764
28249W        W44143   4.971  11.806   3.058  0.1183 -0.3697  0.1310
28250W        W44144  15.717  12.855   4.777  0.0354 -0.1574  0.2295
28251W        W44145   1.557   0.322  14.517 -0.0338  0.0232 -0.0253
28252W        W44146  15.856  11.194   5.432 -0.2127 -0.2237 -0.1144
28253W        W44147  11.589  14.819   2.235  0.0363 -0.1799 -0.0735
28254W        W44148   7.547   2.077  14.089  0.1067 -0.0446  0.0961
28255W        W44149   2.995  10.124  12.670  0.4309  0.0998  0.1313
28256W        W44150  11.123   4.442  12.144 -0.0622  0.1439  0.1533
28257W        W44151  12.969   6.996   0.605 -0.1553  0.1411  0.0749
28258W        W44152   2.346   7.510   6.011 -0.1674 -0.0747  0.0304
28259W        W44153  16.672   9.892   3.912 -0.1473 -0.1286  0.1561
28260W        W44154   9.084   2.942  10.499 -0.2219 -0.1097 -0.0072
28261W        W44155   0.578   3.183   3.076  0.0849  0.1777  0.1299
28262W        W44156  15.151  14.440   0.647 -0.0577 -0.0027 -0.0425
28263W        W44157  17.673   0.345   4.892  0.0645  0.1771 -0.0756
28264W        W44158   0.504   8.846   2.287 -0.1860  0.3887 -0.1948
28265W        W44159   8.873  15.799   2.272  0.1183  0.0111  0.0484
28266W        W44160  17.721   9.837   3.719 -0.2598  0.1987 -0.0763
28267W        W44161  12.769   7.298  12.116 -0.0074 -0.1292 -0.2448
28268W        W44162   5.607  16.573  16.179 -0.1548 -0.1978  0.0462
28269W        W44163   6.161   5.867   3.111 -0.0285 -0.1010  0.0970
28270W        W44164  13.735  10.402  13.277 -0.0810 -0.2016 -0.0380
28271W        W44165   7.148  11.291  13.355  0.0464 -0.1883  0.2861
28272W        W44166  16.575  14.372   3.867 -0.3421  0.0669  0.1199
28273W        W44167  11.640   6.815   2.567  0.2740  0.0997  0.2557
28274W        W44168  11.786   5.809  14.417  0.0519  0.1182  0.0993
28275W        W44169  13.060   1.234   1.854  0.1127  0.0582 -0.1167
28276W        W44170  10.210   1.849   4.217 -0.0056  0.1235  0.1226
28277W        W44171   1.170   7.262   0.199 -0.1269  0.1509  0.0815
28278W        W44172  12.060   1.765  14.543 -0.0453  0.0085  0.0671
28279W        W44173   1.410  16.984  12.892  0.0842  0.0910 -0.2977
28280W        W44174   2.577  15.333   3.188  0.1375 -0.0155 -0.0991
28281W        W44175   7.275  17.293   3.997  0.0314 -0.2272 -0.1727
28282W        W44176   9.988   5.902  16.450  0.0353  0.3220 -0.0576
28283W        W44177  17.680  15.275   5.546  0.2230  0.0600  0.2433
28284W        W44178  13.891   9.179   1.016  0.0448  0.0778  0.0189
28285W        W44179  16.396   2.617   0.430  0.0935 -0.0207 -0.2767
28286W        W44180   3.744  13.402   5.582 -0.0960  0.0561 -0.0865
28287W        W44181   5.230   5.274   2.399 -0.0350 -0.2451 -0.1286
28288W        W44182   5.019   8.285   3.301 -0.3199  0.0023 -0.0981
28289W        W44183   8.513  11.309   2.626  0.1543  0.1661  0.0541
28290W        W44184   1.053   5.389  11.523  0.0774  0.0205  0.0920
28291W        W44185  11.624  15.319   2.192 -0.0777 -0.1373 -0.1534
28292W        W44186  10.617  15.311   1.297  0.0385  0.1364 -0.2594
28293W        W44187  16.017   7.278  12.813 -0.0228 -0.0759 -0.0096
28294W        W44188   0.759  10.835   6.557 -0.3936  0.0711  0.0562
28295W        W44189   4.486   2.946   0.102 -0.1427 -0.0913  0.1342
28296W        W44190  13.960   5.113  14.224  0.2628 -0.2761  0.1224
28297W        W44191   7.294   4.396  14.176 -0.2017 -0.2594  0.1659
28298W        W44192   2.147   8.056   3.127  0.0158  0.3096 -0.0039
28299W        W44193   5.060   2.169  12.453 -0.2488  0.1213 -0.0074
28300W        W44194   6.168  13.150   1.745 -0.0862  0.0286 -0.1186
28301W        W44195  14.579  12.766  15.224 -0.0319  0.2402 -0.3196
28302W        W44196   7.592  12.035   3.442  0.0484 -0.1350  0.0475
28303W        W44197   8.324   4.254   6.304 -0.0593  0.0958 -0.1002
28304W        W44198   0.029  13.003  14.447  0.1523  0.1381  0.2705
28305W        W44199  14.669  10.578   5.325 -0.1844  0.0418 -0.1428
28306W        W44200   0.393   7.859  16.401 -0.0537 -0.3298  0.2866
28307W        W44201  12.198  12.271   5.186  0.1311  0.1811 -0.1050
28308W        W44202   5.681   2.932  16.387  0.1778 -0.2335  0.0278
28309W        W44203  15.175   3.674   1.156 -0.0180 -0.0269  0.0035
28310W        W44204  16.639   3.138   3.399  0.1812 -0.0450 -0.0391
28311W        W44205   3.315   4.840  15.767 -0.0124  0.2136 -0.1011
28312W        W44206   3.188   4.141  14.103 -0.1028  0.1394 -0.0916
28313W        W44207   5.559   7.965  13.815  0.2094 -0.0421  0.0073
28314W        W44208   2.768   9.656  12.709  0.2458 -0.1588  0.0285
28315W        W44209  17.555  13.074   2.582 -0.0868  0.1284  0.2602
28316W        W44210   4.180  15.659   0.740 -0.2017 -0.0706  0.0878
28317W        W44211  16.642  10.899  15.233 -0.2087  0.2673 -0.0603
28318W        W44212  10.020   8.687  16.012  0.1446  0.4134  0.0578
28319W        W44213   2.190  14.498   5.623  0.3243 -0.0406 -0.0565
28320W        W44214   4.838  13.506   6.210  0.1387  0.0478  0.0772
28321W        W44215   5.338  13.445   5.579  0.0103  0.1314  0.1290
28322W        W44216  16.728  10.273   1.071 -0.2115  0.0033  0.0576
28323W        W44217   6.277  10.510   5.317  0.1316 -0.2642 -0.0883
28324W        W44218   2.909   6.026  15.668  0.0092  0.1948  0.3805
28325W        W44219   1.861   3.333  12.332 -0.1473  0.0347 -0.3546
28326W        W44220  13.075   4.303  11.835  0.0524  0.2375  0.4577
28327W        W44221   6.801   3.382   5.079 -0.1339 -0.0262  0.0476
28328W        W44222  12.383  15.651  13.037  0.3736 -0.0390 -0.1179
28329W        W44223   5.338   3.559   2.157  0.0600 -0.1437  0.1190
28330W        W44224   1.659   7.714  13.381 -0.2046  0.3845 -0.3552
28331W        W44225   5.070   6.068  14.217 -0.0174  0.4256  0.0069
28332W        W44226   3.139   9.802   4.208  0.0297  0.1653  0.1098
28333W        W44227   8.515   5.011   5.432 -0.1172  0.1711 -0.0699
28334W        W44228  11.144  15.214   4.976 -0.0618  0.0123  0.4254
28335W        W44229  14.975  11.001   1.780  0.1494  0.2361 -0.2027
28336W        W44230   1.981   5.659   2.912 -0.1321 -0.2021  0.0759
28337W        W44231  12.971   9.513  15.215 -0.0115  0.0623  0.1349
28338W        W44232  10.312  16.368   4.292  0.1068 -0.0447  0.1934
28339W        W44233   8.047  17.678   1.969  0.0534  0.5079  0.0916
28340W        W44234  17.268   1.767  14.476 -0.0945 -0.1037  0.1656
28341W        W44235   4.973   0.759   4.197  0.0460 -0.0603  0.0529
28342W        W44236   1.055  13.030   5.073 -0.0707 -0.3010 -0.1669
28343W        W44237   9.531   9.611   1.707  0.0843 -0.1533 -0.0491
28344W        W44238   6.340   5.976  11.541  0.0594 -0.4337  0.2489
28345W        W44239  13.889   6.675  11.516  0.0901 -0.1604 -0.3365
28346W        W44240   9.472   6.531  14.288 -0.2558  0.0631  0.1712
28347W        W44241  13.325   1.435  11.931  0.3453  0.2467  0.1603
28348W        W44242  10.635   1.049   3.162 -0.0766 -0.0668 -0.1153
28349W        W44243  14.004   6.240   1.512  0.0377 -0.0668  0.0146
28350W        W44244   0.908  11.255   3.708  0.0453 -0.0319  0.2601
28351W        W44245   5.016  16.339   5.078 -0.0078  0.0693 -0.1532
28352W        W44246  12.311  15.280   1.572 -0.0620  0.0493  0.1671
28353W        W44247  14.752   0.799   5.102  0.1691  0.0524 -0.0923
28354W        W44248   5.418  16.436   4.773  0.0422 -0.3390  0.0060
28355W        W44249  10.919   4.315   4.427  0.0798  0.2385 -0.3579
28356W        W44250  17.916  15.951  13.421 -0.2035  0.0821 -0.0896
28357W        W44251  14.869   4.655  10.713  0.1799 -0.0967 -0.1049
28358W        W44252  11.737  18.063  15.727 -0.1482  0.3671  0.0537
28359W        W44253   0.383   9.535   4.282  0.0188  0.3486 -0.1282
28360W        W44254  10.465  13.698   0.636  0.0015 -0.1006  0.3100
28361W        W44255   9.599   5.711  11.518  0.0544  0.0251  0.0502
28362W        W44256   5.309   4.921  13.000  0.1676  0.3362  0.1086
28363W        W44257  13.357   0.349  14.231  0.0488 -0.0971 -0.1121
28364W        W44258   2.577  16.856   1.099  0.2066 -0.0756 -0.2148
28365W        W44259   5.115   8.973   0.122  0.1914  0.1751  0.2906
28366W        W44260  10.188   1.357  14.323 -0.0824 -0.1134 -0.3256
28367W        W44261   4.724   0.402  15.735  0.0550  0.0250 -0.1317
28368W        W44262   6.179   2.425  14.943 -0.0720 -0.0220 -0.0190
28369W        W44263   8.221  17.625  15.340  0.0297  0.2186 -0.2704
28370W        W44264   9.094  11.442  14.218  0.0539  0.3818 -0.2226
28371W        W44265  10.078   6.531   0.653 -0.2130 -0.2768 -0.0885
28372W        W44266   7.440   8.709  13.885  0.2766 -0.2142 -0.1469
28373W        W44267   9.018   0.963  12.914  0.1314  0.3261  0.1599
28374W        W44268   9.050  13.598  14.113  0.3936 -0.3135 -0.2961
28375W        W44269   7.865   6.323  12.572 -0.1217  0.4134 -0.1947
28376W        W44270  11.925   0.052   0.044 -0.1775 -0.1728 -0.0660
28377W        W44271   7.641   7.228   4.041 -0.0663  0.0440  0.1198
28378W        W44272   0.691  14.234   5.683 -0.0460 -0.0863  0.0657
28379W        W44273  17.786  13.178  13.722 -0.0015  0.1476  0.0808
28380W        W44274  17.395   2.995   1.541 -0.0278  0.1542  0.1125
28381W        W44275   4.415  15.003   1.818  0.0313 -0.3385  0.3127
28382W        W44276  10.298  11.015   0.698 -0.0190 -0.1099  0.0880
28383W        W44277  18.193  16.992  14.219 -0.2047 -0.1641  0.0296
28384W        W44278   3.050  14.251  11.655  0.0507  0.2152  0.1958
28385W        W44279  13.159   1.438  12.611  0.1368 -0.3267  0.1403
28386W        W44280  14.854   8.728   4.233 -0.0403 -0.0793  0.0334
28387W        W44281  14.302   8.931   4.214  0.0784  0.2813  0.1594
28388W        W44282  15.148   6.610  12.696  0.0779  0.0412 -0.0467
28389W        W44283   3.289  12.688   1.776 -0.2357 -0.2270 -0.1702
28390W        W44284   2.640  15.564  12.219 -0.1211  0.1145  0.3107
28391W        W44285  13.511  14.002   2.369  0.2072  0.1382 -0.1745
28392W        W44286   7.935   8.767  14.075 -0.3408  0.0638  0.2170
28393W        W44287   1.208  12.735  15.746 -0.1772  0.1077 -0.0756
28394W        W44288  10.197  13.365   4.595 -0.2502 -0.0402 -0.0887
28395W        W44289   6.534   8.670  15.950 -0.1099 -0.0949  0.0478
28396W        W44290  14.828  15.575   1.933 -0.1370 -0.1007 -0.0592
28397W        W44291   3.695  11.495   4.859  0.3596 -0.1192 -0.2985
28398W        W44292  18.033  10.565  13.643 -0.0838  0.0100  0.0623
28399W        W44293  13.039  11.584   1.569 -0.1279  0.2501  0.1777
28400W        W44294   7.812  16.189  12.601 -0.1058  0.4088 -0.1567
28401W        W44295   0.267   7.479  10.644 -0.0083 -0.1790 -0.1529
28402W        W44296  13.802  11.974   2.853 -0.0509  0.3327  0.2490
28403W        W44297   1.021   5.821  16.362 -0.1110  0.3788 -0.1191
28404W        W44298   1.563   7.949  12.205  0.2912 -0.1868 -0.1309
28405W        W44299   3.265  13.168   2.605 -0.4513 -0.2272 -0.2823
28406W        W44300  17.259   4.888   4.693 -0.0397  0.0785  0.0535
28407W        W44301  17.593   0.184  16.410 -0.3071 -0.2400  0.3501
28408W        W44302   8.404  15.299   4.960  0.3296  0.1238 -0.0288
28409W        W44303   7.083  18.153   4.629 -0.1567  0.1459  0.4773
28410W        W44304  12.983   2.398  13.528  0.1696 -0.0554  0.0080
28411W        W44305   9.095   4.106  13.265  0.1385  0.2859  0.1989
28412W        W44306   7.639  11.143  14.452  0.2154  0.2449  0.2105
28413W        W44307  15.572   9.221   5.401 -0.1104  0.0712  0.0419
28414W        W44308   1.623   1.793  15.450 -0.0668  0.0396  0.0196
28415W        W44309  17.592   1.618   6.560 -0.1274  0.1345 -0.1202
28416W        W44310   5.784  15.397  12.839  0.0369  0.1461  0.0366
28417W        W44311  13.226   3.760   2.360  0.1263 -0.2157  0.1435
28418W        W44312   3.572  10.390   0.180 -0.2104 -0.4262 -0.1535
28419W        W44313  17.919   6.755  12.606 -0.1895 -0.1353  0.0957
28420W        W44314   9.700  10.580  12.108 -0.1653  0.0850  0.0774
28421W        W44315  15.387  10.258   3.275 -0.1926  0.3702  0.0543
28422W        W44316  13.003  16.017  11.693  0.1336 -0.0821  0.2895
28423W        W44317   6.263   4.229   6.271 -0.0120 -0.0284 -0.0420
28424W        W44318   1.833  18.074   1.741  0.1828  0.0254  0.3299
28425W        W44319  15.761   8.186   3.881 -0.0701  0.3413  0.0218
28426W        W44320   4.892  17.238  14.163 -0.0690 -0.2304  0.1598
28427W        W44321  10.311   2.598   2.304  0.0780 -0.1742  0.0040
28428W        W44322   0.743  16.451   3.335 -0.2623 -0.1948 -0.0777
28429W        W44323  10.937   6.753  13.649  0.2460 -0.2369  0.1089
28430W        W44324   7.831  10.757  10.970  0.1199 -0.1397  0.3236
28431W        W44325   6.293   1.549   2.365 -0.1604  0.0152  0.1374
28432W        W44326  16.174   8.126   5.687  0.0861 -0.3144 -0.3420
28433W        W44327  18.105  15.422  16.076  0.1213  0.2748 -0.0947
28434W        W44328   7.648   2.796   3.278  0.3027  0.1225 -0.1471
28435W        W44329  17.474   7.038   0.089  0.1601  0.1600 -0.0658
28436W        W44330   1.203  15.511  15.819  0.0729  0.0624 -0.3140
28437W        W44331   3.705   7.889  13.837 -0.0932  0.3025  0.2824
28438W        W44332   0.006  10.041   1.822  0.0552 -0.0562 -0.0314
28439W        W44333   7.819  16.368   6.339 -0.1940 -0.0295 -0.0916
28440W        W44334  12.223  15.127  16.011  0.1631 -0.2558  0.1506
28441W        W44335   6.859  10.277   4.132  0.0672  0.0990  0.1688
28442W        W44336  15.783  11.406  12.100  0.1724  0.2222 -0.1476
28443W        W44337   7.318  17.837   1.615  0.2182 -0.2432 -0.1217
28444W        W44338  14.742   4.203  10.971 -0.0142 -0.0763 -0.3533
28445W        W44339   5.121  12.632  13.920  0.2027  0.3189  0.0990
28446W        W44340   2.076  13.855   0.554  0.0066  0.0149  0.1072
28447W        W44341  11.949   3.638  13.728  0.3527  0.1839 -0.2270
28448W        W44342   7.985  11.670   3.411 -0.2784 -0.1565  0.2288
28449W        W44343   5.028   4.740   3.611  0.2031  0.1933  0.1182
28450W        W44344   1.832   4.938   0.444 -0.5128 -0.1969 -0.0134
28451W        W44345   5.141  10.091   2.843  0.2784 -0.0114 -0.2577
28452W        W44346  12.419  18.090  11.286  0.1574  0.1494  0.0683
28453W        W44347  15.077  15.608  15.866 -0.0125 -0.0861  0.0424
28454W        W44348   4.070  17.767  13.001  0.2311  0.1508  0.0037
28455W        W44349  14.107  14.536  10.955 -0.1797  0.1445  0.0416
28456W        W44350   2.893  13.126   1.513 -0.1080  0.0987 -0.1316
28457W        W44351   1.431  13.427   2.905  0.1907  0.2388 -0.0892
28458W        W44352  14.145   9.649   1.874 -0.2499 -0.1577 -0.1155
28459W        W44353   2.413   0.422   1.417 -0.0929  0.3320  0.1114
28460W        W44354  14.249   8.399   2.045  0.2976 -0.1992  0.0656
28461W        W44355   1.243  13.203   6.404  0.0449 -0.3449  0.2401
28462W        W44356   2.635   2.120  11.719 -0.0987 -0.2660 -0.2234
28463W        W44357  12.511  11.606   1.776 -0.0729  0.0567  0.1015
28464W        W44358  16.025  15.120   3.693  0.2542 -0.1823  0.2352
28465W        W44359   6.575   2.772   1.026 -0.0427 -0.0753  0.0429
28466W        W44360   4.803   5.177   2.794 -0.0283  0.0564 -0.2626
28467W        W44361   7.793  10.051   1.731  0.2585  0.1726 -0.0879
28468W        W44362   1.486  10.341   4.590  0.2279  0.1672 -0.0168
28469W        W44363  15.335  17.596  16.349  0.0932 -0.1893  0.1416
28470W        W44364   3.694   5.465  13.075 -0.0400 -0.1718 -0.4085
28471W        W44365   1.954  17.576  12.525 -0.0990  0.0938 -0.0047
28472W        W44366   3.127   8.712  12.874 -0.1150  0.0392 -0.1683
28473W        W44367  11.266   6.959  13.945 -0.0689 -0.1643 -0.0873
28474W        W44368  12.808  11.806  14.650  0.0429  0.1579  0.0740
28475W        W44369  13.854  16.412  10.515 -0.0253  0.1503 -0.1811
28476W        W44370   2.031   9.322  12.963  0.3059 -0.0226 -0.0775
28477W        W44371   2.689   4.055  14.349  0.2072 -0.0653 -0.0288
28478W        W44372  11.714  12.682  13.176  0.1839  0.4576 -0.2894
28479W        W44373   4.203   9.325  11.805  0.1991 -0.0054 -0.2686
28480W        W44374  13.820   6.026   2.646 -0.3735  0.1750  0.1658
28481W        W44375   3.569   2.900  14.878  0.2114  0.0508 -0.3015
28482W        W44376  10.895   7.293  13.641  0.0746  0.1088  0.0364
28483W        W44377   3.902   4.312   3.664  0.0703 -0.2642 -0.0647
28484W        W44378  17.860   5.840  11.506 -0.2477  0.0773 -0.1495
28485W        W44379  11.636   7.907   9.569  0.1174  0.2025 -0.2632
28486W        W44380   3.862  17.528  15.088 -0.0848  0.2238 -0.3741
28487W        W44381  13.932   7.575  12.329  0.0782 -0.1033  0.0297
28488W        W44382   9.354   2.073   3.908  0.0259  0.0248 -0.0891
28489W        W44383   4.738  12.778  16.069  0.1640 -0.0336  0.0334
28490W        W44384  11.396   8.836   1.631 -0.0920  0.0937  0.3618
28491W        W44385   7.872   3.428  11.197 -0.0712 -0.1338  0.0315
28492W        W44386   2.628  18.023   1.967 -0.2966 -0.5899  0.1012
28493W        W44387  14.370   0.958   0.338  0.2979  0.2583  0.1213
28494W        W44388   2.880   1.154  12.056  0.1111  0.2981 -0.0325
28495W        W44389   3.024  10.186   1.716  0.1678 -0.3248  0.3288
28496W        W44390  12.527  12.916  13.986 -0.0333  0.1341 -0.0288
28497W        W44391  17.690   5.773   0.186  0.0797  0.2015 -0.2622
28498W        W44392   3.653   8.322   1.689 -0.2023 -0.2782 -0.0301
28499W        W44393   9.910  12.767  14.341  0.0300 -0.1895 -0.0687
28500W        W44394  12.324   5.604   1.613  0.0536  0.1354  0.1471
28501W        W44395   4.278   2.985  13.383  0.0603 -0.0713  0.0779
28502W        W44396   1.989   1.934   6.050 -0.1698  0.1961  0.3239
28503W        W44397  13.777   8.194   1.930 -0.1429  0.2231  0.1208
28504W        W44398  10.898  12.299  11.331  0.1969  0.0599  0.0347
28505W        W44399  15.880   6.735  16.327 -0.2638  0.0561 -0.0105
28506W        W44400   7.392   2.342   4.278  0.2267 -0.1326 -0.3512
28507W        W44401   3.517   5.063   2.882 -0.3811  0.0156 -0.2898
28508W        W44402   3.681  10.213   2.572 -0.2395 -0.1306 -0.0497
28509W        W44403  16.787  16.194  11.525  0.0256 -0.0776 -0.1126
28510W        W44404  11.399  15.396  14.736 -0.0890  0.1239 -0.0344
28511W        W44405   0.190   6.108  15.726  0.2402 -0.0656  0.2458
28512W        W44406   0.927  17.015  11.860  0.0568  0.1330 -0.5656
28513W        W44407   2.667  10.505   1.622  0.1713  0.1205 -0.2132
28514W        W44408   5.022  10.220  12.553  0.2152 -0.0124  0.0447
28515W        W44409   7.678   3.362   4.527 -0.0055 -0.0544  0.1858
28516W        W44410  16.613   1.895   4.436 -0.0078  0.0899 -0.2654
28517W        W44411  15.677   0.629   5.040  0.1930 -0.3535  0.0563
28518W        W44412  15.120   2.965  16.302  0.2112 -0.0968 -0.1299
28519W        W44413   4.724   6.310  13.728  0.0431  0.2545 -0.1977
28520W        W44414  11.110  14.650   1.847  0.1785 -0.0185  0.0206
28521W        W44415   4.232   7.789   4.853 -0.1489 -0.0980 -0.1200
28522W        W44416  12.133  13.172   6.242  0.1069  0.0876 -0.2252
28523W        W44417   0.025   9.096   2.471  0.2407  0.1434 -0.1236
28524W        W44418   4.949   3.675   4.351 -0.0466  0.1207 -0.2359
28525W        W44419   5.648   1.126   0.188  0.0859 -0.5141  0.3421
28526W        W44420   3.202  13.728  11.652 -0.0882 -0.2695 -0.0466
28527W        W44421  15.011  10.257   2.496  0.3379 -0.0297 -0.1158
28528W        W44422   4.959   5.138   4.134 -0.1393 -0.0600 -0.1904
28529W        W44423  16.143   7.153   2.992 -0.2384  0.0552 -0.1015
28530W        W44424  14.987   1.746   2.438 -0.0339  0.1218  0.0809
28531W        W44425   0.174   4.733   4.433  0.0264  0.0414 -0.3231
28532W        W44426   5.037  14.265   6.114  0.1792  0.3692  0.1123
28533W        W44427  11.189   5.457  15.638  0.4381 -0.1617  0.2131
28534W        W44428   2.352   3.063  11.155  0.0285  0.1487  0.1909
28535W        W44429   3.492   6.886   2.682 -0.0572  0.1474  0.0947
28536W        W44430  12.164   7.592   4.068 -0.0083  0.2108 -0.1564
28537W        W44431   7.239  12.765   0.748 -0.1172 -0.0084  0.2847
28538W        W44432   6.740   2.970   3.140  0.2092 -0.0025  0.2095
28539W        W44433   0.154   5.284   3.575 -0.0321 -0.2023  0.2624
28540W        W44434  12.716   2.439  15.149 -0.0795 -0.1203  0.1023
28541W        W44435   5.622  15.240   1.375 -0.1643  0.3910 -0.2727
28542W        W44436  16.264   8.143   2.909  0.0747  0.2531 -0.0567
28543W        W44437   0.047   8.065   1.608 -0.0868 -0.0982 -0.4583
28544W        W44438  17.513   8.465   5.206 -0.0057  0.0129 -0.0600
28545W        W44439   5.915  14.668  14.610 -0.0377  0.1134 -0.2777
28546W        W44440   8.826   7.108  14.985  0.1815  0.2004 -0.0160
28547W        W44441  13.375  12.274   1.641 -0.0272  0.1086  0.0389
28548W        W44442  12.511   6.766  16.373 -0.0727  0.1969 -0.2128
28549W        W44443  17.029  16.820   1.173  0.1144 -0.1264 -0.0069
28550W        W44444   3.462   8.247  15.918 -0.2539  0.0112  0.2978
28551W        W44445  14.159   1.967   2.560  0.0668 -0.0010 -0.2943
28552W        W44446   4.178   0.757  12.977  0.1926  0.0053 -0.2787
28553W        W44447   9.963   0.511   4.767 -0.1053 -0.0551  0.1991
28554W        W44448   7.054   3.469  12.275 -0.0521 -0.0422  0.0867
28555W        W44449   7.314  17.551  13.865  0.0021  0.0678  0.4595
28556W        W44450  11.555  15.372   3.428  0.0762  0.4639 -0.0064
28557W        W44451   7.112  17.682  13.031 -0.0542 -0.1561 -0.1405
28558W        W44452   1.463  17.474  12.357  0.1074 -0.0695 -0.0072
28559W        W44453   4.151  14.850  13.328  0.1561 -0.1176  0.3404
28560W        W44454  18.062   8.253   5.439  0.0100 -0.1807 -0.1094
28561W        W44455  12.567   4.282   9.890 -0.0885  0.1665 -0.3421
28562W        W44456   1.417  11.864  16.240  0.1491 -0.2656  0.0441
28563W        W44457  15.742  15.009  15.507  0.1805  0.0414 -0.1631
28564W        W44458  12.819   7.781  13.414 -0.1067 -0.0943  0.1643
28565W        W44459   2.416   7.893   2.056  0.2556 -0.0306  0.2513
28566W        W44460   9.091  14.895  11.731  0.1643  0.0374 -0.2853
28567W        W44461  13.228   7.194   1.126 -0.0096  0.3113  0.0862
28568W        W44462   0.880   4.614  13.946 -0.2932  0.4397  0.1701
28569W        W44463   7.418   2.827   0.356 -0.0455 -0.0040 -0.2838
28570W        W44464   3.598  15.893   1.383  0.0123 -0.2091  0.2941
28571W        W44465   3.120   4.799   3.353  0.1908  0.0419 -0.2313
28572W        W44466   1.717  12.520   4.816 -0.3166 -0.1013  0.0526
28573W        W44467   0.610   1.462   4.382  0.1946 -0.3971  0.1775
28574W        W44468   6.691  14.663   0.447 -0.2341  0.0876  0.1380
28575W        W44469   7.194   3.148   5.283 -0.0825  0.1304 -0.1585
28576W        W44470   5.739  10.897   4.723  0.0477  0.0829  0.0724
28577W        W44471  15.968   2.276  15.358  0.1032  0.0603  0.1511
28578W        W44472   6.541  11.814   2.013  0.0388  0.0783  0.1280
28579W        W44473   3.771   9.239   2.434  0.3164  0.1227  0.0538
28580W        W44474  13.944   5.051   5.166  0.2054  0.2116  0.2562
28581W        W44475   2.023  15.790   0.257 -0.0276  0.2158 -0.1823
28582W        W44476  17.043   9.658  13.392 -0.3246  0.0632 -0.1390
28583W        W44477  15.327   5.764  15.734 -0.0666 -0.2000 -0.0894
28584W        W44478   6.249   7.360  12.961 -0.2949  0.1058 -0.2765
28585W        W44479  12.865   4.047  12.653 -0.0518  0.3112  0.1181
28586W        W44480  15.830  17.632  16.321  0.1326  0.0946 -0.3267
28587W        W44481  14.484  12.541  15.835  0.0457 -0.1800  0.3815
28588W        W44482   0.035  16.693   5.458  0.1776  0.2088  0.1930
28589W        W44483   3.615   2.816   6.174 -0.2143 -0.0486 -0.0626
28590W        W44484   0.475   1.702  14.086 -0.1211  0.1011 -0.2480
28591W        W44485   0.760   6.533  12.064  0.2234  0.3709 -0.1979
28592W        W44486  10.029   9.183  12.770  0.2360 -0.2282 -0.0271
28593W        W44487   8.306   0.890  14.209 -0.0319  0.0741  0.1466
28594W        W44488  13.405   0.855  14.267  0.2740  0.2513  0.3156
28595W        W44489  12.561   6.841  11.023  0.1533 -0.0809  0.0610
28596W        W44490  14.492   3.976   1.631  0.0126 -0.1785  0.0138
28597W        W44491  13.517  10.088   2.476  0.1310 -0.0552 -0.0629
28598W        W44492   0.904   6.408   0.626  0.3628 -0.6322  0.2100
28599W        W44493   5.184  11.736   1.664  0.0156 -0.0221  0.1198
28600W        W44494   0.596   7.978   0.385  0.1368 -0.0335 -0.3504
28601W        W44495  16.090   0.280  13.766  0.0580  0.1683  0.2019
28602W        W44496  11.370   3.069   1.363 -0.1598  0.1749 -0.0671
28603W        W44497  13.452  10.311  15.403  0.0846  0.0196 -0.2154
28604W        W44498  10.315   9.655   4.210  0.0353  0.0125 -0.0574
28605W        W44499   1.187   6.568   2.609 -0.3299  0.0800 -0.1254
28606W        W44500  17.849  10.133   1.534  0.1396 -0.0082  0.1703
28607W        W44501  12.867  11.856  14.096  0.0712  0.1446 -0.1074
28608W        W44502   1.823  14.076  14.543 -0.0809 -0.0613 -0.3226
28609W        W44503   7.376   0.170   0.725 -0.2328  0.0878  0.0114
28610W        W44504   9.371   6.417   2.909  0.0406 -0.0859  0.1250
28611W        W44505   3.235   0.403  15.642  0.1802 -0.0573 -0.3862
28612W        W44506  15.291  10.480   1.156 -0.2954 -0.2321 -0.4796
28613W        W44507   0.036   1.655  14.381 -0.2037  0.0870  0.3061
28614W        W44508   8.199   6.659   5.134  0.1177 -0.1305  0.0041
28615W        W44509  15.866   3.455   2.964  0.0788  0.0866 -0.1249
28616W        W44510  17.496  18.216  11.892  0.0084 -0.4757 -0.0012
28617W        W44511   4.372  14.244  13.949 -0.0286  0.0476 -0.1538
28618W        W44512  10.934   9.596   1.606  0.1670  0.2584 -0.3315
28619W        W44513   4.545   6.820  15.223  0.0015  0.0262 -0.1558
28620W        W44514  12.193   9.551  14.540 -0.1859 -0.0903 -0.2532
28621W        W44515   8.140  11.854   1.885  0.3658 -0.2216  0.2035
28622W        W44516  17.211   1.887   2.639 -0.2499 -0.3657 -0.1431
28623W        W44517   0.649   2.248   3.542 -0.1348 -0.1057 -0.1012
28624W        W44518   7.155  10.332  16.424  0.0141 -0.2509 -0.0461
28625W        W44519   2.723  17.421  12.111 -0.3242 -0.0807 -0.0896
28626W        W44520   0.160  17.540  14.260 -0.2573 -0.0313  0.1626
28627W        W44521  16.877  13.012  14.479 -0.0068 -0.1596  0.3538
28628W        W44522   7.025  16.677  15.376 -0.1914  0.1413  0.0703
28629W        W44523  13.902  13.496  15.049 -0.2189 -0.0433 -0.0836
28630W        W44524   3.938  14.554  15.917  0.0455 -0.1167  0.3231
28631W        W44525  10.643   3.926   0.836  0.2153  0.1540  0.1636
28632W        W44526   8.824   2.128  14.079 -0.0526  0.0103  0.0704
28633W        W44527  13.389   3.229   2.221 -0.2974  0.0713  0.0416
28634W        W44528   2.545   5.169  11.315  0.2275 -0.1601  0.0762
28635W        W44529  11.384   4.010  15.917  0.0531  0.1577 -0.1955
28636W        W44530  12.091   3.422  14.963 -0.0665  0.1247 -0.2069
28637W        W44531   8.701   5.989   3.993 -0.4549 -0.1405 -0.0531
28638W        W44532   8.388  16.029   2.735 -0.2325 -0.0344  0.1501
28639W        W44533  11.865   6.479  15.894  0.1546  0.2284  0.2348
28640W        W44534  13.908  11.559   5.493  0.2475  0.2406 -0.1606
28641W        W44535  10.987   2.374   1.686  0.1095  0.3905 -0.0850
28642W        W44536   1.380   0.457   3.006  0.0506  0.3870 -0.0079
28643W        W44537   4.336  13.093   0.898  0.0373 -0.0155 -0.2509
28644W        W44538   7.655   0.364   3.565 -0.4280  0.1157  0.1557
28645W        W44539   5.466  10.093   0.433  0.0481 -0.1241  0.2278
28646W        W44540   6.637  14.902   2.532  0.0951 -0.0512 -0.2933
28647W        W44541   2.315   7.019   5.249  0.0208 -0.1338  0.1219
28648W        W44542  13.183  11.821  13.122 -0.3654  0.3414  0.0217
28649W        W44543   2.856  12.903  12.024  0.2746 -0.2104 -0.1002
28650W        W44544   8.037   4.812   1.899  0.0435 -0.0450  0.0282
28651W        W44545   3.454   9.657   5.089  0.1163 -0.0941  0.2317
28652W        W44546   5.056   9.684   3.629 -0.2622  0.1083 -0.0424
28653W        W44547   3.498   6.212   0.880 -0.2626  0.2017 -0.0920
28654W        W44548  16.561  16.422   0.636 -0.0733  0.0482  0.2175
28655W        W44549  10.683   4.731   2.294 -0.1447 -0.0388 -0.1235
28656W        W44550   8.277   3.524   4.719  0.1791 -0.0651 -0.1737
28657W        W44551   1.918  14.276  15.055 -0.0988 -0.0508 -0.1536
28658W        W44552  12.852   4.759  10.803 -0.0780 -0.1486 -0.0415
28659W        W44553   2.412   2.859   0.721 -0.3155 -0.2987 -0.0314
28660W        W44554   4.465  14.500   1.953 -0.1968  0.2601 -0.1595
28661W        W44555  10.026   2.065  14.718 -0.0780 -0.3446  0.0732
28662W        W44556   9.986  11.580   2.098 -0.0670  0.0390  0.5155
28663W        W44557   3.172  17.645   2.817  0.2645  0.0421  0.1029
28664W        W44558  14.890   4.280  15.493 -0.1284  0.1991 -0.0457
28665W        W44559   6.460   6.169  16.164 -0.3695 -0.2772 -0.2359
28666W        W44560   2.656  17.223   5.165  0.0792 -0.2355 -0.3268
28667W        W44561   5.298   6.035   1.050 -0.1135 -0.3915 -0.2222
28668W        W44562  10.947   1.950   4.725  0.2259 -0.2273 -0.1817
28669W        W44563   0.916   0.747  15.864 -0.0804  0.1823  0.1494
28670W        W44564  16.946   8.950  11.811 -0.1267 -0.3235 -0.0163
28671W        W44565  14.161   6.507  15.156 -0.0717 -0.1976 -0.4063
28672W        W44566  15.284  12.006   4.227 -0.1829 -0.0353 -0.0677
28673W        W44567  17.649  11.678   3.612 -0.0918 -0.1853 -0.1289
28674W        W44568   1.230   9.573   2.937  0.2533  0.2830 -0.3150
28675W        W44569   9.414  15.821  11.670  0.0251 -0.3399  0.2889
28676W        W44570   4.829   9.034   0.570  0.1044 -0.1103 -0.1559
28677W        W44571   9.552  10.349   4.973  0.2633 -0.1240  0.1035
28678W        W44572   7.431  12.144   0.048 -0.3660 -0.2978  0.0618
28679W        W44573  17.315   7.503   4.059 -0.0925  0.1353  0.0871
28680W        W44574   2.266  11.723  14.646 -0.2006  0.7051  0.0581
28681W        W44575   4.045  17.566  14.051 -0.1071 -0.3103 -0.3200
28682W        W44576   4.587   7.628  16.292  0.0174 -0.1665 -0.0095
28683W        W44577   8.209   2.720  14.414  0.1381 -0.4639 -0.2317
28684W        W44578   0.791  18.139  12.863  0.2469 -0.0082 -0.0881
28685W        W44579   1.546  16.946  15.355  0.3229  0.2874  0.0680
28686W        W44580  15.008   6.256   4.210  0.3831 -0.0843  0.1793
28687W        W44581   8.332  12.046   0.428  0.4072  0.2128 -0.1937
28688W        W44582   7.992  13.857   0.468  0.0064 -0.0316 -0.0776
28689W        W44583   4.307  15.166  11.453  0.2893  0.0612  0.3107
28690W        W44584   2.351  15.531   2.356 -0.1019  0.0666 -0.1269
28691W        W44585  14.503  14.812   6.451 -0.0643 -0.2062 -0.0536
28692W        W44586  11.178   2.514   0.503  0.0501 -0.0642  0.0229
28693W        W44587   4.536   6.177  12.424 -0.1100  0.0580  0.2380
28694W        W44588   4.057   1.207  11.203 -0.3377 -0.0248 -0.0920
28695W        W44589  12.672   3.342  15.952  0.1775  0.0578 -0.0965
28696W        W44590   3.080  17.906   5.783  0.1397  0.2813  0.0458
28697W        W44591  12.144  11.857  11.570 -0.0632 -0.1442 -0.2465
28698W        W44592   5.368  15.707  12.750  0.3104  0.2532  0.0856
28699W        W44593   5.985   6.851   3.657  0.1754 -0.0559  0.0819
28700W        W44594   2.157  15.014  12.713  0.1733  0.2403 -0.0297
28701W        W44595   1.593  17.206   0.351 -0.0461  0.0464 -0.0529
28702W        W44596  15.753   3.944  12.305  0.1792  0.0921  0.0021
28703W        W44597  11.134   9.874   3.156  0.0693  0.1206 -0.0841
28704W        W44598  15.133  17.811  13.944 -0.0476  0.0452 -0.1762
28705W        W44599  14.697   4.567  15.856 -0.4573  0.3807  0.3846
28706W        W44600   4.948  13.159  13.139  0.1107  0.1099 -0.1565
28707W        W44601  11.030  10.662   4.972 -0.2351  0.0498 -0.1837
28708W        W44602   6.015   9.120   5.845  0.2776  0.0155  0.1705
28709W        W44603  16.078   4.776  12.078  0.1091 -0.3187  0.1718
28710W        W44604   1.320   1.772   3.313  0.0922  0.3980 -0.0671
28711W        W44605   9.804   9.123  15.984 -0.0069 -0.1668 -0.0585
28712W        W44606   0.861   5.320   2.773 -0.3242 -0.0542 -0.0029
28713W        W44607   1.802   1.236  11.080 -0.4436  0.1228 -0.0278
28714W        W44608   4.863   6.152  13.246 -0.0600  0.1277  0.0430
28715W        W44609   7.205  14.889   4.626  0.1052  0.1940 -0.0501
28716W        W44610  15.084   7.083  10.435  0.3469 -0.0085 -0.1563
28717W        W44611   7.950  12.950   3.071  0.1338  0.1636 -0.0826
28718W        W44612  12.370   6.920  14.880 -0.0620  0.1536 -0.1547
28719W        W44613   8.488   6.403  13.184  0.0979 -0.2206  0.1379
28720W        W44614   4.457  13.363   2.436 -0.2237  0.0999 -0.1413
28721W        W44615   0.887   8.025  14.935 -0.0716  0.1804  0.0524
28722W        W44616  14.598  15.060   3.333 -0.2139  0.0070 -0.0558
28723W        W44617  12.597   9.466  11.428 -0.1443 -0.1365 -0.0043
28724W        W44618   8.951   0.933   0.153  0.2438  0.0854 -0.0897
28725W        W44619  17.702   5.679   2.381  0.1990  0.1553 -0.0165
28726W        W44620  11.099  10.096   1.847 -0.2245 -0.0124  0.1399
28727W        W44621   3.871  14.032  16.043 -0.2274  0.1702 -0.0425
28728W        W44622  15.698   4.060   0.016 -0.3236  0.0775 -0.0592
28729W        W44623   8.689   6.748   5.838  0.0427 -0.2570  0.2697
28730W        W44624   5.397  15.662   1.396  0.3943 -0.0975  0.3542
28731W        W44625  10.590   3.399  10.965  0.1615  0.0530 -0.0202
28732W        W44626  10.586   2.706   0.472 -0.0785  0.2941 -0.1354
28733W        W44627  17.577   7.214  11.886 -0.0676 -0.0088  0.2157
28734W        W44628  10.165  15.198  13.356 -0.3771  0.0707  0.2584
28735W        W44629   7.792  10.417  12.701  0.3729 -0.3073  0.3205
28736W        W44630   7.407  14.391  13.352 -0.4287 -0.2348  0.2056
28737W        W44631   3.639  14.727   4.303 -0.0012  0.0782 -0.0047
28738W        W44632   5.508  11.275   1.029  0.3063  0.1918 -0.2352
28739W        W44633   4.770   5.966  15.198  0.0939  0.1087  0.2409
28740W        W44634   8.400   0.411  13.927 -0.1480 -0.1085  0.2352
28741W        W44635  13.072  12.822   4.711 -0.1431 -0.1599  0.1801
28742W        W44636   4.800  12.406   3.739 -0.2295  0.0550 -0.2454
28743W        W44637   4.197   1.611   1.987 -0.0430 -0.0908  0.0622
28744W        W44638  16.282  11.612  14.576 -0.2956 -0.1529 -0.1254
28745W        W44639  10.534  14.721  13.662 -0.0627 -0.0928 -0.2916
28746W        W44640   1.515  13.552  14.406  0.0841  0.0553 -0.1015
28747W        W44641   2.325  12.847   0.938  0.0491  0.1395  0.0705
28748W        W44642   0.503  16.047   3.438 -0.0585  0.0991 -0.0648
28749W        W44643  15.592  12.760  11.346 -0.2274 -0.2671  0.1708
28750W        W44644  17.864   8.302   4.335  0.1524 -0.0411 -0.0118
28751W        W44645   9.671   4.181  12.582  0.0513  0.0065 -0.2827
28752W        W44646  15.858  14.035   0.646 -0.1083 -0.0531 -0.3418
28753W        W44647  10.933   4.482   0.717 -0.1352  0.2912  0.4062
28754W        W44648   7.449  16.159  14.317  0.2379 -0.0510  0.2907
28755W        W44649  18.150   4.620  11.366 -0.0271 -0.0214 -0.1925
28756W        W44650   0.736   8.520   2.779  0.1233 -0.0083 -0.0792
28757W        W44651   3.151   2.680  12.719  0.1432 -0.0804  0.2411
28758W        W44652   4.201  16.446  16.111  0.0079  0.0764  0.0405
28759W        W44653  13.407  13.944   3.686  0.1655 -0.3183  0.0183
28760W        W44654   9.192  13.863   2.449 -0.2204  0.1398 -0.0912
28761W        W44655   1.400   3.382   2.832 -0.0046 -0.2537  0.1151
28762W        W44656   1.194   4.757   1.421 -0.0084 -0.2026 -0.0252
28763W        W44657  13.574  10.449   0.535  0.3533  0.1128  0.0234
28764W        W44658   8.659   2.615  14.266  0.0275  0.2831 -0.1069
28765W        W44659  10.190   5.976  13.157  0.0209  0.1742  0.0080
28766W        W44660   7.104   6.099   4.550 -0.0321 -0.0315  0.0130
28767W        W44661   3.737   2.742   2.840 -0.0392 -0.1328 -0.1424
28768W        W44662  10.026   3.811   4.750 -0.1084  0.1452 -0.1113
28769W        W44663  17.475  15.027   3.355 -0.0746 -0.3703 -0.2490
28770W        W44664   7.843   0.987  11.045  0.1292  0.0787 -0.1850
28771W        W44665   5.839  10.452   2.791 -0.0834 -0.0000  0.3457
28772W        W44666   1.368   4.420  16.456 -0.1277 -0.2490  0.1829
28773W        W44667   6.561  11.983   3.120 -0.0467  0.1793 -0.2182
28774W        W44668  17.741  17.090   4.168  0.0265  0.1773 -0.0365
28775W        W44669  14.004  16.053  14.732 -0.2341 -0.1131 -0.0787
28776W        W44670   7.736   4.665   0.599  0.2935 -0.3181  0.1584
28777W        W44671   5.813   4.936   5.557 -0.2520 -0.0555  0.0929
28778W        W44672  14.821  15.264   2.517 -0.0274  0.0870  0.4356
28779W        W44673  13.413  10.102  13.854  0.2278  0.1109 -0.1624
28780W        W44674   2.476  14.162   1.460 -0.1626  0.0156  0.1906
28781W        W44675   0.693  13.364  15.806  0.1567 -0.2041 -0.0327
28782W        W44676  16.975  17.853   4.599 -0.0249 -0.0272 -0.0254
28783W        W44677  13.828   2.502  11.703 -0.0417  0.0490 -0.0819
28784W        W44678  16.949   8.257   1.501 -0.0092  0.0042 -0.2736
28785W        W44679   9.111   8.653   4.802  0.3798  0.0022  0.3072
28786W        W44680   4.955  13.807   0.162  0.0036  0.2577  0.2807
28787W        W44681   8.176  18.059  15.672  0.3260 -0.4080  0.2132
28788W        W44682   6.332  16.787  12.453 -0.0952  0.4630  0.3906
28789W        W44683   2.529  14.184   2.678  0.2433  0.1045 -0.2485
28790W        W44684   3.895   9.184   2.923  0.1422  0.3144  0.4648
28791W        W44685   2.481  13.114   5.350 -0.1164  0.2915 -0.2860
28792W        W44686  12.751  10.284  13.033 -0.3104  0.0208 -0.1649
28793W        W44687   2.244   9.926   2.958  0.2680  0.0533 -0.0481
28794W        W44688   7.588  17.887   4.459  0.0023 -0.2260 -0.2050
28795W        W44689  14.947   1.133  13.954 -0.2517  0.0322  0.1616
28796W        W44690   3.725  16.864  13.380  0.0329 -0.1062 -0.0261
28797W        W44691  14.591  10.113   5.991 -0.1080  0.0430 -0.1509
28798W        W44692  17.245  17.250   2.149  0.0246  0.1585  0.1012
28799W        W44693   4.266  14.088   3.817 -0.1759 -0.1822  0.1761
28800W        W44694   4.770   7.188   1.699  0.4354 -0.0216 -0.2058
28801W        W44695  16.389   7.678  16.338 -0.0662 -0.2903 -0.1149
28802W        W44696  13.883   4.052   4.438  0.0479 -0.1718 -0.1426
28803W        W44697   0.719  12.596   5.242  0.0502 -0.1013  0.2511
28804W        W44698   9.473  11.848   5.027  0.1931  0.0756 -0.0307
28805W        W44699   0.416  10.355  15.720  0.0879  0.0707  0.1534
28806W        W44700   2.412   8.543   2.966 -0.1416  0.0598  0.1543
28807W        W44701   5.072  11.598   4.341  0.0323  0.0719 -0.0759
28808W        W44702   5.273  14.947   2.229 -0.1206 -0.1972  0.2026
28809W        W44703   6.654   0.168   4.632  0.0642 -0.1781  0.1586
28810W        W44704   5.663   1.423  16.157  0.2438  0.2825 -0.0034
28811W        W44705   8.377  11.217  16.004  0.0163 -0.1525  0.0166
28812W        W44706   7.803  11.063  13.418 -0.0027  0.1380 -0.0394
28813W        W44707   8.687   5.928  11.822 -0.2722  0.0491 -0.1456
28814W        W44708   4.117  12.931  15.754 -0.1072  0.2430  0.1696
28815W        W44709   1.197   3.841   4.303  0.1711 -0.1021  0.0737
28816W        W44710  17.709   9.550  12.298 -0.1001  0.1177  0.0689
28817W        W44711   7.162   2.839  14.404  0.0841  0.0824  0.0776
28818W        W44712   5.925   3.567  11.048 -0.2272 -0.1655 -0.1331
28819W        W44713  10.101  15.938   4.821  0.0635  0.1413 -0.0624
28820W        W44714   5.658   9.735   4.091 -0.1991  0.0631 -0.1067
28821W        W44715  10.541   1.350   1.189 -0.1017  0.0047  0.2364
28822W        W44716   9.457  12.414  15.533 -0.1060 -0.2871  0.2108
28823W        W44717   8.483   7.889  16.014  0.0924 -0.2970 -0.0144
28824W        W44718   2.687  13.753   0.982 -0.3063 -0.0690 -0.0223
28825W        W44719  14.183   1.220   5.575  0.5005 -0.1935  0.0885
28826W        W44720   2.198  11.610   2.089  0.1414  0.0604 -0.2588
28827W        W44721  13.669  11.723   4.112  0.0074  0.1241  0.0107
28828W        W44722   8.081   7.236  15.395  0.3956  0.1405 -0.0192
28829W        W44723   6.647   7.396   5.210 -0.1045 -0.3486 -0.1827
28830W        W44724  14.253  12.964  12.146 -0.3182  0.2084  0.0205
28831W        W44725  13.975   7.248   1.806 -0.1032  0.0787  0.0349
28832W        W44726  14.230  16.444   0.976 -0.1137  0.4631 -0.0595
28833W        W44727   9.739   4.643   2.632 -0.1158  0.2614  0.1365
28834W        W44728   2.982  17.454  14.267 -0.2594 -0.2400 -0.0408
28835W        W44729  16.394   2.045   5.226 -0.1044 -0.1403 -0.1393
28836W        W44730   5.610   0.677  13.317 -0.1734 -0.0478  0.0746
28837W        W44731  12.969  16.357  15.250  0.0495 -0.2166 -0.1439
28838W        W44732   0.734   9.481  15.941  0.0320  0.2367  0.0960
28839W        W44733   8.602  15.431  12.515  0.0073 -0.0223  0.0659
28840W        W44734  17.062   4.114   5.250 -0.2378 -0.1168 -0.0962
28841W        W44735  16.355   1.124  15.635 -0.1970 -0.2342 -0.0407
28842W        W44736  16.459  14.403   1.249  0.4338  0.0355  0.0571
28843W        W44737   2.249  14.568   2.940  0.0476  0.1899 -0.1027
28844W        W44738  14.437   1.232   1.612 -0.2842  0.1230  0.1310
28845W        W44739   2.707  12.274  11.622 -0.0057 -0.0061  0.4674
28846W        W44740   1.122  16.585  13.147 -0.0049  0.5128 -0.2789
28847W        W44741   8.312   7.948  11.093  0.4921 -0.1841  0.1576
28848W        W44742  10.383  13.947  12.614 -0.1295  0.5366  0.2649
28849W        W44743   7.063  15.764   3.368 -0.2267  0.0210 -0.0113
28850W        W44744   0.303  17.721   1.750  0.3481  0.0298 -0.2889
28851W        W44745  12.734  14.110  15.005  0.0629 -0.0907 -0.1745
28852W        W44746  18.129   8.668   0.458  0.0113  0.0338 -0.0587
28853W        W44747   1.601   6.108  15.329  0.2506 -0.1644  0.0297
28854W        W44748  12.114   3.661  11.496  0.0252  0.1668  0.1208
28855W        W44749   5.355  14.940   2.956 -0.0192  0.1272 -0.3086
28856W        W44750   0.787   7.545   0.564  0.0895 -0.2105  0.0410
28857W        W44751   6.984  11.283  12.373  0.0223 -0.2290  0.2885
28858W        W44752   4.847   1.844  13.291  0.0313 -0.0675 -0.1002
28859W        W44753  16.376   9.229   4.713  0.1065  0.0634  0.1114
28860W        W44754   0.186  10.787   5.069 -0.2731  0.2301  0.0972
28861W        W44755  16.430   3.512   6.433 -0.1061 -0.0913 -0.2505
28862W        W44756  12.648   0.030  15.410 -0.0547 -0.0166  0.0819
28863W        W44757   7.221   8.186  13.860  0.1504 -0.1265  0.2811
28864W        W44758  13.684  16.867   5.920  0.1821  0.0303  0.1385
28865W        W44759   4.209   2.334   2.221 -0.3096 -0.0234 -0.2361
28866W        W44760   3.181  10.982  12.908 -0.1947  0.3457  0.2197
28867W        W44761   1.360  13.315  15.732  0.2417  0.3009 -0.4319
28868W        W44762   0.301  14.016   3.250 -0.0145 -0.1240 -0.0192
28869W        W44763  15.332   0.063   1.441 -0.4026  0.2066 -0.0341
28870W        W44764  13.205  11.691   4.008  0.2274 -0.1387 -0.0382
28871W        W44765   6.662   9.130   0.101 -0.0067  0.1930  0.0408
28872W        W44766   2.402   9.646  13.341  0.2544 -0.4550 -0.0162
28873W        W44767   3.423   3.148   1.816  0.1140 -0.2935 -0.0053
28874W        W44768   5.978  15.816  11.081 -0.0062  0.1533  0.1105
28875W        W44769  13.797   7.109  11.094 -0.1142  0.0414 -0.1931
28876W        W44770  15.496   0.362   0.086 -0.3182 -0.2227 -0.0213
28877W        W44771   9.692   2.608   0.112 -0.0356  0.2351 -0.1826
28878W        W44772  17.072   8.282  15.602  0.0884 -0.0639  0.0840
28879W        W44773  15.680   3.543   1.953 -0.3002  0.1552  0.0782
28880W        W44774  10.366   1.924  13.769  0.2481  0.4004 -0.0376
28881W        W44775  18.141  13.691   0.410 -0.0121 -0.0117  0.1128
28882W        W44776  15.128   6.636   2.796 -0.0561 -0.0150 -0.1469
28883W        W44777  15.101   8.565   4.627  0.0269  0.2315 -0.1951
28884W        W44778  17.588  14.467   4.412  0.1597 -0.0811 -0.1139
28885W        W44779   6.899  18.158   1.666 -0.1793  0.1481 -0.0465
28886W        W44780  14.536   0.718  16.205  0.0341  0.2795 -0.1865
28887W        W44781   0.996  14.757   3.438 -0.1499  0.1963 -0.1206
28888W        W44782   1.272  18.093  12.997 -0.3604  0.1580 -0.2918
28889W        W44783   6.454   0.415  16.280  0.0750  0.4502 -0.1746
28890W        W44784   8.236  11.612   2.947 -0.2847  0.1492 -0.2328
28891W        W44785   2.638   4.514   5.352 -0.0234 -0.3958  0.2097
28892W        W44786   4.677   3.094   1.646  0.1116  0.1217 -0.2305
28893W        W44787  17.108   1.833  16.179 -0.1941  0.2407  0.1172
28894W        W44788  14.800  10.164   5.538 -0.2777 -0.2028  0.2646
28895W        W44789  12.146   2.349   5.792  0.1714  0.0297  0.2212
28896W        W44790   3.711  15.700  13.595  0.3434 -0.2826  0.0851
28897W        W44791   0.209   5.268  13.194 -0.0006  0.4519 -0.0513
28898W        W44792   8.928   5.060  12.355  0.2908 -0.0554  0.1056
28899W        W44793   8.931  16.648   1.703  0.2156 -0.0542  0.1700
28900W        W44794   5.565   9.948   2.636  0.2248 -0.0011 -0.0110
28901W        W44795   4.787  17.726  11.341 -0.0295 -0.0395  0.0411
28902W        W44796  16.279   4.687  15.928 -0.3656  0.0944 -0.1449
28903W        W44797   3.531  17.384   5.174 -0.1956  0.2024  0.0403
28904W        W44798   1.467  15.815   0.710 -0.0481 -0.0851 -0.2198
28905W        W44799   1.041   1.584  12.920  0.0778  0.0958 -0.1091
28906W        W44800   1.099  16.075  11.995 -0.2084  0.2839  0.5750
28907W        W44801  14.092   0.276  15.508 -0.0575 -0.1167 -0.2212
28908W        W44802   2.680   8.497  15.154 -0.2422  0.0665 -0.0317
28909W        W44803  17.709   3.653   4.631 -0.2737  0.0125 -0.0904
28910W        W44804  13.321  12.278  11.672  0.1922 -0.1078 -0.0965
28911W        W44805   3.033   7.396   2.939 -0.2786  0.1496 -0.3114
28912W        W44806   3.185   6.384   5.371 -0.1674 -0.0419 -0.2145
28913W        W44807   9.041  12.916   1.226 -0.0703  0.2685  0.4051
28914W        W44808   4.973   1.279   5.370  0.2375 -0.0519  0.1748
28915W        W44809  11.630  17.231   2.362 -0.1181  0.0836  0.0364
28916W        W44810  17.799   6.044  12.054  0.3876 -0.0597 -0.1129
28917W        W44811  11.971   0.118   5.421  0.0626  0.0752 -0.1094
28918W        W44812   2.077  14.876   5.141  0.1135 -0.0389  0.2131
28919W        W44813  17.934   9.696   0.116 -0.0321 -0.1372 -0.2059
28920W        W44814   0.270  12.598  13.478 -0.0365 -0.0791 -0.0854
28921W        W44815   7.753   8.763   0.677 -0.1067  0.3319  0.0047
28922W        W44816  16.747   5.396   3.001 -0.2174  0.1838  0.0879
28923W        W44817   1.982   0.014   3.564  0.0464 -0.4938  0.0578
28924W        W44818   2.539   4.507  14.437  0.0197 -0.2214  0.0924
28925W        W44819   2.751   5.199  15.150 -0.1062  0.2792 -0.0679
28926W        W44820  12.550   7.365  14.782 -0.0200 -0.0286  0.0444
28927W        W44821  16.368   6.320   3.067 -0.1695  0.0429  0.1296
28928W        W44822  14.859   4.962  14.156  0.1960  0.2006 -0.1470
28929W        W44823  11.924   8.855   0.632  0.2669 -0.1823 -0.0605
28930W        W44824  17.618  13.894   1.047  0.1342 -0.1271  0.0754
28931W        W44825   1.790  14.342   2.920  0.0200  0.0557 -0.0658
28932W        W44826   7.172  16.965   2.732 -0.0794  0.2646  0.0594
28933W        W44827  15.911   1.311  15.754 -0.3156  0.0771 -0.0640
28934W        W44828  10.903  16.458   1.666  0.1531  0.3838  0.0889
28935W        W44829  11.478   0.867   0.315 -0.2712 -0.0275 -0.1275
28936W        W44830  17.847   3.849   3.553  0.0145 -0.2566 -0.0548
28937W        W44831   9.396  17.253   1.444 -0.2165  0.0272 -0.1497
28938W        W44832   7.182   0.806  10.018  0.0547 -0.1993  0.1538
28939W        W44833  10.310   2.307  14.110  0.0420  0.2586  0.0529
28940W        W44834   7.079   8.294  14.794 -0.0851  0.1468  0.1483
28941W        W44835  16.919   8.570  12.951 -0.1443  0.0364 -0.0557
28942W        W44836  15.647   0.547   0.507  0.0813 -0.0538 -0.2792
28943W        W44837   0.607  15.569  12.323 -0.1015 -0.0830 -0.3380
28944W        W44838   9.730  11.356  15.362  0.0387 -0.3174 -0.0501
28945W        W44839   1.132  14.633   4.869 -0.0917 -0.2794  0.0418
28946W        W44840  16.400  14.135   4.393 -0.1274 -0.0574  0.1116
28947W        W44841   8.409   9.490  12.401  0.0325  0.2137 -0.0186
28948W        W44842  12.960   1.556   2.906  0.0088 -0.0921 -0.1271
28949W        W44843   8.601   5.564   4.678 -0.0552  0.1876  0.3672
28950W        W44844  17.687  12.851   3.040 -0.1034  0.0547 -0.2199
28951W        W44845   9.280  16.852   3.651  0.1691 -0.0937  0.1778
28952W        W44846  13.267   7.535  12.037  0.3105  0.2645 -0.1427
28953W        W44847  13.868  11.234  15.870 -0.0124 -0.2988 -0.3603
28954W        W44848   3.944   4.575   4.991  0.0223 -0.0378 -0.1773
28955W        W44849  17.245   7.676  13.327  0.0624  0.3910  0.5336
28956W        W44850  15.537  13.207   4.452 -0.0114  0.1268  0.0198
28957W        W44851   8.083   6.222   1.230  0.4178 -0.0692  0.3908
28958W        W44852   2.105  17.273   0.168  0.2429 -0.2014 -0.1498
28959W        W44853   9.767   3.037   6.056 -0.3738 -0.2963 -0.0838
28960W        W44854   7.174   4.659   0.651 -0.0939 -0.0272  0.0001
28961W        W44855  17.665  17.176   1.211  0.1968  0.3519  0.1910
28962W        W44856   2.553   8.597   0.031 -0.3644 -0.0316  0.1944
28963W        W44857   2.289  18.170   3.877 -0.1888 -0.1022 -0.2015
28964W        W44858   8.557  10.691  14.568  0.0383 -0.1871  0.3453
28965W        W44859   5.259  18.048  12.919  0.2974  0.3022 -0.1629
28966W        W44860   7.590   1.611   0.970  0.0251 -0.1993 -0.3009
28967W        W44861   6.082  17.948  14.595 -0.0176 -0.2368 -0.2153
28968W        W44862  10.766  11.835  13.981 -0.0983 -0.2076  0.6162
28969W        W44863  17.832  17.329   2.171  0.2077  0.0620  0.0967
28970W        W44864   0.794   9.696   6.633  0.2018  0.1180  0.0685
28971W        W44865  12.515  14.149   3.115 -0.1661 -0.1572 -0.0057
28972W        W44866  12.916   5.432   2.357  0.0841 -0.2275 -0.2586
28973W        W44867   0.956   1.236  16.115 -0.1001  0.2111 -0.0492
28974W        W44868   3.988   7.976   2.198  0.1866 -0.0136  0.1327
28975W        W44869   9.639  12.983   1.808 -0.2094  0.2666 -0.1213
28976W        W44870   5.530   3.137   3.082  0.1105 -0.0531 -0.0618
28977W        W44871  10.416   4.482   4.438  0.0951 -0.0488  0.1996
28978W        W44872  12.936   2.168  12.998  0.1403  0.1667 -0.0722
28979W        W44873   0.345   7.707   4.682  0.1941 -0.0079 -0.0520
28980W        W44874  14.978   8.371   0.570  0.2910 -0.2103  0.0778
28981W        W44875  13.582   6.086   1.321  0.1760 -0.0680  0.2436
28982W        W44876   7.414   9.627  11.429 -0.4311  0.2342  0.1755
28983W        W44877  10.481   6.489   3.815  0.3073  0.0609  0.1831
28984W        W44878   6.845   9.135   0.583 -0.0106  0.0063  0.2141
28985W        W44879   4.977   7.054  10.641 -0.3768 -0.2999  0.2501
28986W        W44880  10.910   9.546  15.564  0.1227  0.0206  0.0199
28987W        W44881  13.823   6.102  11.345  0.1103  0.0158 -0.3166
28988W        W44882   0.839  13.800  11.502  0.0807 -0.0995 -0.1347
28989W        W44883   5.353   3.505  14.645  0.1934 -0.2305 -0.0644
28990W        W44884   8.792   7.184   6.168  0.1797 -0.2512  0.1017
28991W        W44885  17.456   0.840   4.930  0.0126 -0.0549  0.3593
28992W        W44886   5.257   6.416  13.149 -0.3538  0.4803  0.4313
28993W        W44887  12.173   8.667   2.619  0.1013  0.1712  0.2702
28994W        W44888  15.364  14.608  14.833 -0.0738  0.3454  0.2387
28995W        W44889  13.341   4.657  11.580  0.1364 -0.1142  0.1983
28996W        W44890  10.771   1.409   5.541  0.0449 -0.3511  0.1329
28997W        W44891  15.996   4.340   2.607 -0.0110  0.0693  0.1207
28998W        W44892  14.292  14.238   3.083 -0.3356  0.2379 -0.0031
28999W        W44893   9.076   0.819   2.383 -0.1133  0.3061 -0.0202
29000W        W44894   0.616   6.647   4.638 -0.2318  0.3345 -0.1636
29001W        W44895  12.662   0.983   1.091  0.1067  0.0241 -0.0296
29002W        W44896   1.717   4.804  13.405  0.1125 -0.1990  0.0236
29003W        W44897   8.084  17.215   5.105 -0.2264  0.1677  0.3561
29004W        W44898   5.382   5.171  15.392  0.1207 -0.2992  0.2537
29005W        W44899  12.202  13.011  12.203  0.0712  0.0942 -0.2990
29006W        W44900  10.512   2.643   5.321  0.2716  0.0636  0.1739
29007W        W44901   7.790   7.363  11.787 -0.0051  0.0537 -0.4082
29008W        W44902   6.163  10.765   4.494 -0.3957  0.1828  0.1120
29009W        W44903   9.230   9.065   3.604 -0.1222  0.0972 -0.0564
29010W        W44904   0.804  10.024  14.736 -0.0978  0.0769 -0.0902
29011W        W44905  11.736   9.558  10.635  0.0234 -0.1069  0.2473
29012W        W44906  14.546   0.484   4.708  0.0887 -0.1055 -0.0863
29013W        W44907  17.443   5.942  14.171  0.5172  0.2186  0.0055
29014W        W44908  16.175  14.943  15.390  0.1783 -0.1334 -0.2107
29015W        W44909   6.065  13.642  15.125 -0.0833  0.0037 -0.2036
29016W        W44910  13.969   3.841   4.998  0.3075  0.4299 -0.4381
29017W        W44911  17.710   5.986   5.452  0.0020  0.3683  0.0281
29018W        W44912   6.050  16.634   2.603  0.0701 -0.1801  0.3522
29019W        W44913   9.200  16.033  14.705 -0.3057 -0.0313 -0.1565
29020W        W44914  17.052   6.783  15.170  0.1964  0.0392 -0.1864
29021W        W44915  15.163  11.357   4.960 -0.0778 -0.1350  0.5904
29022W        W44916  15.545   5.807  13.352  0.1166  0.2405  0.0161
29023W        W44917   4.315   5.516   2.566  0.1916 -0.2627 -0.1355
29024W        W44918  12.958   2.418  14.112 -0.2864 -0.1364 -0.1468
29025W        W44919   0.171   6.713  13.361 -0.1516  0.0929  0.0448
29026W        W44920   9.249   4.788  11.077 -0.1189 -0.0511  0.1843
29027W        W44921  13.132  16.163  12.607 -0.0689  0.2415  0.4347
29028W        W44922   5.002   9.866   1.240 -0.3743 -0.0956 -0.1244
29029W        W44923  14.695  15.598   5.146 -0.1732 -0.2403  0.0772
29030W        W44924  16.049  15.720   1.131 -0.1146  0.3481 -0.0764
29031W        W44925  17.616   6.038   3.725  0.3859  0.0194  0.3073
29032W        W44926  12.283  13.154   4.354  0.0640  0.0840  0.1936
29033W        W44927  11.857   8.425  12.110 -0.2812  0.2642 -0.1402
29034W        W44928  13.642   8.173   5.003  0.0740 -0.0460  0.2147
29035W        W44929  14.454  11.771   4.658  0.0969 -0.0218  0.1457
29036W        W44930   0.342   1.627   4.846  0.1675  0.4740 -0.0407
29037W        W44931   5.957  11.389   5.308 -0.0881 -0.1109 -0.1461
29038W        W44932   8.847   5.666   2.801 -0.3242 -0.0224  0.0611
29039W        W44933   4.955   9.126  14.105 -0.1514  0.2348 -0.3075
29040W        W44934   8.870   8.725   3.459 -0.1663 -0.2009 -0.2223
29041W        W44935  10.365  17.360   1.429 -0.3087 -0.0166 -0.0315
29042W        W44936   6.095   7.781   4.792 -0.0023  0.1833 -0.1085
29043W        W44937  13.386   1.196  12.944  0.1499  0.1872 -0.1156
29044W        W44938   8.316   8.742  15.746 -0.1613  0.0690  0.2746
29045W        W44939  16.200  11.184   4.068  0.0627 -0.2809  0.0092
29046W        W44940   4.289  17.081  12.368  0.0914  0.0611 -0.2689
29047W        W44941   9.576  13.722   0.204 -0.1377  0.1701 -0.4130
29048W        W44942   2.702  10.671   2.135  0.0261  0.1551 -0.1654
29049W        W44943  10.094   5.689  13.550  0.1063  0.2857 -0.1736
29050W        W44944   1.059   8.524  13.488  0.2011  0.4501  0.0424
29051W        W44945   4.743  16.280  14.128 -0.1251  0.1350  0.0912
29052W        W44946   7.493  10.354  11.831  0.4274  0.0757 -0.3693
29053W        W44947  14.258  16.815   1.827  0.2240 -0.0489 -0.1968
29054W        W44948   2.606  17.368   0.855  0.1520 -0.0699  0.1645
29055W        W44949  17.063  10.763  13.001 -0.3369  0.0966 -0.2198
29056W        W44950  13.866   6.534  10.976  0.2561  0.1627  0.1383
29057W        W44951   2.825   8.462  14.674 -0.1192 -0.3900 -0.1955
29058W        W44952  16.261   7.426   4.251 -0.1741  0.3028 -0.1570
29059W        W44953   0.791   2.115   2.713 -0.0732  0.0550 -0.3855
29060W        W44954  11.300  16.335   0.463  0.0859  0.3046  0.2373
29061W        W44955   6.760   8.561  15.147  0.4016  0.4128  0.1976
29062W        W44956   4.672   4.841   2.014 -0.2047 -0.3850 -0.0451
29063W        W44957  15.618   5.641   2.530 -0.0287 -0.0564 -0.0952
29064W        W44958  15.701  13.226   0.841 -0.1618  0.0525  0.1500
29065W        W44959   8.872   0.228   0.944  0.3049 -0.0467  0.1312
29066W        W44960  13.821   9.300   2.031 -0.1128  0.3128  0.1983
29067W        W44961  14.468  15.618  16.061 -0.1232 -0.0122  0.1108
29068W        W44962  16.571  16.602  13.587 -0.0731 -0.1996 -0.0647
29069W        W44963  15.321   1.523  12.319 -0.1278  0.0237 -0.3054
29070W        W44964   0.454   3.416   0.888  0.0580  0.1554 -0.2106
29071W        W44965   4.539   8.070   3.439  0.0832  0.4006 -0.2557
29072W        W44966  10.892   5.616   2.475  0.2050  0.1737 -0.2024
29073W        W44967  16.283  12.043  13.830  0.3048 -0.1154  0.0031
29074W        W44968  17.397  10.890  12.600  0.3214  0.0412 -0.0965
29075W        W44969   7.133   9.215   2.499  0.0255 -0.0898  0.1819
29076W        W44970  13.261   3.398   4.870 -0.0073 -0.4262 -0.2770
29077W        W44971  11.598  15.064  15.648 -0.1643 -0.3294  0.2759
29078W        W44972   2.998  16.191   0.194  0.1740  0.1913  0.0436
29079W        W44973  10.701   9.391   1.160  0.0983  0.0813  0.0061
29080W        W44974   3.277  17.415  15.150  0.1215  0.2480  0.1554
29081W        W44975   0.815   5.118  14.881 -0.0770  0.1353  0.1230
29082W        W44976   2.237   5.776  15.943 -0.3474  0.0259  0.0803
29083W        W44977   4.870  17.828  13.716  0.0299  0.1692  0.1314
29084W        W44978   1.237  15.595   1.119 -0.4349 -0.3056  0.4455
29085W        W44979   4.318   5.166   2.897 -0.1412  0.1081 -0.1399
29086W        W44980   3.697   6.395  16.166  0.1844 -0.1532  0.0280
29087W        W44981   1.955   4.607   5.489  0.1761  0.1568 -0.2774
29088W        W44982   9.982   0.171   2.388 -0.1189  0.2663 -0.1235
29089W        W44983  13.703  13.653   2.897  0.1984  0.1998 -0.3316
29090W        W44984  16.518   5.097   2.100  0.1151 -0.2703  0.0619
29091W        W44985   1.161   8.504   0.431 -0.2347  0.2488 -0.1501
29092W        W44986  16.632   6.890  15.724  0.3256 -0.0016 -0.0194
29093W        W44987  12.841   8.071   3.339  0.2169  0.2361 -0.1282
29094W        W44988  15.410   5.791   1.665  0.1856 -0.1903  0.1272
29095W        W44989   5.193   0.773   6.025 -0.1154 -0.2520 -0.2480
29096W        W44990  13.252   7.159  16.411 -0.0763  0.1024  0.4034
29097W        W44991   6.127  15.320   4.447 -0.0833 -0.2331 -0.2113
29098W        W44992   6.032   5.342   1.219 -0.0478 -0.0329 -0.0919
29099W        W44993  11.781   3.152  13.531 -0.1009 -0.1423  0.1882
29100W        W44994  16.650   4.208  10.674 -0.1177  0.3357  0.1913
29101W        W44995  14.169  13.296   2.657 -0.0108 -0.1793  0.2073
29102W        W44996   3.177   9.997  15.743 -0.2717 -0.1311 -0.1452
29103W        W44997   4.691   4.287  16.111  0.0863 -0.0905 -0.0509
29104W        W44998   7.060  12.940  14.924  0.1523 -0.2571 -0.3126
29105W        W44999  17.995  16.589  15.365  0.3158 -0.2358 -0.1952
29106W        W45000  11.044  10.976  16.026  0.3123  0.0380 -0.0183
29107W        W45001   4.559   1.666   5.135 -0.0435 -0.0013  0.3477
29108W        W45002  16.677   5.860   4.254  0.1574  0.0897  0.3083
29109W        W45003  11.979   5.615  13.207 -0.2055  0.0866  0.3456
29110W        W45004   4.878  16.506  15.666  0.2796  0.0388 -0.5247
29111W        W45005  11.251   4.127   0.957  0.0118  0.1077  0.2672
29112W        W45006   3.020  17.077  15.591  0.1596 -0.3628  0.0929
29113W        W45007   2.652   3.547   0.522  0.0434  0.0686  0.2284
29114W        W45008  14.869   8.842  15.547 -0.2746  0.0810 -0.0038
29115W        W45009  17.951  18.111  14.397  0.0330 -0.2821  0.3018
29116W        W45010   1.888  15.173  11.818 -0.1527  0.2257  0.0384
29117W        W45011  17.223  11.642   2.387  0.6426  0.0473  0.0050
29118W        W45012   1.457   8.749  15.997 -0.2464 -0.2960 -0.0910
29119W        W45013  10.471  11.384   3.726 -0.2766  0.1526 -0.2371
29120W        W45014  18.101   7.823   3.699 -0.0102 -0.0429 -0.4285
29121W        W45015  16.971   2.931  12.715 -0.1810 -0.1104  0.1829
29122W        W45016  10.706   9.648  10.868  0.0750  0.0852 -0.0143
29123W        W45017  12.914   8.706   1.636 -0.1418  0.0101 -0.0541
29124W        W45018   5.970  10.702   5.631  0.3362 -0.0149 -0.1494
29125W        W45019   2.870   0.623   1.312 -0.2256  0.2722  0.1353
29126W        W45020   9.547  17.901  15.496  0.0472 -0.2339  0.1538
29127W        W45021   8.537   3.960   1.664 -0.0156 -0.1473 -0.2010
29128W        W45022   1.309   7.851   3.635  0.1701 -0.1046  0.0636
29129W        W45023  17.445   3.547   3.508  0.1576  0.1211 -0.0594
29130W        W45024   6.452   3.604  15.524 -0.1683 -0.3962 -0.2242
29131W        W45025   1.959   3.675   2.997  0.1958  0.2825  0.2159
29132W        W45026   1.194  10.733  12.869 -0.0354 -0.1562  0.3735
29133W        W45027  13.107  15.657  15.832 -0.1932 -0.1915  0.0361
29134W        W45028  15.436   3.226   1.187  0.0833  0.1469 -0.0540
29135W        W45029   8.193  11.456  13.606 -0.1269  0.0072 -0.2697
29136W        W45030   9.229   4.722   2.711  0.1458  0.0569  0.1716
29137W        W45031  10.419   5.392   0.739 -0.0755  0.1223  0.1384
29138W        W45032   3.931  17.856   3.054  0.1650  0.1909  0.0961
29139W        W45033  13.647   7.466  15.397  0.0605 -0.1741 -0.1359
29140W        W45034  13.419   4.968  15.723  0.0556 -0.4090  0.1700
29141W        W45035  16.984   2.907  15.944  0.1894  0.3038 -0.2464
29142W        W45036   7.061   0.065  11.633 -0.0280  0.3527  0.0882
29143W        W45037   8.321   1.361   2.984 -0.2767 -0.2060 -0.2416
29144W        W45038   8.820  17.352  15.778 -0.1671  0.1492  0.3391
29145W        W45039  12.606  17.233   4.609 -0.0257 -0.2332 -0.0331
29146W        W45040   8.420  11.437   3.424  0.2795  0.0387  0.3630
29147W        W45041  16.643  11.824   1.237  0.0523  0.5534 -0.0095
29148W        W45042   9.445  11.915   1.990 -0.1962  0.2199 -0.0815
29149W        W45043   3.141  16.270  14.476  0.2836  0.1594  0.0009
29150W        W45044   0.623   0.961   2.053 -0.0631 -0.2744 -0.0552
29151W        W45045   5.923  10.009  11.365  0.2068 -0.0879 -0.0859
29152W        W45046   2.924   0.328   0.553  0.1272  0.0142 -0.0679
29153W        W45047   3.364   6.682   0.771 -0.2243  0.3084  0.0943
29154W        W45048   7.313   7.699  12.843 -0.0261  0.0067  0.2406
29155W        W45049  15.771  15.427  11.709 -0.1466  0.0577  0.1206
29156W        W45050   4.469  14.267   4.654  0.1882 -0.1478 -0.1499
29157W        W45051  11.914  17.224   1.309 -0.0529  0.0389  0.0061
29158W        W45052  17.261  13.256   3.949 -0.2529  0.0454  0.1562
29159W        W45053  12.302   1.177   4.725  0.0055  0.1117  0.2075
29160W        W45054   2.119   5.938   1.294  0.2207  0.1584  0.3162
29161W        W45055   7.758  15.103   3.274  0.2373 -0.0600  0.0073
29162W        W45056  11.261   2.341   4.654  0.5234 -0.0384 -0.0771
29163W        W45057   6.772  15.903  14.842  0.1316  0.1323 -0.2048
29164W        W45058   6.984  10.325   0.422  0.1824  0.0194 -0.4663
29165W        W45059  17.909   2.100   2.125  0.2938 -0.0811  0.1149
29166W        W45060   7.983   0.419  14.167  0.2592 -0.0774  0.2745
29167W        W45061  11.646  13.288   4.611  0.1797 -0.4492 -0.0313
29168W        W45062   4.691  16.907  12.615  0.1088 -0.0177  0.4603
29169W        W45063   4.476   8.975  13.568  0.2484  0.1585  0.1824
29170W        W45064   0.466  16.405   4.870 -0.0900  0.3242  0.2742
29171W        W45065   2.210  14.037   3.220 -0.1169 -0.0103  0.0063
29172W        W45066  10.513   4.025  15.874  0.0561 -0.1708  0.0652
29173W        W45067  11.266   9.347   4.280  0.1432  0.0630  0.2098
29174W        W45068  15.401  13.453  13.354  0.1039 -0.2462  0.4001
29175W        W45069  16.229   4.398   4.384 -0.0494 -0.0927 -0.0529
29176W        W45070  14.610  12.423   3.402 -0.0667 -0.0586 -0.1350
29177W        W45071   3.954   4.911   3.066 -0.0252 -0.2271 -0.0613
29178W        W45072   2.968  13.708   3.874  0.2413 -0.2149  0.1657
29179W        W45073   2.346   6.160   5.628 -0.0425  0.0920 -0.2247
29180W        W45074  14.045  15.110   2.155 -0.1071  0.1432  0.0369
29181W        W45075   2.946  14.569   5.307  0.0802  0.0334  0.0010
29182W        W45076   7.965  18.216   2.163  0.3306  0.0407  0.2222
29183W        W45077   7.369  11.142  11.782  0.0121  0.1286 -0.4585
29184W        W45078  13.229  14.127   2.015 -0.0645  0.1154  0.2457
29185W        W45079  10.146   8.739   4.530  0.0708 -0.3353  0.1904
29186W        W45080   6.774   1.421  12.510 -0.0471 -0.0787 -0.1167
29187W        W45081  16.939  12.575   5.679  0.1207 -0.0824 -0.4039
29188W        W45082  14.442  14.942   2.404 -0.2023  0.2259  0.3084
29189W        W45083  10.662   0.391  16.288 -0.0077 -0.2701 -0.2357
29190W        W45084   4.492   7.221   4.575 -0.0823 -0.1046  0.1652
29191W        W45085  13.444   4.102   5.694 -0.1042  0.1994 -0.1241
29192W        W45086  15.262   3.967  14.627 -0.1220  0.2159 -0.0634
29193W        W45087   0.370  13.851   5.956  0.0441 -0.0991 -0.1786
29194W        W45088   8.116   3.696  16.204  0.1021  0.2143 -0.1745
29195W        W45089   2.889   9.169   3.091  0.0358  0.0159 -0.1808
29196W        W45090   5.154  10.003  16.445  0.0222  0.1568 -0.1691
29197W        W45091   6.455   3.911  14.244 -0.0839  0.2886 -0.1266
29198W        W45092   5.845   2.276  14.043  0.0482 -0.4893 -0.3766
29199W        W45093  10.678  16.128  13.398  0.0086 -0.1694  0.2284
29200W        W45094  14.709   8.604   2.309  0.1487  0.0555  0.0546
29201W        W45095  10.122  13.062  13.361  0.3437 -0.1870 -0.1275
29202W        W45096  10.162   1.214  16.148  0.1083 -0.0678  0.0033
29203W        W45097   4.963   2.874   0.359 -0.1482  0.1910  0.1166
29204W        W45098   7.115   5.895   1.322  0.0986 -0.3340  0.0430
29205W        W45099   3.425  12.046  14.943 -0.1692  0.3129  0.1438
29206W        W45100  10.425  16.017  12.928  0.1434 -0.2889 -0.0112
29207W        W45101  15.530   8.934  14.449  0.1735  0.0668  0.3328
29208W        W45102   4.707   9.438   1.290 -0.0914  0.1554  0.1230
29209W        W45103   2.307  10.734   4.473 -0.1446  0.2658 -0.0977
29210W        W45104  15.721  10.664   0.084  0.0079 -0.0381 -0.2030
29211W        W45105  11.388   1.825  14.835  0.1163  0.1692 -0.0062
29212W        W45106   1.814  10.264  14.821 -0.1979  0.1850 -0.1562
29213W        W45107   6.489  17.371   1.983  0.2205 -0.2449  0.0485
29214W        W45108   4.910   3.624  11.518 -0.0263  0.0601 -0.5633
29215W        W45109   7.870  17.935  12.844  0.2369  0.1919  0.1428
29216W        W45110  14.501  16.943  14.167  0.2540 -0.1495  0.1027
29217W        W45111  15.455   7.763   3.658 -0.3537 -0.0411 -0.2768
29218W        W45112  13.679   8.795   0.672 -0.0393 -0.2912  0.2869
29219W        W45113   8.227  15.417  12.142  0.0774  0.0821  0.0150
29220W        W45114  13.402   3.690  11.062  0.0473 -0.0583 -0.2982
29221W        W45115   7.135  12.525   4.125  0.3809  0.0184 -0.1609
29222W        W45116   9.933   9.725   5.675 -0.3679 -0.0295 -0.0608
29223W        W45117   8.131  10.519   4.877  0.3886 -0.2043  0.0687
29224W        W45118  15.204   0.612   5.212  0.0711 -0.0052 -0.2285
29225W        W45119  17.319   7.303   1.649  0.0520 -0.1731  0.0472
29226W        W45120  15.250   2.158  15.570 -0.0668  0.0061  0.2521
29227W        W45121   3.460   7.015   0.416  0.2272 -0.2387  0.2133
29228W        W45122   5.746  14.127  12.460  0.1207  0.0940  0.1040
29229W        W45123   9.783   8.582  12.025  0.3117  0.0240 -0.1392
29230W        W45124  17.905   5.545   3.339  0.0208 -0.3171 -0.1607
29231W        W45125  10.111   0.013   5.614 -0.2448  0.2685  0.1259
29232W        W45126   5.619   9.021  13.240  0.1635  0.0962 -0.0066
29233W        W45127  13.408   7.233   0.445 -0.3171 -0.1441 -0.0890
29234W        W45128   2.490   9.988  12.425 -0.0337  0.0326  0.1799
29235W        W45129  16.387  12.470   1.895 -0.2007  0.2308  0.1859
29236W        W45130  14.698  16.630   0.969  0.1708 -0.2513 -0.0576
29237W        W45131  17.552  11.042   0.350  0.0433  0.1978 -0.1502
29238W        W45132  16.814   2.173   3.494  0.0527  0.0623 -0.0937
29239W        W45133   0.456   5.526  15.774 -0.0530 -0.2265 -0.2027
29240W        W45134  14.788   4.723   0.447 -0.0867 -0.2086  0.0054
29241W        W45135   1.187   2.026   0.479  0.0851  0.3131  0.0976
29242W        W45136   2.544  18.149   0.533 -0.0758 -0.0906  0.2551
29243W        W45137   3.892   3.908  11.405  0.5290 -0.0888  0.0326
29244W        W45138   3.560  16.294   4.156  0.0385 -0.5677  0.1106
29245W        W45139   7.382   0.545  15.224 -0.0927  0.1447  0.1711
29246W        W45140  17.623   2.770   4.183  0.0218  0.0764 -0.1656
29247W        W45141   2.250   1.618   5.188  0.4325  0.1626  0.0532
29248W        W45142   9.003  17.605  12.897 -0.3673 -0.0794  0.0038
29249W        W45143  11.213   9.672  10.754 -0.1141  0.0402 -0.1493
29250W        W45144   8.553   8.645   1.117 -0.4117  0.0002 -0.2990
29251W        W45145  11.830  16.409   2.086 -0.4139  0.2874  0.1530
29252W        W45146  11.358   8.604   3.500 -0.1306 -0.4145  0.2015
29253W        W45147   7.123   1.176   2.520 -0.3612  0.1146 -0.2578
29254W        W45148  17.885  12.934  16.325  0.1803 -0.1649  0.1526
29255W        W45149  13.866  10.761   0.803  0.0626 -0.3432 -0.1269
29256W        W45150   3.815   4.011  16.250 -0.0017  0.0614 -0.1661
29257W        W45151   0.961  12.699  14.350  0.3084 -0.1279 -0.1287
29258W        W45152  17.944   2.116   0.242  0.1113 -0.1240 -0.4697
29259W        W45153   5.747  14.625  15.782 -0.0153 -0.2359 -0.0327
29260W        W45154  10.558   3.872   2.548  0.0582 -0.1513 -0.0838
29261W        W45155  10.147  12.423   3.180  0.3044 -0.3202  0.0437
29262W        W45156   1.897  17.214   4.401 -0.0370  0.1074  0.1244
29263W        W45157  17.811  11.521   4.583  0.0281 -0.1772  0.0448
29264W        W45158   0.778  15.969   3.908  0.1557  0.0275 -0.0262
29265W        W45159  12.744   1.494  16.113 -0.0007  0.0651 -0.1442
29266W        W45160   5.674  14.908  12.684 -0.2084  0.3744 -0.3846
29267W        W45161   3.968   3.239  12.209  0.0542 -0.2587  0.2022
29268W        W45162  13.882  11.753   3.674  0.3687 -0.2144 -0.0219
29269W        W45163   9.704   6.502  15.869  0.0269 -0.0031  0.0360
29270W        W45164   6.752  16.523   1.984  0.0656 -0.3739 -0.0269
29271W        W45165   6.393   8.994  15.078  0.0205 -0.0315  0.0278
29272W        W45166   3.817   1.969   0.142  0.0810 -0.0715  0.1284
29273W        W45167   6.244   3.117  12.855 -0.4380 -0.1377  0.0147
29274W        W45168   7.689  13.437   3.838 -0.0311 -0.5037  0.1905
29275W        W45169   8.520  10.337   5.181 -0.2820  0.2327 -0.1740
29276W        W45170   3.054  10.671   1.840 -0.0826  0.4240 -0.1295
29277W        W45171   2.176  11.838  10.932  0.0823  0.0691  0.0648
29278W        W45172   1.086   6.840   2.214  0.0532 -0.2407  0.0724
29279W        W45173   8.622  12.499  12.802 -0.1271  0.1159 -0.1716
29280W        W45174   8.462   6.954  14.480 -0.0658 -0.0682 -0.0139
29281W        W45175  15.826   2.942   5.430  0.2934 -0.0725  0.1530
29282W        W45176  16.181  11.104   4.998  0.2500 -0.2411 -0.2365
29283W        W45177   1.393  17.930   3.245  0.1391 -0.2590  0.2431
29284W        W45178  13.746   2.294   1.807 -0.0341  0.4797 -0.1230
29285W        W45179  17.700  17.792  15.224 -0.2292  0.0169 -0.1068
29286W        W45180   4.249   8.485   2.149  0.1489 -0.2246 -0.0718
29287W        W45181   5.342  17.881   4.982 -0.0058  0.1782  0.1421
29288W        W45182   1.468   6.631   4.594 -0.2781  0.4791  0.0071
29289W        W45183   5.843   3.629   1.301 -0.2130 -0.1911 -0.0993
29290W        W45184   0.943   2.537  13.545 -0.0337 -0.1973 -0.1330
29291W        W45185   5.209  17.592  11.568 -0.0888 -0.2105  0.1569
29292W        W45186   5.424  17.337   0.381 -0.1410  0.1230 -0.0222
29293W        W45187   4.092  13.612   4.510  0.2590  0.2196  0.1038
29294W        W45188  13.343   4.085  12.677 -0.2464  0.1151  0.2976
29295W        W45189   4.853  12.031   4.640  0.0245  0.0059 -0.0710
29296W        W45190  12.690   3.991  15.276  0.1278  0.0050 -0.2562
29297W        W45191   6.737  10.502  14.714 -0.0244 -0.2886  0.3312
29298W        W45192  11.159  17.260  13.222  0.3742  0.1024  0.0816
29299W        W45193   1.427  16.128   5.070 -0.0678  0.1868 -0.1167
29300W        W45194  17.760   7.255   1.506  0.0757 -0.2020  0.0058
29301W        W45195  15.211   0.143   2.314  0.2671  0.4608  0.3196
29302W        W45196  15.608   7.438   2.313  0.1910  0.0077 -0.0377
29303W        W45197   7.042   6.390   4.932  0.0600 -0.1737 -0.1680
29304W        W45198   1.659   1.739  15.955 -0.1518  0.0927  0.0032
29305W        W45199  10.110  17.554   3.313 -0.1807 -0.2419  0.3312
29306W        W45200  12.104   9.226  10.773 -0.1533  0.1971  0.0233
29307W        W45201  10.844   2.572   0.890  0.0030 -0.5296  0.1943
29308W        W45202  15.904   8.513   5.870 -0.1537  0.0539  0.2461
29309W        W45203   2.410  15.261  13.093 -0.2271 -0.1136  0.1676
29310W        W45204   5.504  12.411   2.208 -0.1087  0.1135 -0.0468
29311W        W45205   8.019   2.170   0.315  0.0558  0.3010  0.3303
29312W        W45206  15.826  13.504   0.447  0.3767 -0.1328  0.0253
29313W        W45207   8.230   2.535   2.183  0.2498  0.1642  0.2385
29314W        W45208  17.538   4.212  16.005  0.2431 -0.0353 -0.3484
29315W        W45209  12.216   2.525   4.473 -0.0203 -0.0979 -0.0688
29316W        W45210   0.347   2.664   1.943 -0.3270 -0.1500  0.1644
29317W        W45211   7.167   5.248   2.302  0.2218 -0.0409 -0.2044
29318W        W45212  16.324  10.068   7.115 -0.1234  0.0027 -0.1137
29319W        W45213   2.838   4.035  12.728 -0.3145  0.2802  0.2294
29320W        W45214  15.371   6.051  11.968  0.4043 -0.1192  0.0371
29321W        W45215  11.763  14.055  14.907  0.2672  0.0091 -0.2089
29322W        W45216   6.503   7.050  15.997 -0.0686  0.2175  0.0536
29323W        W45217  12.850  13.826  16.032 -0.0638 -0.1400 -0.0764
29324W        W45218  17.938   0.689   5.714  0.0021  0.0764  0.0199
29325W        W45219  15.776  14.964  15.017 -0.0313  0.1313 -0.1553
29326W        W45220   7.507   4.304   2.810 -0.0397 -0.0365  0.3840
29327W        W45221   6.765   5.273   0.496  0.2342 -0.3289  0.2802
29328W        W45222   7.826  11.088  14.950  0.1048 -0.0865  0.0637
29329W        W45223   6.238  15.465  16.264 -0.0640  0.2085  0.0768
29330W        W45224   2.950   9.604   2.802 -0.1607  0.1653  0.0313
29331W        W45225   7.235   8.095  12.559  0.0051  0.0934 -0.1845
29332W        W45226   5.023  13.731   1.149 -0.1098 -0.4310 -0.0158
29333W        W45227   4.022   7.464   3.835 -0.2499  0.0878  0.2463
29334W        W45228  18.090   6.693   5.517  0.2479 -0.3074 -0.0721
29335W        W45229  13.894  12.651   4.659 -0.1761  0.2687  0.0406
29336W        W45230   1.746  12.286   2.519 -0.0620 -0.0716 -0.1047
29337W        W45231   5.120   0.268   0.313 -0.1756 -0.0977 -0.0973
29338W        W45232  13.522   3.093  12.741  0.1890 -0.0038 -0.2807
29339W        W45233   7.147  17.058   0.878  0.2057 -0.0039 -0.1512
29340W        W45234   8.087   2.125  13.734  0.1186  0.1222 -0.0413
29341W        W45235  14.039  11.552   4.465 -0.4751 -0.1378 -0.1009
29342W        W45236   8.010   2.365  11.409 -0.1183 -0.0611 -0.0473
29343W        W45237  14.946   7.034  12.809  0.0759 -0.1192 -0.0672
29344W        W45238   1.594   0.398  13.954 -0.2468  0.0141  0.2555
29345W        W45239   0.963  11.014   3.260 -0.0828  0.0127  0.3955
29346W        W45240  16.826   3.960   1.508 -0.1168 -0.1030 -0.2209
29347W        W45241   2.524   2.096   3.293  0.3609  0.2043 -0.3366
29348W        W45242   6.831   0.612  13.056 -0.1003  0.3406  0.1149
29349W        W45243   0.118  10.524   2.213  0.0947  0.3698  0.2647
29350W        W45244  13.949   2.119  16.120  0.1173  0.2130 -0.1151
29351W        W45245   7.641  12.049  14.925  0.0787  0.1643  0.0866
29352W        W45246   1.595  13.989   6.055  0.1984  0.1343  0.0112
29353W        W45247   8.978   5.871  14.653  0.1182  0.0873  0.0331
29354W        W45248   8.233  15.051   1.001 -0.1500  0.0268 -0.1169
29355W        W45249   9.093   2.809  14.625 -0.1671 -0.1716 -0.0272
29356W        W45250  14.101  15.875   5.216 -0.1004 -0.1394  0.0858
29357W        W45251   4.219  12.964  11.737  0.0015  0.3282  0.2967
29358W        W45252   9.466  10.219  14.383 -0.0139  0.0313  0.3879
29359W        W45253   3.216   6.787   4.041 -0.0432  0.1019  0.1090
29360W        W45254  12.881  13.351  13.376 -0.2703  0.2293  0.0713
29361W        W45255  11.593  15.610   1.177 -0.1050 -0.0412 -0.0910
29362W        W45256   3.619  14.890   5.424 -0.2186  0.2577 -0.1150
29363W        W45257   9.573   8.720   3.446  0.0655  0.2082  0.0241
29364W        W45258  15.208   1.200   4.393 -0.0730  0.1724 -0.2230
29365W        W45259  11.227   0.694   4.018 -0.1783  0.0737  0.3236
29366W        W45260  12.247  13.769  15.144  0.0264 -0.1787  0.1803
29367W        W45261  17.754   1.943  16.211 -0.0095  0.0751  0.2312
29368W        W45262  13.839  10.451   2.233 -0.3096  0.0991  0.2631
29369W        W45263  15.577   0.725   2.015 -0.2453  0.0908 -0.1422
29370W        W45264   2.941   1.302   3.334  0.0232 -0.2241  0.0717
29371W        W45265  17.371   8.962  13.039  0.0428  0.1554 -0.0673
29372W        W45266  11.714   9.706   5.022 -0.1123  0.0353  0.2137
29373W        W45267  15.339  13.273   5.518 -0.0288 -0.0525 -0.1366
29374W        W45268  16.515  13.320   1.578 -0.0701 -0.2332  0.2675
29375W        W45269   9.211   8.794  13.917  0.1447 -0.4687 -0.2315
29376W        W45270  10.576   8.867   4.827 -0.0050  0.3555 -0.3276
29377W        W45271   5.679  11.663  12.570 -0.2155  0.2838  0.1421
29378W        W45272   1.699   2.692  12.914  0.2736 -0.0796 -0.1310
29379W        W45273   4.345  17.298   1.501  0.0642  0.0750  0.0937
29380W        W45274  15.368  10.927   5.249 -0.2914 -0.0632 -0.3785
29381W        W45275   9.980   4.206   0.091 -0.2013 -0.0749 -0.1444
29382W        W45276  11.368   1.890  13.358  0.2317 -0.1369 -0.1141
29383W        W45277   6.679   2.521  15.271 -0.0229 -0.0508 -0.1259
29384W        W45278   6.068   2.747   1.122  0.2635  0.0556 -0.1614
29385W        W45279   4.592  18.075  14.578  0.1799 -0.4618  0.3720
29386W        W45280   1.626  12.601   4.317  0.1749  0.2239 -0.0933
29387W        W45281  17.372   9.961  15.778 -0.0810 -0.1243  0.0380
29388W        W45282   2.620  18.147   5.043 -0.1825  0.1912  0.0944
29389W        W45283   8.345  10.874  12.728 -0.1634 -0.4321  0.0140
29390W        W45284  11.151  12.797  14.884  0.1417 -0.0060 -0.1457
29391W        W45285  10.512  15.744   2.468  0.2843 -0.0714 -0.3300
29392W        W45286   8.600   6.938   0.179  0.0781 -0.0702  0.1598
29393W        W45287   7.186  10.796   2.475  0.1067  0.1343 -0.0634
29394W        W45288  12.093   9.101  14.280 -0.0469  0.5918 -0.1329
29395W        W45289   2.630   3.896   2.176 -0.3110  0.1251  0.1377
29396W        W45290   9.144  11.487   2.643  0.0376  0.1448 -0.4613
29397W        W45291  11.807   5.326  14.186 -0.2853 -0.0533 -0.2053
29398W        W45292   0.177  16.009   4.907  0.0985 -0.0480  0.1222
29399W        W45293  10.399  12.661   5.500 -0.0445 -0.2422 -0.0214
29400W        W45294  16.277  16.068   4.416  0.0340 -0.1534  0.1627
29401W        W45295   6.428   2.896  13.855  0.2205  0.0421  0.0721
29402W        W45296  10.038  18.141   4.072  0.1515  0.1439 -0.0247
29403W        W45297  12.363   4.428   4.764 -0.0658 -0.0927 -0.0961
29404W        W45298  14.296   4.070  12.929  0.2363  0.0654  0.1650
29405W        W45299   1.358   9.763   3.876 -0.0630 -0.3468  0.1749
29406W        W45300  15.635   7.882  16.278 -0.3601 -0.3394  0.0944
29407W        W45301  15.622  14.440   0.535 -0.1070 -0.1159 -0.1493
29408W        W45302   9.576   6.570   0.496 -0.2533  0.0627 -0.2887
29409W        W45303   9.697  11.326   5.082  0.0389 -0.1128 -0.1729
29410W        W45304  14.518   8.570  15.266 -0.1199  0.0598 -0.0203
29411W        W45305  12.672   9.978  14.012  0.1923 -0.0787  0.0992
29412W        W45306   5.995  10.690  15.885 -0.2953 -0.0858  0.1267
29413W        W45307   8.241  15.202  15.113  0.0812 -0.2554  0.1959
29414W        W45308   9.116  13.167  16.185 -0.0649  0.0379  0.2136
29415W        W45309   5.263  14.954   5.663 -0.0214  0.0194 -0.1390
29416W        W45310  13.844  13.655   2.404 -0.1631  0.2372  0.1381
29417W        W45311   7.419   1.066   1.041  0.1285  0.4607 -0.1566
29418W        W45312   3.280  16.951   2.361  0.2178  0.1723  0.2444
29419W        W45313   0.171  15.476   4.945 -0.0721 -0.3941  0.1345
29420W        W45314  17.265  10.740   4.668  0.1391  0.0006 -0.2964
29421W        W45315   2.835  10.058   2.897  0.1171 -0.1410  0.1318
29422W        W45316  13.862  14.602   4.960 -0.1895 -0.0649 -0.1428
29423W        W45317   3.554   6.583   3.716 -0.1890 -0.1683  0.0438
29424W        W45318  14.098  18.076   3.185  0.1159  0.1457  0.1671
29425W        W45319   4.469   6.345  15.277 -0.1023  0.1227  0.0797
29426W        W45320   4.907   5.807  12.811 -0.0954 -0.1346 -0.1245
29427W        W45321   0.247  15.540   1.321 -0.1184 -0.0468 -0.2611
29428W        W45322  12.534  15.902   0.883  0.0272  0.1106 -0.2030
29429W        W45323   0.434   6.361   5.070 -0.1460  0.3580  0.1431
29430W        W45324   3.300   9.454  16.408 -0.2478 -0.1972  0.0437
29431W        W45325  17.668   2.894   0.934 -0.0729 -0.0108  0.2297
29432W        W45326  11.922   5.577   5.277  0.2391 -0.0194  0.0026
29433W        W45327  12.314  16.401   2.851 -0.1738 -0.1095 -0.0498
29434W        W45328   6.983  11.461   2.285  0.1746  0.0240 -0.2489
29435W        W45329   0.320   9.032   4.361 -0.0978 -0.1326 -0.4059
29436W        W45330   3.089   5.634   0.002 -0.0782  0.1186 -0.0434
29437W        W45331   4.392   1.585   2.635 -0.0099 -0.1415  0.1007
29438W        W45332   9.047   9.886  14.983 -0.2527  0.0703  0.0695
29439W        W45333   2.896   1.244   4.952  0.1258 -0.0568 -0.0012
29440W        W45334   7.956  12.603   4.042  0.4400  0.0262 -0.5297
29441W        W45335   0.610   7.091   1.800 -0.4877  0.0483 -0.1292
29442W        W45336  13.263   4.098  13.572 -0.0261  0.4234  0.2390
29443W        W45337  14.611  17.386  13.410  0.0368  0.3544 -0.0896
29444W        W45338  13.493  11.542  11.620 -0.1248  0.1153  0.1152
29445W        W45339  12.511  13.949   5.959 -0.2610  0.3213  0.1071
29446W        W45340  15.029   5.639  12.605 -0.0742  0.0242  0.0322
29447W        W45341  10.560  11.098   4.635  0.0707  0.0238 -0.1995
29448W        W45342   1.414  15.120  16.119 -0.4490 -0.1604  0.2074
29449W        W45343  16.616  10.302  14.103  0.4473  0.1302  0.1056
29450W        W45344   2.068  10.135   3.346 -0.2296  0.0641  0.2594
29451W        W45345   0.682   6.732   3.529 -0.0097 -0.1533  0.0390
29452W        W45346  13.402  14.332  11.544  0.0882 -0.6119 -0.4737
29453W        W45347   5.531   7.632  12.778  0.0540  0.2145  0.0562
29454W        W45348  17.289   2.326   0.319 -0.1460 -0.1460  0.1678
29455W        W45349   6.430  14.485  15.014 -0.3734 -0.0503 -0.1331
29456W        W45350  17.783   4.642   3.596 -0.1189 -0.0195  0.1552
29457W        W45351   5.192   4.860   5.632  0.1036 -0.0062 -0.5756
29458W        W45352  13.519  18.107  15.391  0.3173 -0.4163 -0.3182
29459W        W45353   2.403  12.270   3.611 -0.0115  0.2171  0.2476
29460W        W45354   8.981  10.368   4.971  0.1744  0.0713 -0.3539
29461W        W45355  17.414  10.418   2.862 -0.2388  0.1221  0.1000
29462W        W45356   6.401   2.120   3.249 -0.2974 -0.1736  0.0703
29463W        W45357  11.547   7.145  14.410 -0.0701 -0.1623 -0.1281
29464W        W45358  17.231   7.877  15.960 -0.0676 -0.0097  0.0828
29465W        W45359  10.959  13.828   0.586  0.0652  0.0096  0.1118
29466W        W45360  17.492  16.761  15.423  0.2050 -0.0935 -0.0495
29467W        W45361  16.475   9.566   0.021  0.2127  0.0704 -0.1968
29468W        W45362  11.013   8.255  11.773 -0.0599 -0.0052  0.0662
29469W        W45363   1.527  13.103   1.130  0.0739  0.0756 -0.1830
29470W        W45364  13.551   8.546   5.919 -0.2530  0.1013 -0.0814
29471W        W45365   0.715   3.406   2.207 -0.4506 -0.2910  0.3186
29472W        W45366   9.231  13.390  15.648  0.0804 -0.0022 -0.3721
29473W        W45367   0.031   9.439  12.703 -0.0076  0.0780 -0.1075
29474W        W45368   5.404   1.835  14.828 -0.3112  0.1195  0.3338
29475W        W45369  17.247  16.876   4.715 -0.0540  0.1606  0.0810
29476W        W45370  18.032  17.924   2.252  0.0659  0.1990 -0.0732
29477W        W45371   1.095  11.559  11.502 -0.0191 -0.0761 -0.0668
29478W        W45372   8.237  10.302   1.582 -0.2032 -0.3144 -0.1696
29479W        W45373  10.310   6.337   0.192  0.0314 -0.0751 -0.2246
29480W        W45374   0.279   4.606  14.253  0.2440  0.2885  0.0294
29481W        W45375  17.509  13.482  14.968  0.1066 -0.0741  0.1791
29482W        W45376   2.676   3.819  13.197  0.4127 -0.2647  0.1459
29483W        W45377  10.678   8.447   0.732 -0.0873 -0.3011  0.0372
29484W        W45378   0.405   2.068   5.048  0.0761  0.2448 -0.2035
29485W        W45379   6.208   6.314  13.370  0.0143  0.1446 -0.1299
29486W        W45380  16.420   1.665  15.677  0.2847  0.1301  0.1530
29487W        W45381   5.530  13.687   1.136  0.0449  0.1211  0.2305
29488W        W45382  18.065   6.835  14.652  0.2581  0.1802  0.2063
29489W        W45383   2.909  12.702   5.501 -0.1268 -0.0349 -0.0129
29490W        W45384  10.689  14.053   4.587 -0.0165  0.2294 -0.1857
29491W        W45385  14.526  12.778  13.631  0.1066  0.0304 -0.2245
29492W        W45386   6.916  16.268  15.711 -0.0545  0.1126  0.2137
29493W        W45387   8.967   3.746  11.183  0.3140 -0.0101 -0.1726
29494W        W45388  14.040   0.559   5.629  0.3850  0.0451  0.0949
29495W        W45389  16.362  12.833  14.282  0.0823  0.1709 -0.0078
29496W        W45390  10.690  17.902   5.971 -0.2267  0.1913 -0.1626
29497W        W45391   4.424  10.408  13.845  0.1131 -0.0697 -0.0587
29498W        W45392   8.820  13.097   4.172  0.0509  0.3846  0.3804
29499W        W45393  11.880  15.466  15.436  0.1272  0.2024  0.0756
29500W        W45394  14.119  15.330   3.563 -0.2692  0.3427 -0.0639
29501W        W45395  11.311  10.783  14.811  0.3065 -0.0074 -0.0970
29502W        W45396   6.769   1.425   4.219 -0.1197  0.2957 -0.0380
29503W        W45397  14.896  12.845   3.327  0.1779 -0.0369  0.1318
29504W        W45398   7.198   2.609   4.796 -0.0621 -0.0374 -0.0580
29505W        W45399  17.460   1.871  13.328  0.2910  0.2199  0.1839
29506W        W45400   7.538  15.928   3.288 -0.0916  0.0291 -0.5762
29507W        W45401   7.721  17.829  12.168  0.1575  0.0773  0.0752
29508W        W45402  14.304   6.687   3.347  0.0623  0.1007  0.4374
29509W        W45403   1.522   0.142  11.517 -0.0900 -0.2337  0.1551
29510W        W45404   7.355  14.110  12.886  0.0900  0.3877  0.1171
29511W        W45405   0.702  12.206  12.619  0.1140 -0.1912 -0.1768
29512W        W45406   3.952   8.712   2.446  0.0262 -0.0803 -0.1413
29513W        W45407  13.118  10.153   1.139 -0.1042  0.2308 -0.3716
29514W        W45408   8.390   3.105   0.153  0.0128 -0.3432  0.0138
29515W        W45409  12.573   0.082   4.629  0.0481  0.1085  0.0965
29516W        W45410  15.774   7.543  15.586 -0.1648 -0.0598 -0.0593
29517W        W45411  17.083  15.844  12.537 -0.1763 -0.2155  0.1437
29518W        W45412   8.235  16.979  11.881  0.0918  0.4522  0.1167
29519W        W45413   5.970   6.492  15.492 -0.3155 -0.1552  0.2497
29520W        W45414  15.785   5.285   1.295  0.2464  0.1015  0.0884
29521W        W45415  11.447  10.417  12.534 -0.1249  0.0259 -0.1190
29522W        W45416   3.083  17.669   1.047  0.3059  0.2264 -0.1802
29523W        W45417  14.498   7.760   1.239  0.2122 -0.0680  0.4859
29524W        W45418   5.197   1.748   5.176 -0.1289  0.2279 -0.0780
29525W        W45419  16.864  13.439  12.314 -0.2525 -0.0760  0.0532
29526W        W45420   7.988   9.593   4.241 -0.0478 -0.6640  0.1173
29527W        W45421   2.911   2.219   3.748  0.0382  0.0558 -0.1582
29528W        W45422   8.030  10.203   3.242  0.2970 -0.0274 -0.2713
29529W        W45423   5.582   1.911  11.819 -0.0285 -0.0095  0.0072
29530W        W45424  17.390  16.085   1.387  0.3388  0.0045  0.3033
29531W        W45425  10.555  11.047   2.526  0.0764 -0.3787 -0.0238
29532W        W45426   2.619  16.735   6.416 -0.0061  0.1748  0.0529
29533W        W45427  14.710   2.593  16.134 -0.0017  0.2502  0.1443
29534W        W45428   3.412  14.418   0.871 -0.0738 -0.1292 -0.3258
29535W        W45429  16.408  14.895  11.688  0.0429  0.0020  0.2243
29536W        W45430   7.561  14.771   1.444  0.1444 -0.2066 -0.1860
29537W        W45431   0.750   2.725  15.020 -0.0408 -0.0630  0.0404
29538W        W45432   0.628   7.078   0.335 -0.2344  0.1423  0.1455
29539W        W45433   3.186   8.965  11.878 -0.2452 -0.0771  0.3069
29540W        W45434   0.166   7.836  14.781 -0.1136  0.1570 -0.0226
29541W        W45435  16.232  13.238   5.477  0.1206  0.0403  0.0064
29542W        W45436  12.757   0.287   2.895  0.0979 -0.0852  0.1734
29543W        W45437  12.041  16.406  13.655  0.1206 -0.2088  0.2156
29544W        W45438  13.387  14.769   2.847 -0.3439 -0.1051  0.0267
29545W        W45439   0.326   9.624  14.725  0.0130  0.0841  0.0348
29546W        W45440  11.099  16.938   1.660  0.2002 -0.0836  0.2360
29547W        W45441  14.863  11.714  10.815  0.0528 -0.0129  0.0073
29548W        W45442  12.194  15.144   6.710 -0.2573  0.1478  0.0246
29549W        W45443  10.966   9.832   0.937 -0.3882  0.1463  0.0748
29550W        W45444  16.400   4.176   3.965  0.0222 -0.0986  0.1357
29551W        W45445  16.415   8.896  15.596  0.0350  0.0295 -0.3875
29552W        W45446   1.822  15.299   2.445  0.1986  0.2398  0.0459
29553W        W45447  11.436   8.702   0.571  0.0694  0.0341 -0.1575
29554W        W45448   6.980  11.012  13.744 -0.1633  0.1080  0.2116
29555W        W45449  11.057  15.849  10.798  0.0726  0.0869 -0.0543
29556W        W45450  16.213   1.823   2.244  0.1029 -0.1026 -0.2900
29557W        W45451   6.448   2.873  14.728  0.2211  0.2653 -0.0357
29558W        W45452   2.250  14.416  12.886  0.1773  0.0360 -0.0574
29559W        W45453  15.833  12.301   4.353 -0.0871  0.0589 -0.0501
29560W        W45454  11.213  13.972  11.713  0.2179  0.1547  0.0170
29561W        W45455  12.358   3.103  12.167  0.0901 -0.1029 -0.2047
29562W        W45456   8.369  11.969  13.753 -0.3739 -0.2922 -0.1184
29563W        W45457  11.960  17.158  13.500 -0.1459 -0.1061 -0.0659
29564W        W45458   5.556   0.045   2.976  0.1508  0.5955  0.0551
29565W        W45459   5.450   9.106   1.413  0.2577  0.0243  0.1709
29566W        W45460  17.817   5.952   4.951 -0.2791 -0.0013  0.2294
29567W        W45461   6.731   1.769  13.755  0.2080 -0.5038 -0.0395
29568W        W45462   4.179   5.426  11.127 -0.2137 -0.1105  0.2495
29569W        W45463   6.083  15.138  14.598  0.0901  0.1958 -0.0791
29570W        W45464   6.546   6.345   5.776  0.3755 -0.0898 -0.2998
29571W        W45465   7.647   0.447  12.469 -0.0508  0.2024 -0.0178
29572W        W45466  10.163  13.722  12.128  0.2119 -0.0234 -0.3671
29573W        W45467   5.481   7.784   4.119  0.0679 -0.1000 -0.4375
29574W        W45468   7.595  12.954  12.027 -0.1670 -0.2070 -0.1617
29575W        W45469   0.992   1.758  14.161  0.2926 -0.2151 -0.0416
29576W        W45470   7.180   2.625   2.267  0.1513  0.4025 -0.0366
29577W        W45471   5.922  13.329   0.342 -0.0920 -0.0546  0.4173
29578W        W45472   3.560  15.063  15.104  0.0771 -0.2900 -0.1212
29579W        W45473  16.955  11.170  14.153 -0.0181 -0.0492  0.1833
29580W        W45474   2.077   7.812  12.220 -0.1433  0.1087 -0.0457
29581W        W45475   2.900   9.303   4.190  0.4862 -0.0386  0.1242
29582W        W45476   9.790  10.268   3.146  0.1191 -0.0289 -0.0124
29583W        W45477   9.600   0.546  12.334 -0.0843  0.0010 -0.0301
29584W        W45478  14.733   4.872  12.015  0.0907  0.3699 -0.1577
29585W        W45479   9.918  14.847   2.924  0.0801  0.0118 -0.1895
29586W        W45480  11.811  14.524  14.730 -0.3182 -0.2888  0.0241
29587W        W45481  15.892  17.439   0.655 -0.3017  0.0506 -0.2866
29588W        W45482   0.455   3.962   3.888 -0.3613 -0.0279 -0.0260
29589W        W45483   4.797  14.071  15.832  0.0615 -0.3795 -0.1429
29590W        W45484  13.502  13.407   0.111  0.1349 -0.3765  0.0528
29591W        W45485  11.845  18.211  13.788  0.2011 -0.0918 -0.0548
29592W        W45486   5.240  10.783   1.568  0.1285  0.1224  0.0168
29593W        W45487  12.636  10.054   2.521 -0.0291  0.0815 -0.0565
29594W        W45488   8.229   3.977  10.703  0.4949 -0.0294 -0.1540
29595W        W45489  13.025   6.695   3.114 -0.1494 -0.1273  0.0200
29596W        W45490   5.223   2.874  15.433  0.0524  0.3154 -0.5845
29597W        W45491  14.097  10.519   3.159  0.0266 -0.1513 -0.0216
29598W        W45492   9.068   6.687   1.792 -0.2482 -0.0531  0.2160
29599W        W45493   4.082  11.644   1.934  0.1023  0.2456 -0.0346
29600W        W45494   4.356   5.256   3.460  0.2043  0.0642  0.0754
29601W        W45495  17.756  14.810   6.391 -0.1794  0.2782 -0.1751
29602W        W45496  14.699   4.298   0.122  0.2294  0.1068  0.0364
29603W        W45497  11.510  17.989   2.988  0.1649 -0.1504  0.0609
29604W        W45498  16.966   0.783   1.162 -0.3249  0.0879 -0.0667
29605W        W45499   8.373  17.487   4.745  0.1110  0.1252 -0.1218
29606W        W45500  16.666  13.802  15.092 -0.0761 -0.2146 -0.0060
29607W        W45501   5.160   0.831   5.512  0.1712 -0.0557 -0.1254
29608W        W45502   9.758  16.898   1.311 -0.1939 -0.0739  0.1095
29609W        W45503  11.179  13.538   4.237  0.1090 -0.0360 -0.0093
29610W        W45504   5.169  14.605   4.245  0.1975 -0.1885 -0.1671
29611W        W45505  12.699  16.427  15.988  0.2961 -0.1037 -0.1270
29612W        W45506  17.139  15.013  14.802  0.0182  0.0081  0.0095
29613W        W45507  17.407  10.860  14.268  0.0205 -0.0274  0.3702
29614W        W45508   2.005   3.516  15.741  0.0489 -0.1270  0.0595
29615W        W45509  16.080   3.394   2.262 -0.3328  0.4641  0.2447
29616W        W45510  15.375  12.418  14.019  0.0896 -0.1264  0.1834
29617W        W45511  13.813  15.455   0.542  0.4072  0.3399  0.0111
29618W        W45512   5.093   9.569   3.131 -0.0162 -0.1742  0.2695
29619W        W45513  15.139   2.236  14.747  0.2536  0.1594  0.1232
29620W        W45514  13.240  15.722   3.622  0.2882  0.2721 -0.4683
29621W        W45515   0.932  15.908  12.570  0.0766 -0.0664 -0.1238
29622W        W45516   4.436   0.276  16.189 -0.1878  0.0983 -0.2771
29623W        W45517   0.990   1.134   2.439 -0.0925 -0.0500  0.1634
29624W        W45518   5.396  16.780  11.844 -0.2611 -0.0590 -0.0417
29625W        W45519   9.536  13.358  11.627  0.1644  0.1509 -0.1649
29626W        W45520   3.296   6.218   4.441  0.0151 -0.0524 -0.2175
29627W        W45521   2.189  13.748   1.092 -0.1898 -0.0079 -0.0092
29628W        W45522   2.194   9.894  14.716  0.2256 -0.1613  0.0776
29629W        W45523  15.531   2.144   4.580  0.1652  0.0356 -0.1626
29630W        W45524  11.610  13.702  12.201  0.2589 -0.2458  0.0916
29631W        W45525   6.313  10.141   4.375 -0.3562 -0.4378 -0.1819
29632W        W45526   9.623   1.969   2.812 -0.0607 -0.1212 -0.2915
29633W        W45527   7.887  14.964   3.757  0.0972 -0.0127  0.0827
29634W        W45528   9.972   9.265  11.521  0.4939 -0.2049 -0.0502
29635W        W45529  12.261   6.498  14.664 -0.0984 -0.0681 -0.0325
29636W        W45530  16.911   1.022  15.548 -0.0349 -0.0982 -0.1573
29637W        W45531  14.766  10.209   4.928 -0.5488  0.3180 -0.0550
29638W        W45532  16.513   5.659  11.981  0.0333  0.2973 -0.0948
29639W        W45533   2.028  13.742   4.309  0.0240  0.0055 -0.0988
29640W        W45534  15.046   4.580  11.230  0.0173 -0.1622  0.6219
29641W        W45535  14.430   8.107  14.581  0.1397 -0.0947  0.2286
29642W        W45536   1.845   0.179   0.676 -0.2070  0.2307  0.0047
29643W        W45537   3.233  10.073  11.650 -0.0214 -0.1242 -0.0973
29644W        W45538  11.676   9.119  14.684 -0.0878 -0.0976 -0.2397
29645W        W45539  10.664   0.823   5.915 -0.2498  0.4751  0.1318
29646W        W45540  14.528  10.674   4.851  0.0981 -0.0512 -0.0592
29647W        W45541   1.025   7.093  13.851 -0.0786 -0.0649 -0.1156
29648W        W45542   6.915   6.129  15.911  0.3317  0.1652  0.2317
29649W        W45543  15.890   3.253  13.370  0.1075 -0.4963 -0.2524
29650W        W45544  12.095  13.914   5.126 -0.1048  0.4828  0.2834
29651W        W45545  11.513  14.743  14.393 -0.0667 -0.0076 -0.2629
29652W        W45546  10.214   5.553   2.025  0.0474  0.1733  0.0094
29653W        W45547   7.800  12.428   1.666  0.1141  0.0639  0.2998
29654W        W45548  16.616  13.886   5.188  0.3181 -0.0436 -0.0541
29655W        W45549   5.474  15.824  15.182 -0.1864  0.2267  0.1989
29656W        W45550  15.166  14.067   0.278 -0.0604  0.0372  0.1799
29657W        W45551   3.970   9.763  15.166  0.3254 -0.0041 -0.3901
29658W        W45552  10.066   7.410   2.046  0.2037 -0.3995  0.0478
29659W        W45553   1.433  15.633   2.644 -0.3664  0.3756 -0.1043
29660W        W45554  14.485   6.930   4.142  0.1334  0.0417  0.1215
29661W        W45555   0.844   2.058   2.210 -0.1062 -0.3091  0.4924
29662W        W45556   1.610  15.930  12.078  0.0765  0.0332  0.0210
29663W        W45557  17.384  11.347   5.747  0.1243 -0.2454  0.2501
29664W        W45558  11.376  14.358   3.740  0.2307  0.2485 -0.3277
29665W        W45559   5.930   3.213   2.340  0.0341 -0.0120 -0.0707
29666W        W45560   7.610   1.614   3.589 -0.1081  0.0199 -0.0867
29667W        W45561   2.720  17.579   2.062  0.1248  0.1307 -0.0045
29668W        W45562   9.927  17.353   4.345 -0.0976  0.1189 -0.4550
29669W        W45563   9.250   1.666  14.809  0.1656 -0.1525  0.0899
29670W        W45564  15.486   1.947   5.180  0.1062  0.1155 -0.0270
29671W        W45565   3.558  13.677   4.607  0.1518  0.1721  0.1931
29672W        W45566  11.688  11.755   1.194 -0.0731  0.2220 -0.3122
29673W        W45567   1.682  17.727  13.836  0.0562  0.0947  0.0697
29674W        W45568   4.188   3.179   4.930  0.3700 -0.0725  0.3234
29675W        W45569   1.359   9.999   1.784  0.0171  0.0566  0.1069
29676W        W45570   3.460   5.674   5.842 -0.0714 -0.1444  0.0991
29677W        W45571  16.904  11.395  15.277 -0.0278 -0.4214  0.0545
29678W        W45572  12.819   6.003  14.943 -0.2366  0.0873  0.1911
29679W        W45573   6.548  14.458  12.989 -0.0036  0.0511  0.0534
29680W        W45574  13.181  11.259  16.440  0.3113  0.0182 -0.1248
29681W        W45575   8.867  17.836   2.537 -0.0423  0.0309  0.1176
29682W        W45576   4.485  14.527   3.134 -0.1942  0.2314 -0.2515
29683W        W45577  18.139  15.111  14.524 -0.0871  0.0614  0.0156
29684W        W45578   8.151  14.690   4.335  0.0735  0.0914  0.1703
29685W        W45579  16.684   5.859   1.224 -0.3122 -0.0389 -0.0500
29686W        W45580   2.105   2.602  15.695 -0.3674 -0.0961  0.1654
29687W        W45581   0.069   2.516  14.060 -0.0939  0.1619 -0.3026
29688W        W45582  12.787   9.067  15.525 -0.0181  0.1016  0.0520
29689W        W45583  15.210  14.006  16.265 -0.0324 -0.1054 -0.1933
29690W        W45584   1.488   2.891   2.731 -0.0427 -0.1368  0.1525
29691W        W45585   0.353  15.265   5.377  0.0770 -0.0412 -0.2504
29692W        W45586   7.149   1.585   3.979 -0.2116  0.2482  0.2876
29693W        W45587  13.884   6.776   0.547  0.0187  0.0633 -0.0435
29694W        W45588   4.581   1.016  11.176  0.0407  0.0898  0.2747
29695W        W45589   8.786  12.096   3.802  0.0514  0.0337  0.3640
29696W        W45590  17.647  10.371   4.486  0.1191 -0.0149  0.3479
29697W        W45591   1.984  15.347  13.827 -0.0079  0.2254  0.1836
29698W        W45592   7.945  10.953   3.544  0.1630  0.1601 -0.1770
29699W        W45593  10.599  18.047   2.844 -0.0625  0.2833 -0.0064
29700W        W45594  16.535   6.245  13.720 -0.1285 -0.0880  0.2718
29701W        W45595  13.138  11.476   3.492 -0.0503  0.0777  0.0908
29702W        W45596   1.623   8.598   4.927 -0.1120 -0.1327  0.1744
29703W        W45597  15.944  13.001   5.800 -0.0396  0.2172 -0.0281
29704W        W45598   0.898  18.177  16.201 -0.3382 -0.0915 -0.1873
29705W        W45599   4.881   0.112  15.243 -0.1963  0.1155 -0.0756
29706W        W45600   9.497  16.466  14.880 -0.1068 -0.4479 -0.0198
29707W        W45601  12.753  12.933   4.295 -0.2372  0.1086 -0.0925
29708W        W45602   6.072  14.768   4.607 -0.0885  0.2498 -0.0563
29709W        W45603   4.212   9.153   1.352 -0.1764 -0.0882  0.1472
29710W        W45604   3.722   8.236  12.106 -0.0586 -0.4718 -0.3362
29711W        W45605   8.241   5.480   0.452 -0.0149  0.2400 -0.0487
29712W        W45606  10.007  13.735  14.979  0.2160  0.1614 -0.1204
29713W        W45607   8.957  17.430  12.403  0.0730  0.0479 -0.3809
29714W        W45608   6.305   5.824   4.339  0.1195 -0.0350  0.1001
29715W        W45609  17.435   7.098   5.858  0.2324  0.3339 -0.6061
29716W        W45610   0.205  11.146   2.826  0.0450  0.0845 -0.0478
29717W        W45611   1.703   5.023  11.686  0.1006  0.0654 -0.1174
29718W        W45612  15.085   3.785   4.467  0.0780 -0.1618  0.1082
29719W        W45613  10.112   4.347   4.867 -0.1769 -0.0080  0.0876
29720W        W45614   1.370   6.551  13.076  0.0544  0.1865 -0.1031
29721W        W45615  13.639  16.034   5.102  0.3420 -0.1855  0.3237
29722W        W45616   7.326  12.285   5.436 -0.1348 -0.0802 -0.0806
29723W        W45617  16.448   9.216  14.129  0.0041 -0.1626 -0.0371
29724W        W45618   3.726   8.391  13.731  0.1974  0.1091 -0.1462
29725W        W45619  13.191  17.910   3.345  0.2832  0.1819 -0.1609
29726W        W45620  15.114   4.702   3.900 -0.1399 -0.0186 -0.1595
29727W        W45621   3.306   1.171  12.403 -0.0491  0.1161 -0.0427
29728W        W45622   9.776   9.301  13.322  0.2182  0.0139 -0.1460
29729W        W45623   9.096   1.447   4.012 -0.3103 -0.0931 -0.0148
29730W        W45624   0.769   5.745   3.104 -0.0899  0.1155 -0.0054
29731W        W45625   3.234  16.140  15.282  0.0104  0.0966 -0.0025
29732W        W45626  10.114   8.178  11.886  0.2125 -0.1375 -0.3741
29733W        W45627   7.871   7.138  12.353 -0.1093 -0.0477  0.0225
29734W        W45628  12.866   9.737  16.179  0.0162  0.3823  0.3332
29735W        W45629   6.858   6.555   3.990  0.0872  0.1686  0.4502
29736W        W45630  17.211   2.759  16.347  0.0269  0.0505  0.0584
29737W        W45631   9.313  12.538  13.426  0.1921  0.1107 -0.0715
29738W        W45632   1.527   6.277  12.700 -0.2165  0.0279 -0.0551
29739W        W45633   9.565   9.286  12.620 -0.2783 -0.0405 -0.2120
29740W        W45634  11.461  16.016  16.353  0.1516  0.2330 -0.1006
29741W        W45635  14.147   3.626  15.264  0.0947 -0.0572  0.0011
29742W        W45636  10.516  15.189   4.018 -0.0815 -0.2387  0.0074
29743W        W45637  15.226  13.474   2.238  0.3021  0.2114  0.2821
29744W        W45638  10.324   1.400   0.147  0.3037  0.3219  0.0373
29745W        W45639  10.648  15.515   1.949 -0.0771 -0.3220 -0.1477
29746W        W45640  12.255   2.154   1.366 -0.2466 -0.2955 -0.1722
29747W        W45641  11.166  17.505  13.623  0.0004  0.0748 -0.1530
29748W        W45642   3.886   1.540  13.774 -0.0233  0.1988 -0.0480
29749W        W45643   5.197  15.517   4.199  0.1089 -0.3769 -0.0918
29750W        W45644  10.667  11.918  14.496 -0.0589  0.0150  0.1187
29751W        W45645   2.239  17.021  13.493 -0.0689  0.3961 -0.0475
29752W        W45646  12.598  14.264  15.525  0.0399 -0.1109  0.0332
29753W        W45647  17.763  16.010  14.979  0.2332 -0.4181  0.2020
29754W        W45648   8.751  12.688   4.482  0.1008 -0.5038  0.0099
29755W        W45649  10.758   2.157  11.531 -0.0240  0.0233 -0.1068
29756W        W45650  13.354  16.912  14.260  0.2176 -0.1967 -0.2403
29757W        W45651   4.161   3.593  14.124  0.0198 -0.5413 -0.0148
29758W        W45652  12.048  11.279  15.438  0.0485  0.0071 -0.1997
29759W        W45653  16.619   1.734  13.836  0.0186  0.2938  0.1015
29760W        W45654   2.924   6.948  14.390 -0.2913  0.0630  0.1548
29761W        W45655  17.671   9.290   5.516 -0.1493  0.2143  0.0114
29762W        W45656   3.911  12.065  15.274  0.1296  0.2802 -0.1506
29763W        W45657   5.682   4.222  15.856 -0.0639 -0.0742 -0.2629
29764W        W45658  14.493   8.483   5.641 -0.0082 -0.2658 -0.0284
29765W        W45659  10.669   0.093  13.310  0.0727  0.1446 -0.0771
29766W        W45660   1.157  13.594  12.141 -0.1637 -0.1627  0.0140
29767W        W45661   5.103   4.378   5.467  0.1847  0.1009 -0.4104
29768W        W45662  18.222   7.326  15.011 -0.0081 -0.3972 -0.1530
29769W        W45663  18.142   2.122  11.331  0.2328 -0.0653 -0.1143
29770W        W45664  15.060   5.903  16.167  0.2076 -0.1774 -0.1599
29771W        W45665  11.501  15.868   3.479 -0.1872 -0.1053  0.1971
29772W        W45666  13.865   7.555   3.926  0.0994 -0.3236 -0.2138
29773W        W45667   2.220  15.949   1.206 -0.0189  0.2449 -0.0528
29774W        W45668  12.548  10.006   5.167  0.0860 -0.0290  0.2085
29775W        W45669   7.275   6.011   1.803  0.1157  0.2543  0.0144
29776W        W45670  10.198   8.635   0.066 -0.2044 -0.0006  0.2333
29777W        W45671  15.150  13.965   5.082 -0.0869  0.2195 -0.3964
29778W        W45672  12.513  17.365  14.623 -0.1777  0.1479  0.0416
29779W        W45673  13.442   4.045  15.403 -0.0082  0.1370  0.1911
29780W        W45674   1.250   8.333   1.779  0.0626  0.2569  0.1476
29781W        W45675   5.098   3.981   3.989 -0.0747  0.1454  0.1473
29782W        W45676   9.298  10.281  16.408 -0.0193  0.0098  0.0079
29783W        W45677   5.715  12.885   0.629  0.0345 -0.2067  0.1519
29784W        W45678   5.040   5.334   0.437 -0.1814  0.1122 -0.1996
29785W        W45679  17.314   3.704  14.680  0.0317  0.1681  0.0997
29786W        W45680   5.593   5.401  11.661  0.2480  0.1897 -0.0827
29787W        W45681  15.498  10.230  13.577 -0.2479  0.0129  0.1036
29788W        W45682  18.153   2.011  14.075  0.0767 -0.0180  0.3663
29789W        W45683  15.850   6.133   2.610  0.1398 -0.0802 -0.0328
29790W        W45684   9.012   3.622   6.065  0.0352 -0.0554  0.0081
29791W        W45685   5.350   8.516   2.635 -0.3354 -0.3057 -0.1837
29792W        W45686   8.058  13.340  14.342  0.0587 -0.1037  0.0944
29793W        W45687  10.841  12.402   2.548 -0.3333 -0.0335  0.1544
29794W        W45688  14.061  11.149  15.426  0.0862  0.0756  0.2677
29795W        W45689  12.412  14.489   4.733  0.0899 -0.0725  0.0308
29796W        W45690   6.010   8.654  12.955  0.2036 -0.0157  0.2374
29797W        W45691  10.878  14.938  15.399  0.0410 -0.1314  0.1790
29798W        W45692  17.131   4.633   0.307  0.4473  0.1348 -0.1149
29799W        W45693  12.502  14.698   0.175 -0.1274 -0.1372  0.1456
29800W        W45694   3.782  16.235   2.203  0.0118  0.0852  0.2481
29801W        W45695  10.071   5.426  14.074 -0.2668  0.1101 -0.3702
29802W        W45696   4.767   2.086   3.250 -0.3065  0.0447  0.0089
29803W        W45697   9.848   7.157   5.259 -0.0954 -0.0580  0.2914
29804W        W45698  13.777   3.780   2.261  0.1641  0.2293 -0.2245
29805W        W45699   4.096  15.628   0.202  0.1526 -0.2771 -0.4409
29806W        W45700  16.934   1.795   5.775 -0.0690  0.1208 -0.2460
29807W        W45701  11.560   1.919  14.235 -0.2142  0.0475 -0.1280
29808W        W45702   1.310  17.053   2.641  0.0851  0.0308  0.2137
29809W        W45703   2.345  16.206   6.386  0.0349  0.1357  0.2207
29810W        W45704   1.609   9.300   3.765  0.1608 -0.0857  0.2350
29811W        W45705   0.359   5.888  13.906  0.2917 -0.2357  0.2184
29812W        W45706  13.534   0.023   3.238 -0.3111  0.0723  0.1045
29813W        W45707  17.423  12.932   1.567 -0.1818  0.0093  0.1111
29814W        W45708  14.523   0.285  11.129  0.1324 -0.2181  0.1499
29815W        W45709   5.508   9.779  11.534  0.2716  0.1996  0.0022
29816W        W45710  14.907  17.787  10.849  0.1322  0.3626  0.0538
29817W        W45711   5.174  18.109  13.425  0.1815  0.0281  0.0341
29818W        W45712  10.742   2.433   2.564  0.0391 -0.0592  0.2677
29819W        W45713  17.483  17.795   0.509 -0.6092  0.0771  0.0776
29820W        W45714   8.817   1.713  15.737 -0.0544  0.3678 -0.2671
29821W        W45715  14.275   3.112   1.065  0.0693  0.1338  0.1889
29822W        W45716   9.462  12.967  11.288 -0.1985 -0.0297  0.2359
29823W        W45717  10.434   5.015   3.200 -0.1263  0.1492 -0.0566
29824W        W45718   1.161   8.338   0.900  0.4048 -0.1613  0.1107
29825W        W45719   2.850   6.517   2.200  0.0131 -0.0464 -0.1047
29826W        W45720  12.652  15.526  16.139 -0.0384 -0.2013  0.1980
29827W        W45721   0.741  13.826  16.151 -0.1562 -0.0236 -0.1956
29828W        W45722   4.489   9.574   2.934  0.2527  0.0847  0.4442
29829W        W45723  13.605   6.469  13.903 -0.0819 -0.1802 -0.3784
29830W        W45724   7.713  14.798  15.816  0.0995  0.1392  0.0586
29831W        W45725  17.691  11.863   2.667  0.1279 -0.1589 -0.2509
29832W        W45726  16.561  15.869   4.013 -0.0177  0.1206  0.0037
29833W        W45727  12.814  17.170  15.578  0.0857 -0.1804 -0.0245
29834W        W45728   9.192   6.416  15.631 -0.2373  0.2462  0.0249
29835W        W45729   6.950   1.907  12.316 -0.1446  0.0159  0.3064
29836W        W45730   2.954   5.511   2.351  0.0683  0.1501  0.0611
29837W        W45731   2.411  16.630  15.586 -0.2012  0.2084  0.4071
29838W        W45732  13.356   0.648  11.343 -0.0603 -0.2122 -0.0441
29839W        W45733   6.224  18.058   1.085 -0.0600 -0.0488  0.1032
29840W        W45734   5.975   5.144  14.108 -0.2486 -0.1925  0.1774
29841W        W45735  14.129   2.629   1.754  0.0479  0.2667 -0.2190
29842W        W45736   2.064  16.821  12.358 -0.3650 -0.2614 -0.1836
29843W        W45737   0.826   9.763   4.042 -0.2221  0.2234  0.1000
29844W        W45738  15.709   6.465   2.148  0.3351  0.2377  0.0424
29845W        W45739   3.439   2.396  15.073  0.0012 -0.1227 -0.0024
29846W        W45740   0.337   0.796  13.063  0.0423  0.1451  0.1145
29847W        W45741   0.628  14.247  12.080 -0.1980  0.1547 -0.2668
29848W        W45742  16.087   7.092  13.953 -0.1487  0.0649 -0.0647
29849W        W45743  14.045   9.038  14.448  0.0585 -0.0536  0.1617
29850W        W45744   8.289   3.801  15.003  0.2118  0.1679  0.2966
29851W        W45745  15.497   8.309  13.893 -0.0854 -0.2165 -0.0364
29852W        W45746  14.268   4.225  14.303 -0.0968 -0.3254 -0.2009
29853W        W45747  16.259  14.775  14.782  0.1443  0.1082 -0.0775
29854W        W45748   9.843  14.904  15.113  0.1760 -0.4708  0.1559
29855W        W45749  11.390   5.024  14.122  0.2025  0.1816 -0.1964
29856W        W45750  14.572  17.183   0.974  0.0755 -0.2095 -0.1008
29857W        W45751  12.327   2.507  14.683  0.1470  0.4956  0.0697
29858W        W45752   6.592   8.154  13.904  0.0293  0.0405  0.2105
29859W        W45753   7.466   5.692  11.173  0.0526  0.1276  0.1861
29860W        W45754  16.808   5.077  15.276 -0.2569  0.0779  0.0093
29861W        W45755  14.821  11.131  12.045  0.1173 -0.0372 -0.0388
29862W        W45756  14.604  11.156  14.892 -0.3604  0.0241 -0.0384
29863W        W45757   2.911  15.298   5.581 -0.1595 -0.0790  0.0326
29864W        W45758   0.665   5.417   1.710  0.1085 -0.1889 -0.0339
29865W        W45759   4.404   2.838   2.060 -0.2431 -0.0964 -0.1292
29866W        W45760   4.049  11.379  15.371 -0.0632 -0.0651 -0.1085
29867W        W45761  11.592  16.673  12.284 -0.1332 -0.1211  0.5638
29868W        W45762   2.617  16.774   1.855  0.0724  0.3930 -0.4723
29869W        W45763  13.532  14.928   3.330  0.1230  0.1177 -0.2421
29870W        W45764   7.942  17.843   5.749 -0.2215 -0.3269 -0.2173
29871W        W45765   4.266   2.461   3.489  0.3766  0.1203  0.2565
29872W        W45766   1.299   9.815   5.859 -0.3481  0.0854  0.2454
29873W        W45767   6.540   2.247   2.795  0.0630 -0.1055  0.0232
29874W        W45768   8.990   9.919  14.418 -0.0927 -0.0285  0.2350
29875W        W45769   5.873  14.126  12.965 -0.1052 -0.0472 -0.2076
29876W        W45770   6.954  16.865   4.728  0.1791  0.1704 -0.2869
29877W        W45771   0.675   3.015   1.425 -0.0915 -0.0337  0.0269
29878W        W45772   5.783   7.516  13.958  0.3316 -0.1823  0.2755
29879W        W45773  12.850   3.837   0.632  0.0409  0.0883  0.1305
29880W        W45774  15.504  14.742   0.930 -0.0304  0.1514  0.0041
29881W        W45775   0.635   4.151   1.054  0.0443  0.1198 -0.1386
29882W        W45776   2.287  17.562   2.242  0.0688 -0.2957 -0.0916
29883W        W45777   5.988   1.338   0.551 -0.4142  0.0158  0.2574
29884W        W45778  15.857   0.167   5.122  0.3104  0.2125 -0.2255
29885W        W45779   5.536   9.687   0.028 -0.0618  0.1088  0.0656
29886W        W45780   8.362   3.558  12.339 -0.0968 -0.0915 -0.1520
29887W        W45781   0.217  10.704  14.295  0.2089  0.0485 -0.0085
29888W        W45782   1.121   7.277   1.818  0.1377  0.1564 -0.2231
29889W        W45783  13.169   1.875   3.982  0.1542 -0.4901  0.1167
29890W        W45784  14.500  13.525   5.893  0.1950 -0.0841  0.3908
29891W        W45785  11.146  17.999   2.634  0.1016 -0.2583 -0.1207
29892W        W45786   5.672  17.624  15.685 -0.0697  0.3464  0.0590
29893W        W45787  11.585   7.800   0.426 -0.1788 -0.2221  0.0457
29894W        W45788   4.022   8.935  13.881 -0.1646  0.0435 -0.3245
29895W        W45789  13.575  12.119  12.921  0.0887  0.1517 -0.1311
29896W        W45790   3.732   5.006   1.673  0.0600 -0.2878 -0.3050
29897W        W45791  10.615   7.937  12.560  0.1453  0.3033  0.0499
29898W        W45792  10.075   4.758  15.567 -0.3758 -0.2487  0.1220
29899W        W45793   2.459  13.293   1.207  0.3095 -0.1753 -0.1962
29900W        W45794   4.290   4.507   3.077 -0.1841 -0.0637 -0.2969
29901W        W45795   9.354   8.381   2.586  0.3121 -0.0387  0.3051
29902W        W45796   2.562   4.864   4.741  0.0371  0.0803  0.1365
29903W        W45797  16.487  10.457  13.502 -0.1437  0.0253  0.2686
29904W        W45798   5.183   7.320   2.012  0.0698 -0.0291 -0.0340
29905W        W45799   6.415   0.149   3.851  0.1972  0.2699  0.2625
29906W        W45800  16.913   7.956  12.102 -0.1606 -0.0723 -0.1303
29907W        W45801   0.634  12.592   4.680 -0.1971 -0.1830  0.1994
29908W        W45802  15.105  13.935   3.208  0.0848  0.0997 -0.1607
29909W        W45803   0.314   4.229   2.045  0.0737  0.0253  0.1215
29910W        W45804   4.706   0.048   1.878 -0.1528  0.0255  0.2995
29911W        W45805   3.103   4.764  11.938  0.0087 -0.2700  0.3518
29912W        W45806  14.700   4.044   5.666  0.0516  0.2247  0.0670
29913W        W45807  13.006   3.362  11.310 -0.1100  0.1823 -0.1328
29914W        W45808  12.305   7.225   2.918  0.0821  0.0667 -0.0424
29915W        W45809  15.437  11.725   1.960  0.0141  0.3768  0.0397
29916W        W45810  15.628   9.790   5.720  0.2807  0.1031 -0.1040
29917W        W45811   3.814   2.162   2.051  0.4531  0.2116  0.2989
29918W        W45812   9.853  13.382  12.457  0.1803  0.0312  0.5597
29919W        W45813  16.466  13.713   3.461 -0.2314  0.0719 -0.0579
29920W        W45814   1.872   7.202   2.109 -0.0908 -0.2492 -0.1379
29921W        W45815  10.682   8.063  15.864  0.0407  0.1598 -0.0773
29922W        W45816  14.486   3.896   0.304 -0.0734  0.4446 -0.1656
29923W        W45817   9.848   4.476   1.095  0.0262 -0.0099  0.2287
29924W        W45818   1.247   1.037  15.604  0.2057 -0.0512 -0.3178
29925W        W45819   9.518  11.232  14.098 -0.0456 -0.1002  0.2760
29926W        W45820  16.118  12.221   5.164 -0.1945  0.2101 -0.1250
29927W        W45821   2.144   2.505  12.830 -0.1351  0.1744 -0.3189
29928W        W45822  14.318  17.483   5.323  0.1427  0.0349  0.1109
29929W        W45823  12.505   2.551   5.988  0.2811  0.0925  0.2173
29930W        W45824   5.745  13.412  12.942  0.2046 -0.1371  0.0850
29931W        W45825   6.959  13.435   3.281 -0.0100  0.0451  0.1020
29932W        W45826  10.166  16.731   2.161 -0.0485 -0.0486 -0.3597
29933W        W45827   4.865   3.373   1.197 -0.0956  0.0137  0.2151
29934W        W45828  15.366   2.009  13.837  0.0760  0.1305  0.4983
29935W        W45829   7.244  12.689   3.701  0.0733 -0.2362 -0.3868
29936W        W45830   2.573  14.103  14.316 -0.1919  0.0328 -0.1566
29937W        W45831  17.896   2.482   0.562 -0.0762  0.0529 -0.3550
29938W        W45832   2.544   2.825  14.154  0.0872 -0.0171  0.1929
29939W        W45833  13.024   6.653   2.035  0.1584 -0.1766 -0.1272
29940W        W45834   8.367   3.451   0.502 -0.2004 -0.0811  0.1779
29941W        W45835   3.069   5.889   0.848 -0.1104 -0.2368  0.4676
29942W        W45836  13.607  17.939  12.613  0.2770  0.2049  0.0943
29943W        W45837  17.219  17.571  14.336 -0.1375  0.1094 -0.1738
29944W        W45838   2.363   0.804  15.653  0.2795  0.0802 -0.2746
29945W        W45839   3.666  13.403  13.066 -0.0872  0.2230 -0.3594
29946W        W45840  11.514  15.150   0.495  0.0743  0.0023 -0.0990
29947W        W45841   6.651   8.217   0.197 -0.0735 -0.0913 -0.0735
29948W        W45842   1.311  16.137  13.945 -0.0806 -0.0492  0.1860
29949W        W45843   5.799   7.337  13.096 -0.0579 -0.0263  0.1251
29950W        W45844   2.576  15.571  11.378  0.0983  0.0836  0.1354
29951W        W45845   3.925  17.554  11.562 -0.1173  0.0448  0.1270
29952W        W45846  11.527   7.633  11.562  0.0434 -0.1447 -0.3243
29953W        W45847   9.821  17.274  13.101  0.1683  0.2735 -0.0769
29954W        W45848  10.232   8.414   5.689 -0.2874 -0.2153 -0.1898
29955W        W45849   8.765   1.715   1.035  0.1473 -0.0541 -0.1184
29956W        W45850   8.124   1.746   4.773 -0.1318 -0.0636 -0.2111
29957W        W45851   3.016  15.056   1.464 -0.4310  0.4673 -0.2637
29958W        W45852   9.643  16.669   5.003 -0.2209  0.0875 -0.0589
29959W        W45853  14.862   9.700  15.997  0.1311  0.1807 -0.1015
29960W        W45854  12.866  10.997  15.854  0.1849  0.0362 -0.3283
29961W        W45855   1.607   2.386  12.380  0.0124  0.1069  0.0799
29962W        W45856  16.638   2.614   2.781  0.1080  0.0646 -0.2326
29963W        W45857   7.587  16.415  14.751  0.0334  0.1656 -0.1778
29964W        W45858   1.114  16.562  14.200  0.0470 -0.0687 -0.0861
29965W        W45859   3.075  17.919  15.176 -0.0894  0.0068  0.3647
29966W        W45860   8.456   1.504  15.453 -0.5387 -0.1765  0.0159
29967W        W45861   0.567  17.935   3.258  0.0342 -0.3252 -0.1224
29968W        W45862  12.199  10.505  14.800  0.0886 -0.0390 -0.1118
29969W        W45863   8.918  10.403  16.079  0.0493 -0.0123 -0.0939
29970W        W45864   7.910  12.685   4.684 -0.0552 -0.0591  0.0213
29971W        W45865   3.083   1.400  15.454 -0.0154 -0.0159  0.3723
29972W        W45866   6.786   9.894  11.760  0.0475  0.1337  0.1076
29973W        W45867   1.867   5.366   4.723 -0.0343  0.0651  0.4506
29974W        W45868  15.660  14.701   4.219 -0.0150  0.4145 -0.0252
29975W        W45869   9.713   6.983  16.170 -0.3523  0.1862  0.3094
29976W        W45870   6.149   8.342  12.603 -0.4431  0.1282 -0.0544
29977W        W45871  15.567  17.751  14.174  0.3044 -0.0874  0.1051
29978W        W45872  16.104  11.743   5.596  0.2513 -0.0231  0.0059
29979W        W45873   6.642   6.491   0.640 -0.1455  0.4993  0.1863
29980W        W45874   4.031  13.091  12.651 -0.0204  0.0571 -0.1303
29981W        W45875   7.171  12.262   4.586 -0.4621 -0.0123 -0.0645
29982W        W45876  16.064   1.251  11.736 -0.1194 -0.0577 -0.3961
29983W        W45877  16.316   0.070   5.986  0.1921 -0.0523  0.1404
29984W        W45878  16.148  12.786  13.335 -0.1901 -0.1082  0.2612
29985W        W45879  13.741  13.023   0.361  0.0737  0.0515 -0.1316
29986W        W45880   5.398  17.911   1.568 -0.0098  0.1190 -0.3136
29987W        W45881   1.291   2.506  16.156  0.1082 -0.1282 -0.1115
29988W        W45882   1.307   0.182   4.165 -0.0118 -0.3647  0.0183
29989W        W45883   3.089  12.220   5.583  0.1389 -0.0567  0.0806
29990W        W45884   1.240   2.288   2.490 -0.1447  0.2086 -0.0845
29991W        W45885  17.158  11.994   0.149 -0.0238 -0.2720  0.2553
29992W        W45886  12.973   2.719   0.884 -0.0354  0.4096  0.0188
29993W        W45887   2.158  15.345  16.051  0.1201 -0.1342  0.0969
29994W        W45888  13.652  10.523  13.757 -0.2010  0.0808 -0.0290
29995W        W45889  10.724  13.773   4.172  0.1144 -0.0490 -0.3532
29996W        W45890  15.185   3.805   0.468 -0.2377 -0.1129  0.1950
29997W        W45891   7.280   3.618   1.662 -0.0543 -0.1849 -0.2035
29998W        W45892   6.548   3.786   3.565  0.4703  0.1494 -0.1229
29999W        W45893  17.047   0.041   6.427  0.0062 -0.0580  0.1073
30000W        W45894  12.555   7.999  16.112 -0.1837  0.2764  0.1800
30001W        W45895  12.513  14.444   3.548 -0.1524 -0.2264 -0.3790
30002W        W45896  14.262   9.421   2.338  0.0789 -0.0589  0.0764
30003W        W45897  11.078   7.881   6.214 -0.1536  0.1188 -0.0920
30004W        W45898   9.146  13.009   3.135  0.0270 -0.0526  0.1406
30005W        W45899  16.974  16.655   4.331 -0.1273 -0.0101  0.0562
30006W        W45900  12.510   9.853  11.799 -0.1689  0.0107  0.0810
30007W        W45901   3.243  12.128   0.692 -0.2886  0.0293 -0.1891
30008W        W45902  17.121  13.207  13.471 -0.2059  0.1806 -0.1450
30009W        W45903   0.209   2.190   3.948 -0.0448 -0.1922 -0.0480
30010W        W45904   5.528   8.865  15.757  0.1137 -0.2140  0.0130
30011W        W45905   2.834   5.001  12.371 -0.0728 -0.1096  0.0277
30012W        W45906  14.093   7.094  13.359 -0.0369 -0.1272 -0.0952
30013W        W45907   7.743   7.651  14.647  0.0235 -0.2141  0.0071
30014W        W45908  15.354  10.898  13.719  0.0170 -0.1608 -0.0921
30015W        W45909   9.154  14.711  14.797  0.3297  0.2842  0.2915
30016W        W45910   6.227   5.593   4.819 -0.3406 -0.1441  0.4042
30017W        W45911  17.779   8.443   3.027 -0.0047 -0.3715 -0.1511
30018W        W45912   3.451   2.933  11.301 -0.1290  0.0445 -0.1159
30019W        W45913   8.898   3.804   0.285 -0.0638  0.1639  0.1474
30020W        W45914   3.525  15.049  14.350 -0.0717 -0.0276 -0.1413
30021W        W45915  13.121   8.926   1.235 -0.2890 -0.1423 -0.0415
30022W        W45916  13.569   6.139   0.432 -0.0652 -0.1724 -0.1437
30023W        W45917   0.861   2.778   1.003  0.1072  0.2600  0.1555
30024W        W45918   4.513   4.950  16.220  0.2289  0.1878  0.1351
30025W        W45919  17.501  14.374   1.964  0.0236  0.0218  0.1557
30026W        W45920   7.088  16.404   1.659  0.0762  0.0731 -0.0635
30027W        W45921   7.430  16.753   3.148  0.2219 -0.0356 -0.1334
30028W        W45922   5.458  15.460   0.933 -0.3467  0.1675  0.5408
30029W        W45923   6.709   2.726  15.727 -0.0225  0.4569  0.0967
30030W        W45924   2.468   2.571   4.602 -0.2801 -0.1414 -0.0294
30031W        W45925  16.260   5.702   2.479 -0.0816 -0.0649  0.0048
30032W        W45926  17.294   0.054   4.685 -0.0913  0.2701 -0.2030
30033W        W45927   2.770  15.779   2.010  0.1229 -0.3138 -0.3644
30034W        W45928  13.383  15.240   5.171 -0.2193 -0.0430  0.0250
30035W        W45929  11.887   4.447   3.647  0.2979  0.1164 -0.2632
30036W        W45930  14.271   9.309   4.557 -0.0802 -0.0754  0.0130
30037W        W45931  10.560   8.516  12.596  0.2482  0.2632  0.1444
30038W        W45932   9.517  14.043   3.589  0.1122 -0.1108  0.1340
30039W        W45933  14.233  11.983  12.355 -0.1658  0.1593  0.0425
30040W        W45934   0.491   9.766  13.378  0.3107 -0.0708 -0.0127
30041W        W45935  11.132   6.033  16.245 -0.1958  0.3598 -0.1908
30042W        W45936  11.527  16.391  13.216  0.0768 -0.0269  0.0066
30043W        W45937   9.070  15.095   3.955  0.1007  0.1235 -0.3411
30044W        W45938  13.381  10.088   5.130 -0.1429  0.0837 -0.2917
30045W        W45939   7.852   2.058   3.394  0.1640 -0.0605 -0.5034
30046W        W45940  14.105   5.640   3.920 -0.0283  0.1136  0.0018
30047W        W45941  14.798   1.039   0.111  0.0814  0.1801 -0.1248
30048W        W45942   8.443   8.606  15.231  0.1045 -0.2452  0.0578
30049W        W45943   8.270   9.312   4.553  0.0882 -0.1706  0.3149
30050W        W45944   2.505  15.807  12.991 -0.1118  0.0210  0.1137
30051W        W45945  18.235  17.621   4.722  0.1261  0.1984 -0.0120
30052W        W45946   0.742  11.332   0.058  0.1911 -0.3314 -0.0464
30053W        W45947   2.909   3.956   3.345  0.3774 -0.3584  0.0320
30054W        W45948   1.312   1.228  11.993  0.1242  0.1970  0.0526
30055W        W45949  18.097   9.898  12.606  0.2431 -0.3797  0.1476
30056W        W45950  12.995  14.823   3.260 -0.0579  0.1496 -0.1188
30057W        W45951   5.361   8.689  14.571  0.2231 -0.0596 -0.2209
30058W        W45952  10.548   5.298  12.263  0.1877 -0.0779  0.2224
30059W        W45953  17.757  11.278   4.060 -0.0589  0.1475 -0.1093
30060W        W45954   6.065   6.907   9.948  0.0627  0.0221 -0.0790
30061W        W45955  14.365   2.282   1.327  0.1793 -0.0140  0.0182
30062W        W45956  12.217  16.456   3.382  0.1195  0.1438 -0.1599
30063W        W45957  12.121  14.122   5.667  0.1539 -0.0419 -0.2854
30064W        W45958  10.922  14.518   4.552 -0.1393 -0.0577 -0.0746
30065W        W45959  10.414   0.264  10.431 -0.1906 -0.0848 -0.2034
30066W        W45960   0.503   6.477  16.037  0.1355 -0.0054 -0.2544
30067W        W45961   8.572   4.100   4.040 -0.3050  0.0108 -0.2620
30068W        W45962  17.397  14.899  13.937  0.1163 -0.0269 -0.0422
30069W        W45963  10.302  15.386  12.407  0.0335  0.2582 -0.1971
30070W        W45964  16.717   0.713  11.826  0.1565 -0.1147  0.1654
30071W        W45965  13.474   9.834   4.077  0.1654 -0.1190  0.0572
30072W        W45966  14.968   5.821  15.429  0.0308 -0.2495 -0.0428
30073W        W45967  16.358  13.562   4.382 -0.2677  0.2988 -0.3106
30074W        W45968   9.610  10.002   2.002  0.5250  0.0962  0.3407
30075W        W45969  10.019   4.542  13.801 -0.0807  0.0574 -0.3531
30076W        W45970  16.841   6.993   3.448  0.1126 -0.2115  0.0651
30077W        W45971  12.944   0.959  15.487 -0.0055 -0.2210 -0.0022
30078W        W45972  17.042  13.599  11.268 -0.0534  0.2998 -0.1746
30079W        W45973   5.053   3.027  14.482 -0.3652  0.0832  0.2267
30080W        W45974  16.797   3.970   1.039  0.3079 -0.2643  0.2945
30081W        W45975  14.134   8.779  12.364 -0.0791  0.2910  0.0661
30082W        W45976   1.088   5.229  15.313 -0.2748  0.0835  0.2274
30083W        W45977  13.742  15.060  14.138  0.0840  0.0826  0.1042
30084W        W45978  18.026  10.160   4.020  0.0337  0.2291 -0.2307
30085W        W45979   6.810  16.349  14.205 -0.1594 -0.0218  0.2182
30086W        W45980   9.594  13.665  13.687  0.1023 -0.1225 -0.3521
30087W        W45981   2.281   9.625  13.813 -0.2698  0.1075  0.4038
30088W        W45982   2.926   4.364  12.367  0.1193  0.1620 -0.1910
30089W        W45983   1.215   9.022   5.451 -0.5843  0.1724  0.0468
30090W        W45984   3.887   8.466  15.155  0.3848  0.1085 -0.0823
30091W        W45985  10.928  10.848   0.060 -0.1245  0.2689  0.1828
30092W        W45986   5.838   2.377  15.846 -0.3009 -0.1595 -0.0258
30093W        W45987   0.886   0.485   4.457  0.0446 -0.0016  0.1856
30094W        W45988   6.125  13.730   5.326  0.0396  0.0084  0.2524
30095W        W45989   5.837   3.786  12.572  0.2531 -0.2726 -0.2953
30096W        W45990  10.026  11.742   2.666 -0.0543 -0.2723 -0.1203
30097W        W45991   2.065   5.485  13.525 -0.3422 -0.1741  0.1665
30098W        W45992   5.005  14.152   4.539  0.2955  0.3911 -0.0701
30099W        W45993   1.430   0.988  13.935  0.0228 -0.0623 -0.1688
30100W        W45994  13.691   5.888   4.129 -0.0068  0.2663  0.2220
30101W        W45995  16.779   4.546   4.543 -0.2841 -0.0547  0.2175
30102W        W45996  15.729  12.626  14.279  0.0446 -0.1064  0.1485
30103W        W45997   9.131  12.729  14.624 -0.1518  0.4476 -0.1229
30104W        W45998  17.574  17.157   5.058 -0.2817  0.0377  0.3245
30105W        W45999   3.452   5.835   1.255  0.0918 -0.3357 -0.0788
30106W        W46000   3.060  10.424  16.426 -0.1205 -0.1342 -0.0758
30107W        W46001   2.910  17.318  13.247 -0.1468 -0.0503  0.2412
30108W        W46002   5.146  13.123   4.143  0.1528  0.1173  0.0595
30109W        W46003   0.006  10.421  14.786 -0.0155 -0.1431  0.0917
30110W        W46004  10.177   3.374   6.193 -0.0701  0.1281  0.2839
30111W        W46005   3.374   0.155   4.085  0.1425 -0.0600  0.1863
30112W        W46006   3.926   8.054  14.598  0.0554 -0.2384 -0.5071
30113W        W46007   5.734  17.993  15.387 -0.0194  0.2007 -0.0450
30114W        W46008  11.812   2.933  15.710  0.0558  0.0434 -0.2313
30115W        W46009   1.275   3.558   0.779 -0.0126 -0.1309 -0.1667
30116W        W46010   2.220  13.482  11.477 -0.1442  0.0202 -0.2920
30117W        W46011   8.703  15.601   3.980 -0.1019  0.2246  0.1731
30118W        W46012   5.715   4.861   0.425  0.0660  0.0613 -0.2807
30119W        W46013  17.698  17.400  13.456  0.1044 -0.0829  0.1486
30120W        W46014  15.132  11.160  15.147 -0.2756  0.0011  0.1017
30121W        W46015   0.101   6.196  12.045  0.1321  0.1387 -0.0978
30122W        W46016  10.692  16.674  11.666 -0.1649  0.5428 -0.1832
30123W        W46017  16.606   0.138  15.461  0.0952 -0.0807 -0.1332
30124W        W46018  15.246  15.993   1.588  0.2526  0.1659  0.3647
30125W        W46019   4.930  10.308  15.552  0.4194 -0.0647  0.0061
30126W        W46020   5.306   5.886  13.166  0.0699 -0.0058  0.2863
30127W        W46021   1.627  16.529   2.851 -0.0635 -0.1560 -0.0244
30128W        W46022   8.075   9.784  15.794 -0.3290 -0.3180  0.1448
30129W        W46023  12.652  15.686  13.445  0.3358 -0.0056  0.1891
30130W        W46024   2.024  16.019   0.724  0.1339 -0.0682  0.0404
30131W        W46025   2.815  14.684  14.799 -0.2071 -0.0814  0.0442
30132W        W46026  14.441   7.188   3.260 -0.0384 -0.0657  0.0746
30133W        W46027  15.766   8.044   6.329 -0.2404 -0.0798  0.2880
30134W        W46028   6.057   2.402   0.712  0.1851 -0.2367  0.1155
30135W        W46029   8.614   6.776  11.062  0.1214  0.0389 -0.1436
30136W        W46030   9.621  17.476   6.098  0.1203 -0.1457  0.0520
30137W        W46031  15.112   4.172   5.338 -0.1948  0.2543  0.0570
30138W        W46032   8.459  10.261  14.293 -0.0851 -0.1999  0.1272
30139W        W46033   7.041  16.171   2.266  0.0901  0.0786  0.0072
30140W        W46034  16.736  14.919  12.572 -0.0182 -0.0190  0.0874
30141W        W46035   1.252  13.462   5.000 -0.0695  0.3095  0.2201
30142W        W46036  11.358   7.775   1.444  0.1011  0.2481 -0.0294
30143W        W46037  16.353  13.179   3.411  0.0096 -0.0250  0.0054
30144W        W46038   9.022   3.166   3.785 -0.3267  0.0198  0.0508
30145W        W46039  15.743   8.332  11.847  0.3439  0.0014  0.1093
30146W        W46040  12.793   6.011  11.449 -0.3625  0.0883 -0.1571
30147W        W46041   9.618   0.486   3.072  0.1116 -0.1220  0.0410
30148W        W46042   6.487  15.669   4.766  0.0282  0.3239 -0.0145
30149W        W46043   0.661   0.338  16.017 -0.3817  0.0857  0.0264
30150W        W46044   5.025   4.990  11.241  0.1667  0.0916 -0.1553
30151W        W46045  13.203  16.208   3.469 -0.1181  0.2451  0.1865
30152W        W46046   0.539   4.213  13.990 -0.2692 -0.0097  0.0391
30153W        W46047   9.472   4.446  14.733 -0.1545  0.1277 -0.3082
30154W        W46048  13.352   2.581   4.618  0.0452  0.0530 -0.3587
30155W        W46049  10.838   1.317   0.507  0.0152 -0.1861  0.2469
30156W        W46050  10.246  12.174  13.217  0.1411  0.2161 -0.0286
30157W        W46051  12.231   6.774   5.992  0.2176  0.1534  0.2389
30158W        W46052  18.053  10.535   1.222 -0.2155 -0.0217 -0.0674
30159W        W46053   5.398  14.389   3.039  0.1897 -0.3660 -0.0678
30160W        W46054  12.383   8.993   0.864  0.1073 -0.2040  0.1666
30161W        W46055  10.999   7.621   2.558 -0.0287  0.0155  0.0429
30162W        W46056   1.234   6.731   0.282  0.0536 -0.1948  0.2596
30163W        W46057  13.921   0.234  11.987 -0.2176  0.2810  0.1581
30164W        W46058  17.489   6.720  13.405  0.3635  0.0721 -0.1527
30165W        W46059  10.427  14.852  15.064  0.0794  0.0011 -0.2803
30166W        W46060   3.586  15.240  13.867  0.0377 -0.0672  0.0933
30167W        W46061   3.700  12.359  11.142 -0.0384  0.2993 -0.1770
30168W        W46062  12.861   3.359   5.161 -0.0546 -0.3866  0.1285
30169W        W46063  11.454   2.254  14.598 -0.3288  0.0677  0.2773
30170W        W46064  18.215  14.842   4.999 -0.0408 -0.0821 -0.3322
30171W        W46065   3.911   9.535   4.316 -0.4020  0.1173  0.1265
30172W        W46066  14.418   7.752  12.359 -0.3006 -0.0753  0.1391
30173W        W46067   5.145   2.163   5.639  0.0650 -0.1575 -0.1595
30174W        W46068   3.875  17.979  11.763  0.1898 -0.1718 -0.1307
30175W        W46069   9.497  12.976   1.281 -0.2768  0.0317 -0.1029
30176W        W46070  10.518   2.173   3.437 -0.2204 -0.3181 -0.1414
30177W        W46071   3.629  16.347  11.923  0.0698 -0.0174 -0.0356
30178W        W46072   8.188   3.360  11.909  0.0058  0.1187 -0.1881
30179W        W46073  14.696  17.074   1.901 -0.0666  0.2842  0.2875
30180W        W46074  10.040  13.125   5.358  0.1834 -0.0775 -0.3331
30181W        W46075   4.162  10.151   0.645 -0.1842 -0.1033 -0.0945
30182W        W46076  14.559  10.348   1.667  0.0664  0.0815  0.2953
30183W        W46077  14.918  10.983  16.143 -0.1310  0.0147 -0.0583
30184W        W46078   4.228   2.229   0.519  0.0375  0.0988  0.1194
30185W        W46079  18.082   0.160   3.364 -0.2719 -0.1010 -0.3724
30186W        W46080   2.949  17.846  13.189 -0.2575  0.3265 -0.0390
30187W        W46081  16.744   7.458   2.647 -0.1468  0.2282  0.2781
30188W        W46082  17.509   4.432   2.127  0.0612  0.1195  0.1603
30189W        W46083  14.670   7.051   0.381  0.0822 -0.2202 -0.0078
30190W        W46084   6.827   7.901  16.242 -0.2107 -0.2568 -0.3459
30191W        W46085  17.097  15.897   4.409  0.0725  0.2153 -0.1163
30192W        W46086   8.844  14.453   0.754  0.3125 -0.0770 -0.0645
30193W        W46087  12.078  13.422  15.405  0.1220 -0.1740 -0.0916
30194W        W46088  17.486  15.890  13.660 -0.0829  0.2970 -0.0059
30195W        W46089   7.842   9.471  14.585  0.3044  0.0918 -0.2374
30196W        W46090  10.435  12.735   2.540 -0.2613  0.1360  0.3392
30197W        W46091   4.213  13.511  12.313  0.1202 -0.0345  0.1694
30198W        W46092   2.195  10.028   1.068 -0.4106 -0.1239  0.2789
30199W        W46093  12.546  10.751   1.396 -0.0188  0.0739 -0.0406
30200W        W46094  14.807  17.373   5.196  0.2702  0.0301 -0.0432
30201W        W46095   1.805  15.298   3.887 -0.2630 -0.0028  0.1848
30202W        W46096   8.228  15.033  14.478 -0.0684  0.2681  0.2398
30203W        W46097  10.434  10.696   2.096  0.2255  0.0089  0.3448
30204W        W46098   3.956   9.944   1.086  0.1427 -0.4134 -0.2541
30205W        W46099   1.956   2.065   5.371  0.0799 -0.0714  0.0639
30206W        W46100   9.315   2.654  13.480  0.2453 -0.1650 -0.1608
30207W        W46101  15.665   5.398   3.357 -0.0046 -0.2910  0.0138
30208W        W46102  16.879  12.535   3.534  0.0844 -0.1732 -0.1354
30209W        W46103   2.499   8.611  15.603  0.0854 -0.0957  0.2292
30210W        W46104   6.170  16.084   5.292 -0.0349  0.4014 -0.3953
30211W        W46105  15.137   8.674   3.675 -0.3880 -0.1223 -0.0702
30212W        W46106   7.455   4.413   4.200 -0.0510  0.1074 -0.1624
30213W        W46107   8.059  16.223  11.447  0.2867  0.0308 -0.1804
30214W        W46108   6.194   7.365  10.862  0.2465  0.1948  0.0567
30215W        W46109   5.384   7.065  15.885 -0.1281 -0.3691  0.0031
30216W        W46110   5.288  14.336  13.526 -0.0982 -0.0885  0.2941
30217W        W46111  14.465   9.209   0.259  0.0128 -0.0247 -0.2962
30218W        W46112  17.148  11.307  11.369 -0.1085  0.2253  0.1155
30219W        W46113   6.276  14.006   4.125 -0.0800 -0.2753 -0.3311
30220W        W46114  17.768  16.827   5.352  0.2459 -0.2558 -0.2321
30221W        W46115   7.934   2.859   1.932 -0.1835 -0.0262 -0.1259
30222W        W46116   0.766   7.553   2.069  0.0962 -0.1397 -0.0149
30223W        W46117   0.038   6.569   4.198  0.1447  0.0485 -0.0296
30224W        W46118  12.250   9.669  13.173  0.0289 -0.1239 -0.1259
30225W        W46119   3.179  12.280   4.194  0.3015  0.0941  0.0642
30226W        W46120   0.939  10.627  16.031 -0.0651 -0.1785  0.0688
30227W        W46121  10.643   7.504   3.980  0.1390  0.0225 -0.1137
30228W        W46122  15.681   1.109  16.324 -0.2241 -0.0426 -0.0187
30229W        W46123   6.309  10.097  11.677  0.1002  0.0351  0.1525
30230W        W46124   6.190   4.878   1.109  0.0947 -0.1847 -0.1036
30231W        W46125   9.625  12.111   4.395  0.2574  0.2258 -0.0247
30232W        W46126  11.560   2.162  16.408  0.2668  0.0850  0.0551
30233W        W46127  17.024  12.611  15.288 -0.1368 -0.1530 -0.2882
30234W        W46128  16.571   1.774   2.663 -0.2177 -0.2366 -0.0283
30235W        W46129  11.815  14.913  15.244 -0.1275 -0.1979  0.1737
30236W        W46130  17.563  14.937  12.241 -0.1041 -0.0853  0.1457
30237W        W46131   0.070   5.505   0.815  0.3253  0.0408  0.0851
30238W        W46132   1.323   8.016  12.673  0.0452 -0.1837  0.2017
30239W        W46133   7.401  10.261  14.814 -0.1608  0.3548  0.4534
30240W        W46134   7.787  11.530   2.724  0.2226  0.2224  0.2355
30241W        W46135   6.020   1.108  11.224 -0.0286 -0.0654 -0.0968
30242W        W46136  10.152   2.597   0.697 -0.2732 -0.2352 -0.1479
30243W        W46137  17.531  12.918  12.308 -0.0374 -0.0920  0.0691
30244W        W46138  10.268  11.333  14.490 -0.1378 -0.2099 -0.1483
30245W        W46139   2.885  10.748  13.341  0.3116 -0.3381  0.1373
30246W        W46140  17.441   8.686  15.740  0.3297 -0.0215  0.1166
30247W        W46141  11.171   1.476  12.125  0.2008 -0.0121 -0.2248
30248W        W46142  10.747   5.340   2.103  0.2154 -0.0468  0.0220
30249W        W46143   7.294   1.389   3.239 -0.0167 -0.0326 -0.0756
30250W        W46144   5.355  10.542   3.025  0.0452  0.1819  0.0390
30251W        W46145  12.377   3.929   1.460 -0.1975  0.1376  0.1037
30252W        W46146   0.771  18.084  12.375 -0.1154 -0.2175  0.0638
30253W        W46147  15.969   5.468  15.313  0.2437  0.1340 -0.2074
30254W        W46148   4.323   9.332  15.465 -0.2374  0.1028  0.1737
30255W        W46149   3.324   5.006   4.020  0.1333 -0.2351  0.0601
30256W        W46150   8.092  14.886   5.331 -0.0326 -0.0633 -0.3340
30257W        W46151   0.624  15.994  12.048  0.2067 -0.1981  0.1746
30258W        W46152  10.478  10.661   5.541  0.0394  0.1225  0.1576
30259W        W46153   8.507   3.515  15.866  0.1423  0.2521  0.1489
30260W        W46154   1.338  12.341  14.438  0.0577  0.0503 -0.0118
30261W        W46155   4.054   4.894  14.241  0.0907  0.2705 -0.0556
30262W        W46156   6.887  17.170   3.733  0.1654  0.0320  0.0935
30263W        W46157   9.501   3.644   2.112  0.2284  0.0434  0.0494
30264W        W46158  10.453   4.077   4.145 -0.2080 -0.1471 -0.0563
30265W        W46159   1.191   2.075   5.813 -0.1639  0.0880 -0.0336
30266W        W46160  10.084   1.846   0.944  0.3587  0.2799 -0.0185
30267W        W46161   2.607   2.253  13.817  0.2231  0.2050  0.0559
30268W        W46162  10.872   8.803   2.350 -0.1830 -0.1112  0.1677
30269W        W46163  11.835  11.192  10.651  0.0244 -0.0110  0.1321
30270W        W46164  16.078  12.549  15.941 -0.0598  0.0766 -0.3306
30271W        W46165   9.556  12.960   4.836 -0.1026  0.1139 -0.3305
30272W        W46166  15.684   1.037   0.411  0.0597  0.0904  0.2378
30273W        W46167  15.646   7.830   5.898 -0.1232 -0.0438  0.2828
30274W        W46168  13.747  12.878   5.492  0.0047  0.1533 -0.0190
30275W        W46169   1.068   0.496  16.253 -0.3656 -0.0596 -0.6247
30276W        W46170  17.845  15.462   5.002  0.2052 -0.1993  0.0659
30277W        W46171  10.892   1.818  10.870 -0.1232  0.0314 -0.0988
30278W        W46172   9.072  14.036  11.952 -0.1998  0.3422 -0.0975
30279W        W46173  16.434  17.049   3.519  0.0349 -0.0589 -0.0424
30280W        W46174   4.150   1.474   1.504  0.1089  0.0231 -0.4296
30281W        W46175  12.712   4.630   4.432  0.0209 -0.2925 -0.2185
30282W        W46176  15.728   4.652   5.269  0.0087  0.2145  0.2675
30283W        W46177   0.648  16.570   3.892 -0.1305  0.3193 -0.0344
30284W        W46178   1.229  10.277  14.112  0.0754  0.1735  0.1677
30285W        W46179   7.748   8.559   3.022 -0.0667  0.1175  0.0310
30286W        W46180  10.502   4.980   1.205 -0.0047  0.0563 -0.1194
30287W        W46181   9.209  13.131   0.183 -0.0506 -0.2106  0.0391
30288W        W46182  16.456  17.608   1.362  0.0283 -0.0759  0.1791
30289W        W46183  14.535   4.859   2.806 -0.1313  0.2353  0.0319
30290W        W46184   3.425  17.355   0.884  0.3900 -0.0735  0.1394
30291W        W46185   9.390   1.097   5.104 -0.5512  0.1202  0.1855
30292W        W46186   2.312  14.475   6.499  0.1824 -0.0218 -0.1799
30293W        W46187   7.254   3.079   3.581 -0.0871 -0.4052 -0.3754
30294W        W46188   5.298  10.233  15.872  0.2173  0.3195 -0.0073
30295W        W46189  17.467   7.813  12.866 -0.1155 -0.0656 -0.1378
30296W        W46190  10.141   1.342   3.934  0.2096  0.1564  0.0690
30297W        W46191   5.617  13.310  16.346 -0.3744 -0.0622  0.2916
30298W        W46192   0.858   0.069  13.755 -0.3716  0.1369 -0.3514
30299W        W46193   1.662   6.388  13.494  0.1331 -0.0648 -0.2700
30300W        W46194   0.906  13.540   4.593 -0.0896  0.3053  0.1649
30301W        W46195  10.882   3.767   4.828 -0.2918 -0.1129 -0.3230
30302W        W46196   7.650  14.600   4.551 -0.2414 -0.1104 -0.2495
30303W        W46197   2.583  13.474  15.020 -0.0584  0.0816  0.1080
30304W        W46198  16.702  15.173  14.050 -0.0563  0.2519  0.0368
30305W        W46199  15.931  15.021  11.934 -0.0499  0.1682 -0.0546
30306W        W46200   7.111  16.181  12.886  0.1204  0.0744 -0.2123
30307W        W46201  17.391   5.724   4.913 -0.1009  0.0813  0.0625
30308W        W46202  12.083   3.307  13.083 -0.1650 -0.0962  0.0493
30309W        W46203  15.978  13.887   4.453 -0.1097  0.0111  0.3229
30310W        W46204   9.453   6.742   5.268 -0.3740  0.0073 -0.3357
30311W        W46205  17.531   2.684   1.926 -0.0127  0.2439 -0.0258
30312W        W46206   0.304   7.025   3.349 -0.0456 -0.4758  0.5886
30313W        W46207  13.009   0.935  12.660 -0.0930 -0.3160  0.0098
30314W        W46208  12.580   6.426  15.090  0.0525 -0.4479  0.1924
30315W        W46209   1.205  16.960   5.583  0.0387 -0.0401 -0.1127
30316W        W46210   4.704   7.592  12.845 -0.0650  0.0796 -0.0609
30317W        W46211  14.781   5.088  16.084 -0.1409 -0.1434 -0.0542
30318W        W46212  15.010   0.386   4.025  0.2015  0.4867  0.1674
30319W        W46213   2.152  14.900   3.790  0.0787  0.1754 -0.0995
30320W        W46214  13.497   7.418  12.452 -0.0181 -0.1638 -0.2672
30321W        W46215  12.283   7.830   5.057 -0.0804  0.1663 -0.0449
30322W        W46216  10.065  10.679  13.109 -0.2898 -0.3155 -0.2199
30323W        W46217  17.889  15.431   3.262 -0.1474 -0.1138 -0.1245
30324W        W46218   4.495   9.884   0.976 -0.1500  0.1964  0.0440
30325W        W46219   9.138  10.854  13.277 -0.1505  0.1373  0.0383
30326W        W46220   1.644  16.416   0.845 -0.2183  0.0934 -0.0739
30327W        W46221  16.283  16.047   0.802  0.1834 -0.0446 -0.0050
30328W        W46222   7.948   0.697  13.302 -0.1844 -0.3809 -0.1865
30329W        W46223  14.307   1.764  13.832 -0.0516  0.1459  0.0508
30330W        W46224  11.327   7.285   2.478 -0.3552  0.0846  0.0121
30331W        W46225  10.879  16.474  12.215  0.0087 -0.0283  0.1475
30332W        W46226   1.625   0.905   0.111 -0.0875  0.1026 -0.1789
30333W        W46227   6.123   6.395  14.411 -0.0981 -0.0618 -0.4666
30334W        W46228  13.449   7.263   5.102 -0.2171  0.2662  0.0514
30335W        W46229  14.913  10.259   4.015 -0.0093 -0.0086  0.3353
30336W        W46230   3.600  11.813  10.996  0.0773  0.0407 -0.3170
30337W        W46231   7.589  11.485  12.125  0.2488 -0.1024 -0.1390
30338W        W46232  17.290  13.465   5.869 -0.2531 -0.0959 -0.1190
30339W        W46233   5.208  14.599  15.321 -0.1207 -0.2438 -0.0458
30340W        W46234  16.391   0.150  15.957 -0.0276  0.0853  0.2230
30341W        W46235  10.162  14.394  12.508  0.2527  0.3199 -0.0664
30342W        W46236  16.120  14.701   1.602 -0.2196 -0.0779  0.1506
30343W        W46237  11.340   0.095  11.565  0.2084  0.3415 -0.5627
30344W        W46238   9.381   7.344  12.473 -0.0603  0.3984  0.2456
30345W        W46239   7.955   5.477  10.905 -0.1836  0.1137 -0.0454
30346W        W46240   3.980   2.404  16.010 -0.0761 -0.1871  0.2192
30347W        W46241  17.830  15.760   0.454  0.1164 -0.3431  0.0570
30348W        W46242   4.483   6.075  14.178  0.0577 -0.0849  0.1328
30349W        W46243   8.614  11.863   4.708 -0.1541 -0.0121 -0.0110
30350W        W46244  13.301  12.853  11.747 -0.1961 -0.1039 -0.2286
30351W        W46245  10.777   4.767   4.182  0.3432 -0.1895  0.4181
30352W        W46246   3.453   9.136  11.475  0.2369  0.0740 -0.3130
30353W        W46247  11.698  14.728   4.030  0.2499  0.0159 -0.1155
30354W        W46248  15.328  17.107   2.744 -0.0691  0.2376 -0.0713
30355W        W46249  11.903   8.229   5.195 -0.2364 -0.0044 -0.2349
30356W        W46250   8.744   1.995   2.595 -0.3255 -0.2303  0.2916
30357W        W46251  10.764   3.864   3.843  0.0039  0.2331 -0.0199
30358W        W46252   5.659   2.337   3.473  0.0358 -0.0302  0.0938
30359W        W46253   0.144   0.967   1.204 -0.0807 -0.1118 -0.0377
30360W        W46254   4.413  15.100   5.231  0.2183 -0.0682 -0.2203
30361W        W46255  12.753  14.895  16.206  0.2588  0.0473 -0.4116
30362W        W46256  11.489  13.990   6.333  0.1333  0.1948 -0.0129
30363W        W46257   4.571   2.883  14.683  0.1027 -0.0998 -0.0505
30364W        W46258   5.650  10.867  11.244 -0.0705 -0.1111 -0.3589
30365W        W46259   3.762   0.383   2.095 -0.0349  0.0951  0.1888
30366W        W46260  17.876   7.660  13.180  0.1381  0.0543 -0.0554
30367W        W46261   3.170   8.342   2.335 -0.2108 -0.0407 -0.0930
30368W        W46262  10.370   5.373   9.770  0.0217 -0.0387  0.1684
30369W        W46263  14.478   2.248  15.388  0.0182 -0.1247 -0.1836
30370W        W46264  10.260   9.298  12.187  0.0162 -0.2497  0.0603
30371W        W46265   0.873   0.431  12.390  0.1696 -0.4073 -0.3894
30372W        W46266  11.130  12.782  14.004 -0.0227 -0.0826  0.0733
30373W        W46267  10.354  10.028  14.461 -0.0721 -0.1899  0.0287
30374W        W46268  15.145  17.278   1.483 -0.0175  0.3879 -0.0310
30375W        W46269  12.882  14.104   3.455 -0.0469  0.1065  0.1626
30376W        W46270   9.655  11.164  16.397 -0.0738 -0.1832  0.1025
30377W        W46271  16.581   8.461  15.320  0.0173  0.0064  0.5609
30378W        W46272  17.994  13.166  12.239 -0.0567 -0.1843 -0.0541
30379W        W46273   2.395  17.175   5.574 -0.0640 -0.0964  0.0290
30380W        W46274  11.677   2.738   4.459 -0.2467 -0.0471 -0.0176
30381W        W46275   4.114   0.973  15.722  0.1341 -0.1319 -0.2986
30382W        W46276  13.845   7.844   3.337 -0.0840 -0.0488 -0.0178
30383W        W46277  13.954  13.781  13.332  0.0285 -0.2383  0.0541
30384W        W46278   1.182   2.714   5.137  0.1605 -0.2122 -0.0495
30385W        W46279  14.772  18.015   6.477 -0.0737  0.0232  0.3105
30386W        W46280   4.625   2.986  11.388  0.0809 -0.0522  0.0700
30387W        W46281  17.848  17.914   2.824 -0.0394  0.1349  0.3489
30388W        W46282   6.238   1.849  16.359  0.0584  0.0302  0.0123
30389W        W46283  16.817  13.025   2.760  0.1111 -0.0658 -0.1474
30390W        W46284   8.692  12.594  14.786  0.0802  0.1479  0.1485
30391W        W46285  12.049  14.429   3.256 -0.0504  0.0701  0.0389
30392W        W46286  10.992   7.027  14.492 -0.1572 -0.1472  0.2247
30393W        W46287  13.207   2.606   3.715  0.0249  0.5178 -0.6745
30394W        W46288   2.878   6.451   3.702 -0.2880  0.1224 -0.0387
30395W        W46289  15.214  10.434   5.158 -0.4127  0.0371 -0.0040
30396W        W46290   0.438   6.860  11.400  0.4123  0.1005  0.4017
30397W        W46291   1.241   7.548   1.347 -0.0655  0.1224  0.3193
30398W        W46292   3.961  15.376   2.724  0.0155 -0.1312 -0.1488
30399W        W46293   7.858  15.877   1.199 -0.0052 -0.1396 -0.0027
30400W        W46294  13.837  13.361   0.985  0.4981  0.1325 -0.1040
30401W        W46295   9.866  15.205  14.281 -0.1730 -0.1281  0.2751
30402W        W46296  10.115   0.561  12.622  0.0432 -0.0317 -0.0807
30403W        W46297  17.778   6.946   0.510  0.3413 -0.1348  0.1577
30404W        W46298  11.850   3.871   4.528  0.0055 -0.1156 -0.1234
30405W        W46299  15.042   3.860   3.841  0.0063 -0.1516  0.1392
30406W        W46300  12.594   2.122   4.508 -0.2911  0.2280 -0.0749
30407W        W46301  12.114  11.385  13.042  0.0804  0.0803 -0.0709
30408W        W46302  10.076  17.475   0.076 -0.0134 -0.0650  0.2055
30409W        W46303   0.155   2.780   1.511  0.0144  0.1517 -0.1010
30410W        W46304  12.842  14.683   5.699  0.0338 -0.3452  0.2206
30411W        W46305  10.974  15.930   0.566 -0.0581 -0.1973  0.0715
30412W        W46306  18.148   8.600   2.443 -0.1645 -0.0307  0.3465
30413W        W46307   5.802  14.239   0.088  0.2612  0.0515 -0.0008
30414W        W46308  15.354  12.213   3.737 -0.0017 -0.3160 -0.0513
30415W        W46309  10.447   9.643   3.654  0.0612 -0.0760  0.0268
30416W        W46310   1.054  13.356   2.590  0.4195 -0.2659  0.1519
30417W        W46311  13.190   9.471  13.252 -0.0911  0.1022 -0.3695
30418W        W46312  10.509   8.569  16.068 -0.0066  0.0621  0.0142
30419W        W46313   5.709  13.138   5.886 -0.0930 -0.1289  0.1269
30420W        W46314  15.788  16.035  14.361 -0.3578 -0.0971 -0.1094
30421W        W46315  17.564   3.215   5.972  0.0529 -0.1937 -0.1857
30422W        W46316  14.985  15.387  11.828 -0.3943  0.2919  0.2354
30423W        W46317   9.193   4.141   5.336  0.1636 -0.0948  0.0269
30424W        W46318  13.738   0.602  16.322 -0.1450  0.0103 -0.0025
30425W        W46319  11.260   2.070   5.823  0.0872  0.0901 -0.2090
30426W        W46320   7.466   2.601  11.940 -0.1921  0.1228 -0.1665
30427W        W46321  14.142   3.843   0.681 -0.0877  0.0088  0.0418
30428W        W46322   2.990  16.826  12.653  0.0217  0.3659 -0.2439
30429W        W46323   4.052   6.277   1.024 -0.0593 -0.0565 -0.2499
30430W        W46324   8.648  15.919  16.441  0.1462 -0.0780 -0.1915
30431W        W46325   4.535   8.679   3.190  0.0439  0.0092 -0.2214
30432W        W46326  15.415  12.547  15.833  0.0071  0.2214 -0.0506
30433W        W46327   7.634   1.271  10.686  0.2457 -0.0063 -0.1223
30434W        W46328   0.525   0.164  14.840  0.1027  0.0536  0.0394
30435W        W46329  11.971   3.131   4.108 -0.0825  0.1513 -0.0883
30436W        W46330   4.031   1.644   5.978 -0.2790 -0.2121  0.4308
30437W        W46331  15.458  17.752   2.852 -0.0752 -0.0826  0.0037
30438W        W46332  12.187   3.149  11.675  0.0744  0.5229  0.0304
30439W        W46333  13.620  10.862   1.937  0.2762  0.2511  0.0759
30440W        W46334   3.576  16.327   3.077 -0.1699  0.0663  0.0070
30441W        W46335  10.852   7.809  13.901 -0.3027  0.0348 -0.0898
30442W        W46336  12.573  11.630  11.437 -0.0849 -0.1709 -0.0370
30443W        W46337  16.274   4.021  13.301 -0.1279  0.1171  0.0048
30444W        W46338  13.741  13.403  15.967 -0.0516  0.1782  0.0570
30445W        W46339  14.239  12.746  14.069 -0.3210 -0.1341 -0.1947
30446W        W46340  16.249  13.591   3.027 -0.0694 -0.0625  0.1880
30447W        W46341   5.388  16.249   1.405  0.1814 -0.2017 -0.1369
30448W        W46342  12.230  12.476   3.591  0.0534 -0.3175 -0.0577
30449W        W46343  11.882   1.481   0.656  0.0021 -0.0256 -0.2372
30450W        W46344  16.852   7.816   5.017  0.0785  0.1399 -0.1021
30451W        W46345  15.246  13.862  13.114  0.0330 -0.2879  0.0800
30452W        W46346   3.833   2.843   1.925 -0.4898 -0.2540  0.3428
30453W        W46347  13.111   5.942  16.125 -0.0043 -0.0526  0.0752
30454W        W46348  14.306   5.023  14.554 -0.1059  0.0443  0.2294
30455W        W46349  14.454   8.764   1.756 -0.1076  0.4786 -0.1299
30456W        W46350   0.672   6.814  13.612  0.0496 -0.1160  0.0496
30457W        W46351   0.955  12.343   1.922  0.3403 -0.1528 -0.2005
30458W        W46352  14.367   5.187   1.580 -0.2308  0.2258  0.0498
30459W        W46353  13.436  14.564   1.969  0.0408 -0.0503  0.2356
30460W        W46354  12.905  11.953   6.103 -0.0815  0.4586 -0.0431
30461W        W46355  16.698   6.568   2.176 -0.0765  0.1627 -0.4104
30462W        W46356   7.740   4.778   3.158 -0.1076 -0.1498 -0.0712
30463W        W46357  15.712   3.583   1.416 -0.3953  0.2649 -0.1273
30464W        W46358  15.652  14.252  13.204 -0.0220 -0.0182 -0.0457
30465W        W46359  17.897  17.383  12.853 -0.0032 -0.0720 -0.1261
30466W        W46360   5.292   0.475  12.769  0.1787 -0.0653 -0.0687
30467W        W46361   5.203   6.566  14.526  0.1347  0.2288 -0.1175
30468W        W46362   2.103  13.420  12.710 -0.4476 -0.3219  0.1804
30469W        W46363   5.227  10.108  11.924  0.0577  0.3746  0.1157
30470W        W46364  16.945   0.835  13.706 -0.2190 -0.0978 -0.0177
30471W        W46365  12.349  11.903  14.066  0.0248  0.2452  0.1408
30472W        W46366  16.416   1.365   3.064 -0.0973 -0.2028  0.0251
30473W        W46367  10.387  14.835   0.026  0.0274 -0.1000 -0.2910
30474W        W46368   5.407   5.832  11.786 -0.3895 -0.1186  0.2084
30475W        W46369  12.617   1.174  15.214  0.1555 -0.0133 -0.0547
30476W        W46370  16.876   2.348   4.586  0.0044 -0.0934 -0.0196
30477W        W46371   9.088  15.025  16.125  0.0178  0.2725 -0.4272
30478W        W46372  15.188   1.053  16.245  0.1758  0.0197 -0.4952
30479W        W46373   8.792  15.046   1.532  0.0555  0.6066 -0.0157
30480W        W46374  12.435   9.715   3.106  0.1116  0.0572 -0.0639
30481W        W46375   8.699  14.693   5.727  0.1989  0.1276 -0.1651
30482W        W46376  16.535   6.047   0.396 -0.1162 -0.0945 -0.2838
30483W        W46377   9.963   7.665   1.331  0.0619 -0.0313  0.0817
30484W        W46378   8.134   6.107  10.623 -0.2570  0.0233 -0.1655
30485W        W46379  17.361   9.495  12.910  0.3010  0.0908 -0.0404
30486W        W46380   9.134  13.982   5.386  0.4149  0.3867  0.4415
30487W        W46381   2.142   9.890  15.395 -0.1533  0.1767  0.0849
30488W        W46382  13.297   1.774  12.988 -0.0296  0.3112 -0.0190
30489W        W46383   7.100   1.869  13.387  0.2316 -0.0814 -0.2439
30490W        W46384  16.573   8.726   4.800  0.0523  0.0380 -0.0769
30491W        W46385   1.371  12.540   2.613  0.2233 -0.1462 -0.0352
30492W        W46386  11.414  11.437  11.547  0.0746 -0.1485  0.0787
30493W        W46387   9.401  15.525   1.765 -0.0665  0.2746 -0.2340
30494W        W46388  11.182   3.881  16.421 -0.2529 -0.1164  0.1904
30495W        W46389   4.246  16.441  13.343 -0.2185 -0.0376 -0.0004
30496W        W46390  11.338  11.318   3.211 -0.1262 -0.0660  0.0952
30497W        W46391  12.237   0.478   3.351 -0.2309  0.1065  0.0428
30498W        W46392   3.202  10.281   3.970  0.0952 -0.0886 -0.1183
30499W        W46393  13.012  12.865  13.250 -0.2332 -0.1609  0.2714
30500W        W46394  14.688   4.689  13.698  0.3558 -0.0041 -0.1138
30501W        W46395  15.750  12.421  16.365 -0.0361  0.2043 -0.0094
30502W        W46396   9.554   4.307   0.773  0.2325  0.1676  0.0644
30503W        W46397   5.621   1.302   4.558 -0.1339 -0.0958  0.0863
30504W        W46398  17.458   3.576  15.343 -0.0547 -0.0776  0.1937
30505W        W46399   2.619  11.397   5.600 -0.0645 -0.1695 -0.0129
30506W        W46400  17.421  16.207  14.090 -0.0587  0.0813  0.3630
30507W        W46401   7.428  11.014   0.192  0.2154  0.0447  0.0997
30508W        W46402  14.510   7.718  14.958 -0.1198 -0.0806  0.3320
30509W        W46403   1.804   1.919  12.096 -0.0957  0.3508  0.1162
30510W        W46404   9.080  15.939  15.223 -0.0790 -0.3131 -0.0973
30511W        W46405  10.400   4.764  13.426 -0.2094 -0.0232  0.1455
30512W        W46406   4.128   3.870   1.587 -0.0229  0.1419  0.0364
30513W        W46407   9.213  11.516  11.380 -0.1261  0.0728 -0.1456
30514W        W46408   4.008  12.712  15.187  0.1806  0.0963  0.1166
30515W        W46409  14.452  14.550  15.151  0.1358 -0.2793  0.2481
30516W        W46410  13.426   3.111   1.022  0.3009  0.1756 -0.2849
30517W        W46411   0.989   0.123   2.494  0.0966  0.0179  0.2139
30518W        W46412  15.643   4.989  14.338  0.1662 -0.1499  0.0320
30519W        W46413   2.336  15.611  16.411 -0.0684 -0.3833  0.2146
30520W        W46414  15.247  17.634   4.364  0.2003 -0.0942 -0.0808
30521W        W46415  14.880   4.230  13.617  0.1068  0.1559  0.0474
30522W        W46416  10.881  10.526  13.998 -0.0142 -0.0197 -0.0686
30523W        W46417  11.211  14.782   0.288  0.1982 -0.0049  0.0418
30524W        W46418  11.701  14.648   3.484  0.2001  0.0031  0.1851
30525W        W46419  18.194   6.589  15.544 -0.3563  0.2035 -0.3988
30526W        W46420   4.382  13.505   0.521 -0.1264  0.1439 -0.3147
30527W        W46421  12.504   6.191  10.943 -0.1948 -0.1197  0.0244
30528W        W46422   5.465   1.059   2.250  0.1179  0.1015  0.0084
30529W        W46423  14.752   8.214  14.966 -0.2298 -0.0438  0.3979
30530W        W46424  15.934  15.450  14.736  0.3866  0.1390 -0.0242
30531W        W46425   0.257   5.840  13.353  0.2980 -0.0313 -0.0738
30532W        W46426   0.395   4.078  11.912 -0.2525 -0.1044 -0.2149
30533W        W46427  10.380  16.695   0.471  0.1255  0.0465 -0.5010
30534W        W46428   1.926  15.491   1.993 -0.0203 -0.2833 -0.0443
30535W        W46429   7.228  15.005  15.849 -0.0865 -0.0631 -0.3829
30536W        W46430   0.036   1.117  15.817  0.2093 -0.2922  0.2658
30537W        W46431   0.514  11.647   1.587 -0.1004 -0.2072 -0.0423
30538W        W46432  16.936   3.122  14.787  0.1713 -0.0251 -0.0453
30539W        W46433  17.967  11.607  14.065  0.0183  0.0374 -0.1557
30540W        W46434   4.086   7.438  15.089  0.2525  0.1884  0.1747
30541W        W46435  13.853   7.519   2.708  0.1114 -0.1756 -0.1940
30542W        W46436  11.070   5.020   2.004  0.0176  0.1439  0.1895
30543W        W46437   6.275  12.918   2.682  0.0422  0.0510 -0.0503
30544W        W46438   9.708   6.415  13.571  0.3960  0.1701 -0.1970
30545W        W46439   2.124  18.233  16.172  0.2039 -0.2222  0.1476
30546W        W46440   1.241   3.215   0.048  0.2966  0.1813  0.2613
30547W        W46441   1.986   9.277   5.537 -0.0291 -0.7048 -0.0330
30548W        W46442   6.075   2.364  12.485 -0.0703  0.3303  0.1648
30549W        W46443  18.015   3.062  14.918 -0.1467 -0.0880  0.2367
30550W        W46444   8.582  11.505  14.439  0.1229  0.2447  0.1709
30551W        W46445  11.445   2.699   0.077 -0.1723  0.3571  0.1267
30552W        W46446  16.962  15.040   3.211 -0.1344 -0.0426 -0.2009
30553W        W46447  14.234  11.522  14.947  0.1529 -0.0001 -0.2193
30554W        W46448   1.550   7.520   5.097 -0.0500 -0.0014  0.0329
30555W        W46449   5.295   1.266  14.359  0.3266 -0.0772  0.0830
30556W        W46450  15.941   8.434   3.067 -0.2188  0.0567 -0.0812
30557W        W46451   0.906   3.317  15.708 -0.1047  0.0187  0.0897
30558W        W46452   7.806   7.473  14.127  0.1422 -0.1066  0.0310
30559W        W46453   9.629  14.511  14.850  0.1754  0.0123  0.0164
30560W        W46454  14.152  18.144   3.869  0.1309  0.1912  0.0121
30561W        W46455   7.226  15.823  14.010 -0.2430 -0.0488  0.4087
30562W        W46456  11.800  12.295   3.184 -0.1092 -0.2891  0.0189
30563W        W46457   2.241   0.116  12.688  0.4218  0.3393 -0.0178
30564W        W46458  15.205   9.527   5.563 -0.3097 -0.0245 -0.0467
30565W        W46459   6.408   3.974  11.757 -0.0232  0.0699 -0.4170
30566W        W46460   9.357  15.616  15.517  0.1763  0.2137 -0.1300
30567W        W46461   7.216  11.026  14.240  0.0589  0.0909  0.0835
30568W        W46462   7.538   0.354   2.254  0.1936  0.0057  0.0057
30569W        W46463  11.918   8.075  15.772  0.1188  0.4079 -0.2565
30570W        W46464   1.373   8.850   3.582  0.1753  0.0426 -0.1796
30571W        W46465   9.524   9.606  11.350  0.0721  0.2274 -0.0612
30572W        W46466   5.644   2.721  14.163  0.2209 -0.1149 -0.0842
30573W        W46467   1.804   6.271   1.510 -0.0735 -0.0946  0.0369
30574W        W46468   6.022   9.048  13.595 -0.0431  0.2316  0.1087
30575W        W46469  14.592   9.698  12.518  0.0136 -0.0206 -0.1492
30576W        W46470   1.488   2.133   1.474  0.0303  0.0727  0.0406
30577W        W46471   9.477  13.684  12.073 -0.1798  0.1545  0.2052
30578W        W46472   6.586   6.381  15.613  0.0205 -0.0636 -0.1805
30579W        W46473   6.030   7.114  16.285 -0.1264 -0.1292  0.0551
30580W        W46474   4.964   4.821   2.433 -0.0655  0.2011 -0.1003
30581W        W46475  12.346  17.272   3.463  0.2378  0.0622  0.0664
30582W        W46476   5.802   3.424  14.883  0.3809 -0.0680 -0.1295
30583W        W46477   3.600   4.478   5.334 -0.4601 -0.0126 -0.0866
30584W        W46478   9.949   8.332   1.452  0.3211  0.1088 -0.0178
30585W        W46479  12.098  17.826   3.892 -0.3036 -0.1589  0.0259
30586W        W46480  16.688   6.111  12.279 -0.0975  0.0317 -0.2588
30587W        W46481  12.581   8.662  11.132 -0.1512  0.0936 -0.0622
30588W        W46482  16.579  17.754   0.844  0.0044  0.2818  0.2689
30589W        W46483   2.641  16.115   5.566  0.0012 -0.0079 -0.1516
30590W        W46484  17.843   9.945   5.447 -0.0134  0.1333 -0.2031
30591W        W46485  16.044   0.955  16.016  0.0926  0.1795 -0.0352
30592W        W46486  11.574   1.433  15.160 -0.1502 -0.1351  0.1076
30593W        W46487  16.418   8.007  13.794  0.0442  0.0207 -0.0740
30594W        W46488  17.441  13.365  13.108  0.0903  0.0436 -0.0689
30595W        W46489   5.910   5.462   3.946 -0.1854  0.3088  0.1333
30596W        W46490   7.141   1.785  11.836 -0.1455  0.1242  0.0158
30597W        W46491   2.002   5.276   1.945  0.2960 -0.1860  0.2808
30598W        W46492   9.549  13.247   5.419  0.1235  0.2471 -0.1026
30599W        W46493  14.873  13.393  13.245  0.3996 -0.0276  0.0974
30600W        W46494   9.827   1.512  12.795  0.1604  0.0892 -0.0663
30601W        W46495  15.870   9.687  15.301 -0.1896  0.2297  0.1728
30602W        W46496   5.310  10.108   3.276 -0.4206  0.2532 -0.4336
30603W        W46497   6.579   7.677   4.719  0.2284 -0.0320 -0.3767
30604W        W46498  15.108  13.516   0.959  0.1342 -0.0182  0.0024
30605W        W46499  17.668   2.272   5.439  0.0528 -0.2746 -0.0826
30606W        W46500   2.720   6.449  15.445 -0.0470  0.1885 -0.2072
30607W        W46501   0.440  17.527  11.466  0.0306  0.0987  0.1118
30608W        W46502   2.648  16.179  15.367 -0.0646 -0.3152  0.1021
30609W        W46503   6.675   7.836  12.129 -0.0317  0.3531 -0.0819
30610W        W46504  15.406   1.262  11.866  0.1445  0.0673  0.0614
30611W        W46505  14.128   0.050   5.902  0.3555  0.0296 -0.1770
30612W        W46506   6.236   3.088   0.133  0.2458  0.2572  0.1243
30613W        W46507   3.682   1.098  16.015 -0.2507 -0.1609  0.0892
30614W        W46508   8.551  15.971  15.486 -0.1426 -0.1860  0.4256
30615W        W46509  13.844   1.444  12.673 -0.1892  0.1705  0.0518
30616W        W46510   2.956   5.242   3.311  0.2069 -0.1518  0.0264
30617W        W46511  11.103  10.406  12.165 -0.0011 -0.1755  0.0878
30618W        W46512  14.557  17.946  16.138 -0.1319 -0.1251 -0.2364
30619W        W46513   4.462   2.827  12.207 -0.1495  0.0006  0.2731
30620W        W46514  10.064   4.575   3.400  0.2956 -0.1805 -0.0631
30621W        W46515   0.466  11.152   4.351  0.5990  0.1236 -0.0762
30622W        W46516   7.685  13.334  12.414  0.2591  0.1021 -0.0291
30623W        W46517   6.082   3.767  13.916  0.1028  0.3868  0.0551
30624W        W46518   3.988   1.171  14.069 -0.1536 -0.4829 -0.0204
30625W        W46519  14.786   5.321  12.864  0.2928  0.1862 -0.1504
30626W        W46520   7.547   1.388  14.041  0.0990 -0.0235  0.0929
30627W        W46521   2.377   5.225  12.264  0.1947 -0.0501  0.1927
30628W        W46522   0.285  16.674   4.214  0.1367 -0.0672 -0.0682
30629W        W46523  16.148   9.907  12.958  0.2845 -0.1538 -0.0938
30630W        W46524   2.723  12.520   4.266  0.4048 -0.0888 -0.0312
30631W        W46525   9.316  17.971  11.143  0.0179 -0.1455 -0.0586
30632W        W46526  16.529  16.903   5.385  0.2778  0.0364  0.2143
30633W        W46527   8.208   5.310  15.098 -0.1407 -0.2983 -0.1416
30634W        W46528   2.628  13.312   4.857  0.2031 -0.2465 -0.3097
30635W        W46529   0.715  13.071   6.274  0.0082 -0.1450 -0.1458
30636W        W46530   4.049   5.013   1.308 -0.0175 -0.1905  0.3000
30637W        W46531   5.450   5.585  14.218  0.1537  0.3721 -0.0961
30638W        W46532   2.948   3.980  14.757 -0.1903 -0.2848 -0.2128
30639W        W46533   9.766   0.578  14.532  0.1789 -0.1280  0.0485
30640W        W46534  12.854  10.693   2.315 -0.1020 -0.2315 -0.1827
30641W        W46535  16.443  12.971   1.912  0.3202  0.0628 -0.3367
30642W        W46536   6.811  15.467  11.678  0.0653 -0.3461 -0.1444
30643W        W46537  16.688   5.726   0.734  0.0676 -0.0576 -0.1736
30644W        W46538   4.398   8.573  12.468 -0.1340  0.0974  0.1473
30645W        W46539  12.392   3.717   5.744  0.2669 -0.1301  0.1101
30646W        W46540  16.822   1.706   3.502  0.0190  0.0798  0.0101
30647W        W46541   0.216   5.286   1.972  0.2383  0.2986 -0.0218
30648W        W46542  14.575  15.174  13.164 -0.0808  0.3260 -0.2691
30649W        W46543  18.097   8.621   1.022 -0.2140 -0.0328 -0.2250
30650W        W46544  10.140   8.955   4.965  0.0175 -0.1530 -0.0643
30651W        W46545  11.289   5.919  13.537  0.4549 -0.0936  0.1641
30652W        W46546   0.077   0.651  14.869 -0.0312 -0.0662  0.2165
30653W        W46547   1.238   1.406  14.704 -0.0807 -0.1979 -0.0662
30654W        W46548   2.567   0.292   3.650 -0.0369 -0.1152  0.0254
30655W        W46549   8.946   8.667  11.007 -0.1982 -0.2239  0.1907
30656W        W46550  10.113   2.298   1.992 -0.3343 -0.1365 -0.2037
30657W        W46551   9.799  13.417  13.309  0.0232 -0.1373  0.1467
30658W        W46552  17.583  16.936   1.855  0.2165  0.2334  0.0356
30659W        W46553  16.289  14.082  11.935 -0.2459  0.2101  0.2415
30660W        W46554   6.665   7.065   0.959  0.0844 -0.1170 -0.2778
30661W        W46555   4.327   3.888  13.800 -0.0005 -0.1257  0.1800
30662W        W46556  15.459   3.078  11.166 -0.1646 -0.3362  0.1329
30663W        W46557   4.230  16.958  13.293 -0.1191  0.3441  0.0120
30664W        W46558   8.827  11.535   4.396  0.2010 -0.1633  0.1687
30665W        W46559  15.426  16.479  13.282 -0.0188  0.2105  0.2393
30666W        W46560   8.336   8.818   1.521 -0.0508 -0.3091 -0.1276
30667W        W46561  10.501   7.404  13.279 -0.4572 -0.1797  0.0703
30668W        W46562   3.273   7.554   2.338 -0.2514  0.1052  0.1574
30669W        W46563   4.320  15.775   2.521  0.0581  0.2853 -0.1128
30670W        W46564   0.277   0.803  15.407 -0.1258 -0.3528 -0.1903
30671W        W46565   2.013  17.026  16.102 -0.0065 -0.1813 -0.2555
30672W        W46566   3.665  17.025   0.104 -0.1804  0.0215 -0.0336
30673W        W46567  14.732   9.765   1.526  0.0456 -0.4633  0.0208
30674W        W46568   4.453   6.795   2.633  0.1755  0.1200  0.0405
30675W        W46569  13.942  14.477   0.734 -0.1827  0.0438  0.3142
30676W        W46570   2.839   3.309   3.946  0.2510  0.0876 -0.2766
30677W        W46571   2.579  17.700   5.342  0.0172  0.3740 -0.1084
30678W        W46572  11.017  16.498   2.138 -0.1604  0.4979 -0.2573
30679W        W46573   9.790  15.181  11.178 -0.2091 -0.0193 -0.1460
30680W        W46574   8.442   8.907   4.263  0.2076 -0.1111 -0.0219
30681W        W46575   2.799   5.709  12.769  0.2634  0.1642 -0.0727
30682W        W46576  17.325   3.512   0.194 -0.1011  0.0960  0.0761
30683W        W46577   8.503  11.687  14.916  0.2274 -0.0709 -0.1140
30684W        W46578  17.500   6.674  15.355  0.1251 -0.0268 -0.0671
30685W        W46579  11.694  16.238  12.550  0.3152  0.2895 -0.1752
30686W        W46580   6.411  11.180  15.600  0.6347  0.0179  0.2632
30687W        W46581  11.925   7.199  12.697 -0.1921  0.3735  0.0294
30688W        W46582  11.153  15.599   2.095 -0.1377  0.3286 -0.3197
30689W        W46583   0.186   4.678   1.205  0.0810 -0.0012  0.2158
30690W        W46584  12.540  15.133   5.863  0.0769 -0.1984  0.1764
30691W        W46585   3.885  15.807   3.638  0.0004  0.2351 -0.1216
30692W        W46586  13.276   9.353   5.722  0.0762 -0.0012  0.0472
30693W        W46587  11.573   4.559  12.377 -0.1864 -0.2411 -0.1362
30694W        W46588   2.403   4.144  12.527 -0.3031  0.1224 -0.1156
30695W        W46589   6.385   1.279  11.562  0.0422 -0.0947  0.0076
30696W        W46590   1.957   8.381   2.833 -0.1025 -0.1286  0.0514
30697W        W46591   0.804   8.266   0.078  0.0884 -0.1794  0.1273
30698W        W46592  16.700   9.073   1.947  0.4332 -0.1412 -0.1501
30699W        W46593   7.564   1.942  13.589  0.2585  0.2655  0.0611
30700W        W46594   7.123  10.565  14.424 -0.1122  0.0239 -0.1439
30701W        W46595   8.509   1.833  13.600  0.2250 -0.1188 -0.0597
30702W        W46596   3.290   2.741  13.516  0.1669  0.1516 -0.1431
30703W        W46597  12.451   3.674  16.314  0.2413  0.1229  0.1530
30704W        W46598   8.801  17.616   1.270 -0.0428  0.2672  0.2845
30705W        W46599  17.536   2.056   1.182  0.1529 -0.1173  0.1046
30706W        W46600   4.926  10.274   4.785 -0.0970 -0.0373  0.2209
30707W        W46601   5.514  17.136  12.898 -0.1579  0.1557  0.0009
30708W        W46602   6.961  12.698  15.373 -0.1600  0.1363 -0.0631
30709W        W46603  17.821  17.572   5.994  0.0875  0.0194  0.0372
30710W        W46604   0.189   3.053   0.602 -0.1458 -0.1229 -0.3005
30711W        W46605  11.425  17.717  12.331 -0.1103 -0.2209  0.4015
30712W        W46606  16.968   3.539  15.664  0.0207  0.0765  0.0490
30713W        W46607  15.022  14.879  13.978 -0.1217 -0.0339 -0.3030
30714W        W46608   2.018   1.394   0.043  0.2702 -0.0381  0.2058
30715W        W46609  11.318  11.098   2.048  0.1333 -0.2451 -0.0342
30716W        W46610  18.201  11.472  13.630 -0.1871 -0.1959 -0.3679
30717W        W46611  14.395  12.647   1.454 -0.1207  0.0014  0.2045
30718W        W46612  16.998  13.720   1.215  0.1277 -0.0115 -0.0537
30719W        W46613   7.749  17.225  13.681  0.3358  0.0883 -0.1990
30720W        W46614   9.936  15.731   1.954  0.2389 -0.2002 -0.2114
30721W        W46615   4.181   7.695  12.970 -0.1567  0.0812  0.3182
30722W        W46616   6.838   6.516  16.229  0.1070 -0.4643 -0.0230
30723W        W46617   6.308  11.538  16.090  0.1254  0.1476  0.0656
30724W        W46618   5.994  13.464   1.429  0.1745  0.0331 -0.0687
30725W        W46619  14.572   0.193   4.069  0.2795  0.0537 -0.1338
30726W        W46620  14.616  12.055  12.657 -0.2120 -0.2197 -0.2843
30727W        W46621  12.224  10.120   1.277  0.1441 -0.1475  0.2529
30728W        W46622  15.528  15.168   3.589 -0.0509  0.3889 -0.1204
30729W        W46623   7.068  11.363  11.226 -0.1603  0.4131 -0.0235
30730W        W46624   3.319   3.150   4.758  0.1424  0.0868 -0.2967
30731W        W46625   1.606   3.618  13.818 -0.0952 -0.0808 -0.1613
30732W        W46626   1.504   4.505   0.482 -0.0765  0.0327  0.0639
30733W        W46627  14.853  12.045  12.086  0.0494  0.1405  0.2076
30734W        W46628  11.794   4.149  11.446 -0.0060  0.0544 -0.0149
30735W        W46629   3.509  12.019  15.654 -0.3016 -0.0756 -0.0474
30736W        W46630   9.267  11.345   1.949 -0.2725 -0.1229  0.0589
30737W        W46631   6.572   8.473   0.995 -0.3753 -0.0098 -0.0827
30738W        W46632   8.114  12.122   2.940 -0.2136 -0.2319  0.2613
30739W        W46633  14.121   1.158  13.757 -0.2492  0.3002  0.2000
30740W        W46634  14.727  16.410  11.123 -0.2569 -0.2555 -0.3973
30741W        W46635   5.692  12.069   4.813 -0.0755  0.2979  0.0091
30742W        W46636  16.448   2.556  11.329  0.0583 -0.0791 -0.0764
30743W        W46637   1.163   6.472  12.365  0.0664 -0.0303  0.2737
30744W        W46638   9.719  10.845  15.540  0.0365  0.1217 -0.2668
30745W        W46639   2.637  12.890  15.117 -0.1748  0.0347 -0.1536
30746W        W46640  10.852   3.968  12.987 -0.0164  0.0727 -0.0618
30747W        W46641   8.067   7.899  15.747  0.1824  0.2277  0.0567
30748W        W46642  17.832   4.674   6.267 -0.3197  0.1132  0.1284
30749W        W46643  11.847  10.502  11.684 -0.0801  0.2902  0.3472
30750W        W46644   1.042   4.661   4.448 -0.0247  0.0181 -0.0292
30751W        W46645  16.095   1.317   0.656 -0.2722  0.3749 -0.0742
30752W        W46646   9.735   3.541   4.347  0.0658 -0.1750  0.2929
30753W        W46647   0.021   8.008   0.212  0.1165  0.1927  0.1371
30754W        W46648   1.674  13.499   4.630 -0.0571 -0.2361 -0.0715
30755W        W46649   3.814   2.340   3.156  0.0087  0.1421 -0.2061
30756W        W46650  16.099   3.610   0.244 -0.2057 -0.0859 -0.1405
30757W        W46651   8.940  12.365   1.824  0.1119  0.1271  0.0479
30758W        W46652  17.752  14.920   4.764 -0.1951  0.1452 -0.2141
30759W        W46653  12.838  10.215   2.023 -0.4053 -0.1435  0.0177
30760W        W46654  17.503   9.852  12.652  0.0495 -0.1046 -0.0118
30761W        W46655   8.206   2.001   2.238  0.2423  0.0238  0.2025
30762W        W46656  10.034   4.611  11.607 -0.1593  0.1102 -0.2483
30763W        W46657  11.916  16.638   0.552  0.0121  0.0330 -0.1358
30764W        W46658  10.193  15.888  11.728 -0.1798 -0.2540  0.0886
30765W        W46659  12.889   7.117   2.070  0.1274  0.3699 -0.1380
30766W        W46660   1.662   4.571   4.936 -0.2937 -0.2513  0.1388
30767W        W46661  11.782   6.125   3.000 -0.0591  0.3414 -0.1759
30768W        W46662   8.344  11.292  15.283 -0.2376 -0.2686 -0.0069
30769W        W46663  14.187   9.156   1.574 -0.1036 -0.0266 -0.2557
30770W        W46664   4.523  14.905   4.058 -0.1591 -0.2194  0.2408
30771W        W46665   4.112   1.071   3.053 -0.0649  0.2534  0.1154
30772W        W46666  13.377  14.315   1.539 -0.1792  0.0283 -0.2721
30773W        W46667   2.342   8.636  12.118  0.1024 -0.0254 -0.1525
30774W        W46668  12.795   2.572  14.674 -0.1873 -0.2286  0.3455
30775W        W46669   8.095   1.695   5.291  0.1490  0.0575 -0.0580
30776W        W46670   6.209  15.630   3.260  0.0078  0.1968 -0.0640
30777W        W46671   2.634  15.245   5.178 -0.0876 -0.1137 -0.1776
30778W        W46672  12.279   3.866   2.399 -0.1820  0.2529 -0.3200
30779W        W46673   7.113   4.372  11.241 -0.1314 -0.0987  0.0231
30780W        W46674  16.690   2.466   5.097 -0.4153 -0.1688 -0.0634
30781W        W46675  15.907  10.668  14.893  0.0835  0.0022 -0.5457
30782W        W46676  16.453  15.584   5.349  0.1070 -0.0666  0.1553
30783W        W46677  11.464  12.350   1.732 -0.0736  0.0722 -0.1218
30784W        W46678  12.892  17.691   1.459 -0.1047  0.1673 -0.1182
30785W        W46679  14.229   9.672   0.831 -0.1253 -0.1621  0.1083
30786W        W46680   6.127   0.492  13.414  0.4188  0.0661  0.3843
30787W        W46681  15.270   1.615   1.677 -0.0923  0.0655 -0.0976
30788W        W46682  18.236  12.496  12.721 -0.1343 -0.0654 -0.0038
30789W        W46683  10.401   1.047   2.037  0.4485 -0.0944 -0.1541
30790W        W46684  15.843  12.379  15.473 -0.2469  0.1804  0.0680
30791W        W46685   0.162   8.864  13.162 -0.1764  0.1370 -0.1895
30792W        W46686   8.618   8.031  16.461  0.0464 -0.2585 -0.0819
30793W        W46687   2.921  14.037   3.378  0.1807 -0.0636  0.0773
30794W        W46688   5.244  15.097   5.155  0.0113  0.0163 -0.1163
30795W        W46689  11.054   5.286  12.241 -0.1891  0.0304  0.1785
30796W        W46690  12.431   7.659   3.269  0.4505 -0.2517  0.0339
30797W        W46691  17.403  13.768  14.563  0.2545  0.3109  0.2264
30798W        W46692  14.345   6.590   0.633  0.1561  0.0283 -0.0589
30799W        W46693   0.866  16.944   4.121  0.0969 -0.0718 -0.3252
30800W        W46694   1.241   1.610   5.096  0.3476 -0.0617 -0.2340
30801W        W46695  14.967   9.698   4.065  0.1132  0.0956 -0.2030
30802W        W46696  11.659  13.183   5.661 -0.0316 -0.2902  0.3611
30803W        W46697   6.149   3.474  10.090  0.0044 -0.0417 -0.1109
30804W        W46698   2.160  12.826  12.580 -0.0952 -0.0440  0.1396
30805W        W46699  16.143  12.104   3.990 -0.2096 -0.0635  0.1325
30806W        W46700  14.124   4.844  13.067 -0.0152  0.0448 -0.1175
30807W        W46701   6.968   1.135   0.732 -0.1242  0.0341  0.2260
30808W        W46702   9.431   1.849  12.528 -0.0291 -0.0674 -0.1637
30809W        W46703   0.490  14.218  15.144 -0.1637 -0.2213  0.1586
30810W        W46704  10.189  15.951  15.415 -0.1570  0.5395  0.1485
30811W        W46705  15.479  14.323   5.311  0.1863 -0.1076  0.0417
30812W        W46706  12.015   7.111   3.901 -0.2071  0.1428  0.0273
30813W        W46707   4.643  16.967  12.058  0.0287  0.0468  0.0001
30814W        W46708   9.544   8.315  11.670  0.1934  0.1726  0.2400
30815W        W46709  17.790  10.144  16.421 -0.0720  0.2931  0.0430
30816W        W46710   9.487  12.622  15.082 -0.2258  0.2118 -0.4412
30817W        W46711   9.592   2.301  12.542 -0.0270  0.1059  0.1394
30818W        W46712   5.706  13.763  13.427 -0.1582 -0.0995 -0.0563
30819W        W46713   0.523   9.232   0.803 -0.0203 -0.0777  0.1135
30820W        W46714   4.962   5.255   1.082  0.1778  0.0296 -0.0723
30821W        W46715   7.839  10.360  14.557 -0.0835 -0.4163  0.0958
30822W        W46716  15.407   9.713  15.109 -0.1897 -0.0704  0.2655
30823W        W46717  13.373   4.638   5.015  0.0680  0.1818  0.0405
30824W        W46718   6.895   3.490  15.808 -0.0039  0.0273 -0.2204
30825W        W46719  10.163  11.370   0.122 -0.1026  0.0451 -0.0263
30826W        W46720  12.498  17.063  12.707  0.1153  0.1367 -0.1136
30827W        W46721  13.660  15.904  15.646 -0.0212 -0.0218  0.0917
30828W        W46722   4.832   7.490  10.947  0.1367  0.0464 -0.3199
30829W        W46723  17.235   1.950   5.388  0.1818  0.1874 -0.0337
30830W        W46724  17.274   2.143  15.761 -0.0202  0.1493  0.2837
30831W        W46725   8.252  15.641   4.570  0.3105 -0.1432 -0.0631
30832W        W46726   0.350  17.954  16.266 -0.1290  0.0504  0.0653
30833W        W46727  12.782   5.440   0.202  0.0280 -0.1219  0.1276
30834W        W46728  11.014   6.480  10.732 -0.3169 -0.2095  0.1057
30835W        W46729  17.585  16.784  13.462 -0.1164 -0.0539 -0.0952
30836W        W46730   6.203  15.839   5.788 -0.0674 -0.1125  0.0343
30837W        W46731   6.299   3.516  16.337 -0.4386 -0.1777  0.2520
30838W        W46732  10.824   7.929  14.934 -0.2520  0.1261 -0.1171
30839W        W46733   5.902   8.780   0.027  0.0912 -0.1297 -0.1152
30840W        W46734   6.528   9.677  13.544 -0.0463 -0.1633 -0.0323
30841W        W46735   8.650  17.773  13.418 -0.1515 -0.0254 -0.1048
30842W        W46736  12.272   7.752   2.768  0.0498 -0.3465  0.0938
30843W        W46737  14.710  15.920  15.683 -0.0526 -0.0854 -0.0789
30844W        W46738   5.090   9.879   5.098 -0.1324  0.1496 -0.0777
30845W        W46739  11.377  12.430   0.480 -0.0371  0.3356 -0.1698
30846W        W46740  14.943   0.288   2.772 -0.1467 -0.3039  0.0963
30847W        W46741   6.631  10.971   4.512  0.2202 -0.1247 -0.1959
30848W        W46742  13.889  11.340   0.679  0.0007  0.3621 -0.0473
30849W        W46743  14.340  12.712   0.426  0.1270  0.4035 -0.1659
30850W        W46744  10.668  15.687   2.967 -0.2299 -0.0094  0.2129
30851W        W46745   3.591   8.566   0.254 -0.2625  0.0639  0.0028
30852W        W46746   1.531   5.462   2.021  0.0474  0.1928  0.1113
30853W        W46747   0.732  14.724   4.558  0.0231 -0.1105  0.0861
30854W        W46748   8.659  12.924  11.828 -0.1070  0.0320 -0.0650
30855W        W46749  12.123  13.793  15.736 -0.1596 -0.1871  0.1169
30856W        W46750  11.917   4.908  12.738  0.0435 -0.2229  0.1636
30857W        W46751   4.004  17.713   2.577  0.2464  0.1228 -0.0638
30858W        W46752   5.212  11.579  14.022  0.0915  0.0428 -0.1188
30859W        W46753   8.208  13.209  11.534  0.0965 -0.0689 -0.0047
30860W        W46754  14.242   8.963   5.011  0.2448 -0.0720 -0.1009
30861W        W46755   1.242  12.249   1.159 -0.0808 -0.2317  0.2143
30862W        W46756  17.535  17.631   2.540 -0.0593  0.2908 -0.3376
30863W        W46757   1.856   4.624  16.445 -0.0422  0.0063  0.1302
30864W        W46758   3.717   6.316   5.154 -0.0183  0.0064  0.2371
30865W        W46759   6.003   1.782  13.117 -0.3197  0.0409  0.1016
30866W        W46760   5.048  17.629  14.709  0.0652  0.2274  0.0000
30867W        W46761  10.327   4.201  13.706 -0.1391  0.1115  0.1080
30868W        W46762   2.778   0.082   1.539  0.1408 -0.0222  0.1566
30869W        W46763   3.591  11.487   0.822  0.0616 -0.2294 -0.2927
30870W        W46764  14.052   2.498  12.537 -0.2006  0.1636 -0.2637
30871W        W46765   4.132   3.383  10.847  0.0094  0.1062  0.0311
30872W        W46766   7.355   6.505  11.747 -0.1373 -0.0083  0.0814
30873W        W46767  14.692   2.175   0.905 -0.0447 -0.3733  0.1189
30874W        W46768   1.990   2.339  15.169  0.4450  0.0764  0.2660
30875W        W46769   1.127  17.415   0.168  0.2808 -0.0411 -0.1185
30876W        W46770   0.080  12.018   0.791 -0.1246 -0.0336 -0.0604
30877W        W46771  17.507   3.311  12.555  0.2192 -0.0032 -0.0445
30878W        W46772   2.452   5.201   3.654 -0.2592 -0.0863  0.2510
30879W        W46773   0.907   2.491   6.466 -0.1860  0.1718  0.1648
30880W        W46774   2.968  11.911   1.582 -0.2415  0.0085  0.1390
30881W        W46775   1.860  16.189   4.280 -0.0892  0.1481  0.2448
30882W        W46776  17.958   1.384   1.803  0.2750 -0.1937  0.0930
30883W        W46777  15.021   2.565   1.147  0.0969  0.1198 -0.0171
30884W        W46778   5.874   7.927  15.785  0.0352  0.2830  0.3499
30885W        W46779   8.671  10.173  14.745  0.1803  0.0738  0.1489
30886W        W46780   6.587  13.486  13.375  0.0449 -0.0690  0.0290
30887W        W46781   9.599  12.411   3.909  0.2051 -0.2644 -0.1900
30888W        W46782   5.341  13.270  14.577 -0.3311 -0.1677 -0.3136
30889W        W46783   2.309  14.812   6.043  0.0315  0.2552 -0.0142
30890W        W46784   9.631   3.084   0.220 -0.2053 -0.0159  0.4428
30891W        W46785  10.751  13.281   0.506  0.1547  0.0691 -0.0187
30892W        W46786  11.382  13.343   1.254 -0.4021  0.4667 -0.1601
30893W        W46787   0.669   2.406   4.215  0.0678  0.3392 -0.1234
30894W        W46788   2.611   9.748   4.155  0.1144 -0.1928 -0.2191
30895W        W46789  13.319   5.943  11.416 -0.0342 -0.0918 -0.1105
30896W        W46790   4.903  16.804   0.849  0.1555 -0.1199 -0.0036
30897W        W46791  17.891  16.935  12.536 -0.2857  0.1094 -0.0517
30898W        W46792   2.833   1.777  11.335  0.1630 -0.3006  0.1151
30899W        W46793  11.211  12.688   3.340 -0.0678  0.1055  0.0721
30900W        W46794  17.976  12.420   2.998  0.0208  0.1273  0.1112
30901W        W46795   2.571  18.046  12.231  0.3609 -0.1105  0.2221
30902W        W46796   6.397   8.086   1.806  0.2619 -0.0551 -0.1011
30903W        W46797   7.738  15.026   4.294  0.2158 -0.0722  0.1933
30904W        W46798   0.318  13.279   0.347 -0.0682 -0.2444 -0.0871
30905W        W46799  16.680   5.840  14.173 -0.2615 -0.1065  0.0001
30906W        W46800  12.318   5.276   5.048  0.2571 -0.3252 -0.0477
30907W        W46801  16.559   5.533  15.135  0.0548 -0.0709 -0.2568
30908W        W46802   1.456  11.503   2.605  0.2545  0.0371 -0.0181
30909W        W46803  10.040   7.759   3.096 -0.0211  0.1156  0.1532
30910W        W46804  17.447  13.572   4.616  0.0571 -0.1486  0.0372
30911W        W46805   8.806   4.213  14.054 -0.2131 -0.2802 -0.2310
30912W        W46806  15.783  17.829   0.321 -0.1528 -0.1640 -0.1168
30913W        W46807   7.988  11.483  15.923  0.0064 -0.4214  0.0489
30914W        W46808  13.322   8.468   3.425  0.2023 -0.0578 -0.3955
30915W        W46809  10.245   0.448   0.086 -0.0646 -0.1862 -0.1740
30916W        W46810   4.016  17.120  13.735 -0.0117  0.2263  0.3141
30917W        W46811   7.561  17.009  13.032  0.4517  0.2109 -0.3058
30918W        W46812  17.087   7.401   3.118  0.2543 -0.0399 -0.2489
30919W        W46813   0.244   6.023  14.879 -0.1973  0.2119  0.1465
30920W        W46814  16.086   0.848   0.775  0.1855 -0.3202  0.0952
30921W        W46815  10.919  11.422   2.276  0.1685 -0.3011  0.0460
30922W        W46816  13.775   9.732   4.446 -0.2420 -0.1143 -0.0903
30923W        W46817   5.484   8.558   4.116  0.0181 -0.0799 -0.0652
30924W        W46818  17.710   8.253  12.598  0.1481  0.0276 -0.2238
30925W        W46819   1.297  17.557  15.905 -0.1023  0.2461  0.1662
30926W        W46820  12.975  11.682   5.130  0.0391 -0.0105  0.1138
30927W        W46821  10.144   1.473   4.916  0.1080 -0.1585  0.2442
30928W        W46822   6.601   4.081   3.100  0.0334  0.1236 -0.3234
30929W        W46823  17.034  15.341   0.172 -0.1472  0.1174  0.0281
30930W        W46824   9.144   2.580   0.395 -0.0431 -0.3781  0.3803
30931W        W46825   2.838  16.593  12.210 -0.1578  0.1248  0.0376
30932W        W46826   8.666  16.065   0.522  0.4386 -0.1042  0.0930
30933W        W46827  14.745  11.335   4.781 -0.1462 -0.3313  0.0787
30934W        W46828  17.268   2.363   4.883  0.0751  0.2706  0.1520
30935W        W46829  15.781   9.148   0.680 -0.1006  0.0192  0.1907
30936W        W46830  16.472  10.677  16.127 -0.1571 -0.0452 -0.1158
30937W        W46831   1.918  16.532  13.455 -0.2294  0.0136 -0.0439
30938W        W46832  18.179  15.646  14.279  0.0513 -0.0686 -0.2462
30939W        W46833  12.319  10.297  11.612  0.0084 -0.0848 -0.0848
30940W        W46834  14.856   7.157  15.403 -0.1289 -0.0643  0.0012
30941W        W46835  10.238  12.607   0.617 -0.0618 -0.2712 -0.1612
30942W        W46836   8.454   4.583   2.638  0.1763  0.1434  0.0547
30943W        W46837  12.295  15.341  13.479 -0.0281  0.0388  0.0065
30944W        W46838   5.879  17.090   1.196 -0.2684  0.0109  0.1601
30945W        W46839   5.457  16.368   0.140  0.1604  0.0610  0.2799
30946W        W46840   9.717   1.766  15.042 -0.1832 -0.0359 -0.1592
30947W        W46841  15.666   5.985   4.889 -0.3533  0.2016 -0.0568
30948W        W46842   6.713  16.677   1.494  0.2050  0.1914 -0.1515
30949W        W46843  15.752   0.370   3.995  0.5591  0.1542 -0.0839
30950W        W46844   5.204   9.392  11.882 -0.0755 -0.1038  0.2947
30951W        W46845   2.469   1.835  14.880 -0.0065  0.1280 -0.0366
30952W        W46846   7.060   4.405  15.547  0.2255 -0.2548 -0.0804
30953W        W46847  17.963  10.662  14.214 -0.1915  0.1800 -0.1663
30954W        W46848   4.408  17.322   0.714  0.0362  0.0956  0.1764
30955W        W46849  13.742   2.260  13.082 -0.0753 -0.1791 -0.3639
30956W        W46850   9.172  16.005  16.300 -0.0104 -0.0090 -0.3307
30957W        W46851   4.644   0.294  14.704 -0.0876 -0.3267  0.1437
30958W        W46852   4.945  16.523   0.209  0.0663 -0.4019  0.3096
30959W        W46853  13.899   9.850  16.121  0.1762  0.2586 -0.1292
30960W        W46854   6.050   9.191  13.038  0.4360 -0.0739 -0.4658
30961W        W46855   9.873  11.048  12.757 -0.2799 -0.0928  0.2049
30962W        W46856   5.991   8.105  11.172 -0.1633  0.3827  0.1561
30963W        W46857   0.092  17.003  12.864 -0.1215 -0.2696  0.2342
30964W        W46858   4.915   7.824   3.076 -0.1714  0.1912  0.1147
30965W        W46859  18.229  15.619   2.316  0.3280 -0.1066  0.1681
30966W        W46860  10.666  10.903   1.075  0.0659 -0.0250  0.1985
30967W        W46861   0.568  12.109  14.040 -0.3188  0.0467 -0.0907
30968W        W46862   1.312   7.686   2.783 -0.1346  0.5687  0.0725
30969W        W46863   4.839  16.731  11.285 -0.1526  0.2759 -0.1007
30970W        W46864  14.678  16.074   3.374 -0.2867  0.1990  0.4841
30971W        W46865   0.060   2.640   5.063 -0.3700 -0.5349 -0.3431
30972W        W46866   9.376   8.453  14.825 -0.3382  0.2576 -0.3418
30973W        W46867  10.698   9.258   2.433  0.2222  0.0502 -0.3057
30974W        W46868   8.760   3.280  15.454 -0.1012  0.0292 -0.2783
30975W        W46869  12.471   2.665   0.140 -0.1256  0.3288 -0.1445
30976W        W46870   9.130   3.985   1.552  0.0999  0.1400  0.0622
30977W        W46871   7.018  13.701  13.002 -0.0713  0.0642  0.4177
30978W        W46872  10.831  13.631  13.436 -0.5303 -0.1539 -0.0286
30979W        W46873  17.336  15.486   4.565 -0.3055 -0.2036 -0.1789
30980W        W46874   4.008  17.551   5.656  0.2153 -0.2375 -0.1236
30981W        W46875  11.315   9.375   3.222 -0.2981  0.1198  0.1822
30982W        W46876   6.761   3.121  11.471  0.0321  0.1081 -0.2489
30983W        W46877  10.217   9.500   3.140 -0.2901  0.1953 -0.2381
30984W        W46878   8.471  13.151   2.887 -0.1643  0.2926 -0.0761
30985W        W46879  13.244  15.912  15.285  0.2509 -0.0426 -0.4340
30986W        W46880   0.771   3.345  12.137  0.0788  0.0068  0.4436
30987W        W46881  16.683  10.712   1.419 -0.1360 -0.0589 -0.0413
30988W        W46882   6.065   7.373   3.825  0.1043 -0.2447  0.2345
30989W        W46883  10.972   0.172  15.082  0.0973  0.2884 -0.1092
30990W        W46884   1.805  15.658  11.495  0.1013 -0.0608  0.0185
30991W        W46885   8.958   3.632  12.941  0.0479 -0.0488 -0.1459
30992W        W46886  12.228   6.509  11.302 -0.1543 -0.2435  0.0598
30993W        W46887   5.656   1.720   4.289  0.2221  0.0192  0.3840
30994W        W46888  16.329  12.156   0.451  0.2064 -0.0302  0.1323
30995W        W46889   6.348   5.828  13.603  0.1946  0.0141 -0.0150
30996W        W46890   4.345   1.359   4.815  0.2034  0.0092  0.0222
30997W        W46891  13.012   3.254   4.464 -0.1508 -0.0037 -0.0746
30998W        W46892   5.639  17.797   0.560  0.3707  0.0326 -0.2448
30999W        W46893   5.598   3.931  14.911  0.1695 -0.0256 -0.1125
31000W        W46894  14.307  13.205  15.260 -0.3718  0.2952 -0.5500
31001W        W46895   5.771   5.752  12.119  0.0281  0.0681  0.0766
31002W        W46896   4.407   8.648   4.855 -0.0957  0.0701  0.1180
31003W        W46897  13.852   2.449   2.826 -0.2108 -0.0328  0.1300
31004W        W46898   3.773  16.226   4.999  0.0025 -0.3516  0.3383
31005W        W46899   7.829  11.057  11.849 -0.1175 -0.1389 -0.2299
31006W        W46900   5.350   7.278   5.217 -0.2830  0.0945  0.0114
31007W        W46901   8.214   8.318   1.596 -0.0425 -0.2650  0.0088
31008W        W46902  12.813  10.694   4.604  0.0293 -0.0780 -0.0977
31009W        W46903   3.753   8.139  16.418  0.0161  0.1144  0.2161
31010W        W46904   0.274  12.210  16.362 -0.0267 -0.1673 -0.0347
31011W        W46905   4.733   6.379  16.104 -0.0822 -0.3497  0.0677
31012W        W46906   3.767   1.475   0.328  0.1702  0.1437 -0.0826
31013W        W46907  14.919   3.040  14.111  0.2899  0.1004  0.1356
31014W        W46908  14.394  10.444  15.005  0.1627  0.1542 -0.0956
31015W        W46909  17.021  14.524  13.374 -0.0838  0.0317  0.0390
31016W        W46910   7.129  11.074  12.802  0.2217 -0.1186 -0.0093
31017W        W46911   5.476   4.583  14.088  0.2477  0.0536  0.3174
31018W        W46912   6.732  15.169   1.672  0.1976  0.1809  0.0371
31019W        W46913  17.783   3.558   5.633 -0.2346 -0.2072 -0.1002
31020W        W46914  10.262  15.664  15.926  0.0470 -0.0694 -0.0653
31021W        W46915   2.781  15.213  13.521  0.2293  0.0172 -0.4144
31022W        W46916  16.176  11.549   4.787  0.0160  0.1512  0.4637
31023W        W46917  11.326   2.022   4.161  0.2692  0.1144 -0.1284
31024W        W46918   3.847   9.680  13.128  0.0539 -0.2035 -0.0423
31025W        W46919  10.867  15.702  11.705  0.2496  0.3938  0.0008
31026W        W46920   1.443   3.553  12.511 -0.2742  0.1030  0.2582
31027W        W46921  12.446   5.569   6.108 -0.3554 -0.2140  0.2452
31028W        W46922  13.482   7.044  11.517 -0.1075 -0.0365  0.0200
31029W        W46923   5.772  13.423   2.357  0.0405 -0.1430 -0.0970
31030W        W46924   6.102  10.479  12.029  0.0554  0.3471  0.0985
31031W        W46925  13.630   4.971   4.173 -0.0373  0.3169 -0.2957
31032W        W46926   7.103  17.835  15.588 -0.1410 -0.1843  0.4512
31033W        W46927  12.407  10.796  14.326 -0.2414 -0.1620  0.1052
31034W        W46928  10.807   3.485   0.619 -0.1695  0.0556  0.0181
31035W        W46929   4.976  13.339   5.152 -0.2515  0.2004 -0.0245
31036W        W46930  15.018   7.549  15.671 -0.3233  0.2264 -0.1778
31037W        W46931   7.842  18.093   4.021 -0.0809 -0.2848  0.1553
31038W        W46932   1.294   5.754  11.905 -0.0204  0.1123 -0.3214
31039W        W46933   3.696  13.586  13.523 -0.0272  0.1058 -0.0754
31040W        W46934   6.119  17.181  11.506  0.1922  0.2362  0.3035
31041W        W46935   3.727  13.282   2.447  0.3020  0.4862 -0.3284
31042W        W46936  11.320  11.022  12.793  0.0855  0.2012 -0.0526
31043W        W46937   8.573  15.867   6.318 -0.0192  0.0483  0.0292
31044W        W46938   3.162   8.592  13.422 -0.0786 -0.1643  0.0712
31045W        W46939  15.866  14.065   5.528  0.0211 -0.2705 -0.0194
31046W        W46940  16.391  16.574   3.558  0.0841  0.3122 -0.3920
31047W        W46941   6.133  17.743   2.656  0.0426 -0.0741  0.0619
31048W        W46942  14.722   3.325   2.398 -0.0329  0.5226 -0.0659
31049W        W46943  13.358  10.105   2.916 -0.0967 -0.0551  0.1019
31050W        W46944   0.226  16.056  14.204  0.1285  0.2784 -0.2140
31051W        W46945   6.830  15.434  14.662 -0.0889 -0.0153 -0.0149
31052W        W46946  16.359  16.158   6.222 -0.0906 -0.2401 -0.0189
31053W        W46947  11.427  14.689  12.720 -0.1225 -0.0744  0.1706
31054W        W46948   8.269   4.224  14.676  0.0827 -0.0399  0.0403
31055W        W46949   1.985  13.947   3.885  0.1014  0.0792 -0.0958
31056W        W46950   4.058   2.455   1.706 -0.0757 -0.4392  0.1230
31057W        W46951   7.538   2.155  16.076 -0.0712  0.2536  0.2517
31058W        W46952  13.246   0.273  15.263  0.1247 -0.0469 -0.1202
31059W        W46953   9.024   6.958  15.475  0.0186 -0.0762 -0.0203
31060W        W46954  17.309   4.196  11.446  0.0798  0.0333  0.0676
31061W        W46955   0.555   7.653  13.164  0.0763 -0.1601 -0.2175
31062W        W46956   5.106   4.458   2.136  0.2480  0.0783  0.0208
31063W        W46957   8.343   9.802   4.904  0.1672 -0.2680  0.1115
31064W        W46958   6.218   8.063  11.604  0.0609 -0.0828 -0.2761
31065W        W46959  10.225  14.113  11.822  0.2968 -0.0638 -0.1070
31066W        W46960   7.054   3.154  14.085  0.0400 -0.2088 -0.0249
31067W        W46961   3.202   6.000  12.716  0.0860  0.2547 -0.0770
31068W        W46962  17.525  10.117   4.059 -0.3751 -0.1272 -0.2747
31069W        W46963   2.738  18.095   4.559 -0.1414 -0.2501  0.1824
31070W        W46964   2.658  10.611  15.675 -0.0702  0.0764 -0.1839
31071W        W46965  13.995   2.311  15.620 -0.1886 -0.1426  0.3035
31072W        W46966  17.404  14.833  13.448 -0.1046 -0.0878 -0.0208
31073W        W46967   3.993   5.962   3.457  0.3849  0.3087 -0.0867
31074W        W46968   6.789  16.005  13.877 -0.0107 -0.2934 -0.0468
31075W        W46969  15.755  18.075  15.258  0.0220  0.0901 -0.1004
31076W        W46970  15.141   5.666   2.654  0.0982  0.1791  0.0687
31077W        W46971   3.807  14.747  15.350  0.3310 -0.3034  0.3274
31078W        W46972   4.398   2.833  15.715  0.1376 -0.3198  0.0618
31079W        W46973   2.452   4.850  14.836 -0.0532 -0.1490  0.1213
31080W        W46974  12.697  18.016  12.490 -0.0803  0.0203 -0.0154
31081W        W46975   5.388  17.657  13.315  0.2035 -0.0592  0.0335
31082W        W46976   2.852  17.738  11.764 -0.1915  0.0241 -0.1502
31083W        W46977  10.875   5.221  12.794  0.2521  0.0131 -0.3517
31084W        W46978  11.111   2.639  14.603  0.2496  0.0532  0.0257
31085W        W46979   4.100   5.361  13.387  0.1112  0.0554  0.0827
31086W        W46980  15.054   1.638  13.702  0.1873 -0.0758 -0.0856
31087W        W46981   3.141   7.258   4.149 -0.2481  0.1250  0.0728
31088W        W46982   2.975  14.326  14.511  0.2309 -0.0960 -0.0688
31089W        W46983   5.921  10.443  12.907  0.0676 -0.5545 -0.0279
31090W        W46984  16.099  15.082  13.415 -0.0317 -0.3519 -0.0667
31091W        W46985   6.749  11.281   3.672  0.1863  0.1151  0.2569
31092W        W46986   3.664   6.012  12.374  0.1927  0.1426 -0.1443
31093W        W46987   3.041   0.841  11.733  0.0840  0.2104  0.0794
31094W        W46988   7.193  13.858  12.356  0.3401  0.1812 -0.0277
31095W        W46989  17.253   2.696  15.494 -0.0455  0.1501  0.3169
31096W        W46990   1.874  12.086  16.371 -0.0127  0.1318  0.3130
31097W        W46991   3.308  10.496  14.302 -0.1466  0.2742 -0.0115
31098W        W46992  10.892   9.338  15.042 -0.0554  0.1957 -0.1171
31099W        W46993  17.602  14.118  14.112  0.0934  0.0936 -0.0451
31100W        W46994   5.218   9.782  14.722  0.0815  0.0044 -0.3151
31101W        W46995  16.333  15.996  14.683 -0.1358  0.2039  0.0871
31102W        W46996   9.412  15.639  14.474 -0.3732 -0.3679  0.2881
31103W        W46997   7.863   6.512  15.213  0.2221  0.0001  0.4162
31104W        W46998   2.759   4.421   0.300  0.0744  0.2149  0.2591
31105W        W46999   5.836   0.027  15.778 -0.1533  0.2285 -0.2436
31106W        W47000  12.273   4.809   4.193 -0.1165  0.0416  0.1845
31107W        W47001  15.684   9.153   4.010  0.1771 -0.3078  0.0621
31108W        W47002  17.864   6.423   3.571 -0.3676 -0.0487 -0.0349
31109W        W47003   9.803   3.164   1.424  0.0457  0.0282 -0.0496
31110W        W47004  14.637   2.917   0.064  0.1571  0.1274  0.0758
31111W        W47005  13.078   9.662   1.042  0.0493  0.1942 -0.2083
31112W        W47006   5.711  18.071  13.354 -0.1300 -0.1548  0.1418
31113W        W47007   4.205   1.506  11.979  0.0811 -0.0846 -0.1319
31114W        W47008  16.236   3.053  12.956 -0.2385  0.0222  0.2878
31115W        W47009  13.357   9.112   2.800  0.3038  0.1607 -0.0184
31116W        W47010   8.129  14.104   3.772  0.0928  0.2786 -0.0294
31117W        W47011   0.363   1.206   5.206 -0.1314  0.1054  0.1271
31118W        W47012  12.983   9.278   2.475  0.2498  0.3121 -0.2076
31119W        W47013   2.898   1.498  12.484  0.2015 -0.0549 -0.0035
31120W        W47014  11.042   0.388   5.338 -0.1032 -0.1751  0.2270
31121W        W47015  15.454   2.925  13.302 -0.0696 -0.2251  0.0571
31122W        W47016  16.059  16.097  12.529 -0.0442  0.0883  0.1548
31123W        W47017   8.837   9.791   4.744 -0.1886 -0.0184  0.4120
31124W        W47018   3.236  11.359  14.434  0.0077 -0.0147 -0.1188
31125W        W47019   7.292   9.205   1.349 -0.2470  0.1016  0.2814
31126W        W47020   5.555  17.867  12.029 -0.1808 -0.1259 -0.1543
31127W        W47021  13.589  13.515  15.414 -0.1422 -0.0780 -0.2086
31128W        W47022   0.218   0.695   5.066  0.1683 -0.0919 -0.0408
31129W        W47023  14.838   3.380   1.395  0.2128 -0.0204  0.0843
31130W        W47024  12.756   3.556   3.130  0.1950 -0.2040  0.1307
31131W        W47025  11.345   8.301  15.027  0.0966 -0.1308  0.0099
31132W        W47026  14.948  12.215   0.235 -0.0525  0.0060 -0.0165
31133W        W47027   9.538   6.835   2.012 -0.1795 -0.2512  0.1567
31134W        W47028  10.809  16.784   0.165 -0.1049 -0.1134 -0.0977
31135W        W47029  14.718  17.752  15.667 -0.1040 -0.1070 -0.1475
31136W        W47030   1.617  11.571  13.345 -0.0644 -0.2472 -0.1275
31137W        W47031   3.671   0.557   0.183 -0.2061 -0.1765 -0.3097
31138W        W47032   1.814  15.950  14.075  0.3827 -0.2299  0.0949
31139W        W47033   8.114   9.111  12.297  0.0137 -0.1432  0.3411
31140W        W47034   9.981  17.287  11.883 -0.0851  0.0470  0.1874
31141W        W47035   4.357  17.410   4.884  0.1573 -0.3922  0.0324
31142W        W47036  15.704   2.603   0.913 -0.0977  0.1039  0.3101
31143W        W47037   6.182   4.629   3.755  0.1908 -0.0073 -0.1651
31144W        W47038   4.333  16.777   2.332 -0.0552 -0.0528 -0.3572
31145W        W47039   1.927   2.696  13.386 -0.1894 -0.3229 -0.2250
31146W        W47040  15.619  12.153   2.200  0.0443 -0.0948 -0.2589
31147W        W47041   1.958   2.422   3.779  0.1856  0.5825  0.1969
31148W        W47042   7.103   9.804   3.750  0.0451 -0.2101  0.1256
31149W        W47043   7.056  12.029  11.729  0.1621 -0.4176  0.0282
31150W        W47044   3.232   6.979   6.132  0.0848 -0.1272 -0.1274
31151W        W47045   3.323  11.652   5.810  0.0566  0.2904 -0.3761
31152W        W47046   2.553   1.800   4.152  0.0341 -0.1760  0.3407
31153W        W47047   7.286   9.617   0.930 -0.2282 -0.0376  0.2108
31154W        W47048   1.896   0.524  15.250 -0.2609  0.0433  0.1996
31155W        W47049   0.663  12.741   0.557  0.2181  0.0252 -0.1681
31156W        W47050  14.840   8.456  11.904 -0.0420 -0.1553  0.3781
31157W        W47051  10.435  17.379  14.687  0.0038 -0.1520 -0.1966
31158W        W47052   7.783   3.249  13.156  0.2448 -0.0096 -0.0818
31159W        W47053  10.936   4.066  15.599  0.1140  0.0529  0.0732
31160W        W47054   3.566   0.300   1.607  0.0571  0.0026 -0.5808
31161W        W47055   8.503   3.404  13.691 -0.2298 -0.2489  0.1327
31162W        W47056  13.685  14.368  15.482 -0.1623 -0.0295 -0.0867
31163W        W47057   7.990   1.163   2.574  0.0973 -0.0641  0.0140
31164W        W47058  11.369  17.494   3.808  0.0956  0.3569  0.1390
31165W        W47059   0.771  11.644  14.463 -0.0164 -0.1220  0.1353
31166W        W47060   4.306   0.389   3.740 -0.0217  0.3699 -0.2035
31167W        W47061  10.087  14.082   5.754 -0.2072  0.1275  0.0088
31168W        W47062   3.555  17.331  14.628 -0.0050  0.3068 -0.0914
31169W        W47063  17.712   8.452  14.877 -0.3326  0.3237 -0.0146
31170W        W47064   0.536  13.847   4.813 -0.3134  0.0042  0.0102
31171W        W47065   6.023   8.344   4.833 -0.0843  0.0772 -0.1733
31172W        W47066   3.181   1.387  11.136  0.0062 -0.1323 -0.0481
31173W        W47067   8.788   0.023   4.643 -0.1813 -0.1989  0.2684
31174W        W47068   5.553  16.547  14.145 -0.1753 -0.0010 -0.1690
31175W        W47069  14.806   7.094   1.661 -0.0610 -0.0869 -0.1278
31176W        W47070   4.019   4.651   0.474  0.2761 -0.0928  0.1287
31177W        W47071   2.969  16.999   3.244  0.0035 -0.1252 -0.1834
31178W        W47072   3.274   0.940  15.687  0.0950  0.3230 -0.0512
31179W        W47073   1.079  17.517  13.140  0.3843  0.2004 -0.3729
31180W        W47074   6.751  10.822  13.299 -0.2158 -0.0884 -0.0661
31181W        W47075  16.015  13.916  14.834 -0.2400  0.0799 -0.0084
31182W        W47076   1.201  12.796   3.544  0.1401 -0.1554  0.0465
31183W        W47077   5.285  15.877  11.718 -0.3380  0.4321  0.1575
31184W        W47078   7.550   0.329   4.578  0.0908  0.0603  0.2452
31185W        W47079   7.085  10.554  12.993 -0.2501 -0.0972  0.0732
31186W        W47080   2.120   4.963   5.748 -0.1562  0.1113  0.0194
31187W        W47081  14.747   6.979  14.551  0.0151 -0.1084  0.2614
31188W        W47082  14.719  11.780   2.102  0.0207 -0.0020 -0.1344
31189W        W47083   2.219  11.654  15.708 -0.0111  0.0018 -0.4048
31190W        W47084   9.881   3.556   5.764  0.0585 -0.0881  0.1868
31191W        W47085   5.221  17.023   1.204 -0.1157  0.1602  0.1060
31192W        W47086  13.889   7.218  14.499  0.0930  0.1190 -0.3222
31193W        W47087  13.914   7.314   3.453 -0.1880 -0.0158  0.0665
31194W        W47088   8.676   4.080   5.161  0.1248  0.1755  0.4072
31195W        W47089  14.770   9.189   4.305 -0.3514 -0.1585 -0.1087
31196W        W47090   2.769  11.492  15.414  0.0859  0.0206 -0.1680
31197W        W47091   0.863  13.839  14.356 -0.1557  0.1298 -0.5268
31198W        W47092   7.423  13.673   3.481  0.0970 -0.2418 -0.1455
31199W        W47093   9.453   3.405  11.915 -0.2218  0.1407  0.3376
31200W        W47094   2.711  13.039  12.993 -0.4203  0.0968 -0.0965
31201W        W47095  15.906   4.641  15.632  0.0525 -0.0510  0.1574
31202W        W47096   8.138  13.685  16.434  0.1052  0.2451 -0.2078
31203W        W47097   3.705   0.496  14.379 -0.1092  0.1545  0.0987
31204W        W47098  11.057   4.484   2.541  0.0841 -0.0488 -0.1572
31205W        W47099  15.214   8.612  14.202  0.0784  0.4188 -0.2841
31206W        W47100   1.572  15.523  15.492  0.0930  0.3735 -0.5516
31207W        W47101   7.272  15.057   5.112 -0.3074  0.0004 -0.1789
31208W        W47102  12.914   0.243   1.042 -0.1011  0.0529  0.0761
31209W        W47103   9.798   5.546   0.332  0.1421 -0.4119 -0.3978
31210W        W47104  15.710  12.440   3.394 -0.2924  0.1826  0.3533
31211W        W47105  16.947   8.586   4.554  0.2916  0.2445  0.0446
31212W        W47106   0.862   7.087   3.848 -0.0888  0.2085  0.1210
31213W        W47107  14.882   2.454   3.457 -0.2158 -0.0172  0.2366
31214W        W47108   1.366   8.959  12.716 -0.2446 -0.0413 -0.3110
31215W        W47109  11.763   1.596  16.218  0.1385  0.2445 -0.3374
31216W        W47110   4.908  17.545   2.590 -0.2860 -0.0632  0.3634
31217W        W47111  15.545   8.342  15.635 -0.2142  0.2909 -0.2220
31218W        W47112   3.542   7.546   2.850  0.1525  0.0870  0.0253
31219W        W47113  10.970  10.919  13.682 -0.1477  0.0443 -0.1451
31220W        W47114  15.481  12.138  15.001  0.2260 -0.0629  0.3221
31221W        W47115  11.553  10.256  16.019 -0.5881 -0.1767  0.3423
31222W        W47116   1.658  14.498  14.047 -0.0251  0.0736 -0.1288
31223W        W47117  14.706   8.973  15.028  0.0153 -0.1379  0.1121
31224W        W47118   5.197   8.163   4.124  0.0064  0.0081 -0.1146
31225W        W47119  12.260   4.504  14.104  0.0408 -0.0015 -0.1754
31226W        W47120  11.871   8.836  16.092  0.0296  0.0504  0.2746
31227W        W47121   3.442  10.570  13.178 -0.0547  0.0082 -0.0162
31228W        W47122   1.391   2.149  11.783  0.1917  0.1523 -0.0978
31229W        W47123  17.032  12.619   5.188 -0.1313  0.2531 -0.1516
31230W        W47124   6.950  14.680  13.290  0.2647  0.1886  0.1172
31231W        W47125   6.758   5.644  16.088 -0.2538 -0.1346  0.0053
31232W        W47126  11.913  14.127  16.092  0.2687 -0.2082  0.2037
31233W        W47127   1.536   3.056   4.586  0.1220 -0.0261 -0.3511
31234W        W47128   5.857  18.187   0.346  0.0744  0.0246  0.0534
31235W        W47129  17.036   3.125   2.505 -0.1490 -0.0496  0.0855
31236W        W47130   6.360  17.631  11.554  0.2873 -0.1381  0.0043
31237W        W47131   6.572  14.722   1.363 -0.2066  0.1707  0.2133
31238W        W47132   4.443   7.272   0.810 -0.0118  0.0557 -0.3898
31239W        W47133  10.823   5.182  11.040 -0.0170 -0.2163  0.1659
31240W        W47134  18.079  12.080   0.194  0.2101 -0.2740  0.1484
31241W        W47135   4.052   1.277   2.421  0.0258  0.0253  0.0556
31242W        W47136   5.927   4.122   1.470 -0.0960  0.0278 -0.1921
31243W        W47137  17.856   6.684   1.417  0.0557 -0.1112 -0.1702
31244W        W47138   2.836   6.383   1.741 -0.0663 -0.1036 -0.1815
31245W        W47139  10.813  16.647   4.734  0.0731 -0.2451  0.1469
31246W        W47140   2.551  11.223  10.621 -0.1055  0.1171  0.0996
31247W        W47141   7.959   9.052  11.759  0.1548  0.0329 -0.2715
31248W        W47142   1.237  16.651   0.799  0.0472 -0.0485 -0.1698
31249W        W47143  15.660   8.386  15.144 -0.1810 -0.0256  0.1751
31250W        W47144  13.893   0.070   0.955  0.0026 -0.1938 -0.2157
31251W        W47145   2.643  11.483   4.057  0.1435  0.0403 -0.0465
31252W        W47146  11.945   1.646   1.991  0.1608 -0.2014  0.0145
31253W        W47147   1.765   9.721  12.804 -0.3767 -0.2795 -0.0177
31254W        W47148  15.140  17.528  11.262 -0.0230  0.3133 -0.1680
31255W        W47149   9.304  14.503  12.684 -0.2834  0.0877  0.1789
31256W        W47150  14.991  16.896   3.273  0.1781 -0.1686 -0.2430
31257W        W47151   5.942   3.837   4.082 -0.0992 -0.0274 -0.1662
31258W        W47152  13.635   5.628   5.873 -0.1570  0.0966 -0.1994
31259W        W47153  13.128  10.277   3.425 -0.1576  0.0919  0.2364
31260W        W47154   5.296   4.516  16.078  0.0835 -0.0102 -0.0020
31261W        W47155  13.660   0.748   1.436  0.1899  0.2462  0.0372
31262W        W47156   1.540   7.159  13.904  0.2292 -0.0385  0.2536
31263W        W47157   0.852   4.436  13.446  0.1064  0.2978 -0.0056
31264W        W47158   3.998  14.441  11.723  0.2051  0.1168 -0.0341
31265W        W47159  14.100   1.126  15.788 -0.1003  0.0134  0.0145
31266W        W47160   8.784   9.312   4.444  0.2249 -0.2166 -0.2281
31267W        W47161  13.992  16.411   2.583  0.3191  0.1704 -0.1498
31268W        W47162   9.779   9.714   3.061  0.0737  0.1312 -0.0097
31269W        W47163   5.329   9.841  12.747  0.1788 -0.1884 -0.0264
31270W        W47164   6.611  15.062  12.290  0.1032  0.4167 -0.0754
31271W        W47165   4.741   0.359   2.283  0.1827 -0.1598 -0.0730
31272W        W47166   5.565   4.218  12.323  0.0074 -0.0908  0.1511
31273W        W47167   4.552   6.604   3.200 -0.1108  0.1437  0.0302
31274W        W47168   3.214   8.104   0.202 -0.0007  0.1880  0.1367
31275W        W47169  11.801  15.744  14.907  0.0384  0.0309  0.1875
31276W        W47170   2.757  13.635   2.009  0.0513 -0.0183 -0.0985
31277W        W47171   4.342   8.972   0.638 -0.0516 -0.2732  0.1443
31278W        W47172   0.179  17.407   0.646 -0.1404  0.1336 -0.1141
31279W        W47173  14.762  16.991  13.683 -0.1968 -0.1968 -0.1333
31280W        W47174   7.033   3.002  15.941 -0.1220  0.1396 -0.1954
31281W        W47175  10.925   0.861  14.423  0.0927  0.2871 -0.0104
31282W        W47176   6.834  15.175   4.819  0.1118 -0.0478 -0.0222
31283W        W47177  16.409   4.306   1.203  0.0929  0.1611 -0.0363
31284W        W47178  13.516   4.053   2.623  0.1401 -0.0750  0.1828
31285W        W47179   6.644   9.889   3.046  0.0191 -0.2270  0.2293
31286W        W47180   1.519   0.401   0.154  0.0229 -0.0248 -0.0439
31287W        W47181   2.092  12.148  13.039  0.0325 -0.1143  0.3951
31288W        W47182  16.336  10.638   4.978 -0.0509 -0.2629  0.3290
31289W        W47183  11.198   6.783   1.225  0.2261 -0.1518  0.2505
31290W        W47184  13.770   8.795   4.155  0.2680  0.1812 -0.2113
31291W        W47185  10.180  13.076  15.568  0.0525  0.2796  0.0295
31292W        W47186   1.221  11.482  10.998  0.1981 -0.2695 -0.0955
31293W        W47187   8.477   1.168   6.410  0.0067  0.0947  0.1803
31294W        W47188   9.873  10.855  11.002 -0.2343  0.1245 -0.1091
31295W        W47189   9.718   8.151  13.054  0.2726  0.3141  0.3790
31296W        W47190  16.031  15.322   6.154  0.0837 -0.0048  0.1996
31297W        W47191   1.469   4.805   5.350  0.1671  0.0916 -0.1035
31298W        W47192   3.022   7.262   5.786  0.0327  0.1335  0.0020
31299W        W47193  15.324  16.639   3.608 -0.0946  0.0959 -0.0011
31300W        W47194   3.605  16.825   5.418 -0.1070  0.2382  0.1997
31301W        W47195  17.399   3.115  13.020 -0.1916  0.0717  0.0423
31302W        W47196   5.093  14.940  15.019  0.1010 -0.1799 -0.1996
31303W        W47197   8.653   2.184   0.956  0.0450  0.0981 -0.0004
31304W        W47198   9.151   3.736   1.118  0.0545 -0.0785  0.0047
31305W        W47199   9.785   1.370  10.866  0.1958 -0.1542  0.0337
31306W        W47200   4.841  16.077   1.520  0.2202 -0.1702  0.2428
31307W        W47201  11.850   2.212   3.548  0.1228 -0.0331 -0.4159
31308W        W47202   5.288   7.901   4.617 -0.2750  0.0518  0.0954
31309W        W47203  10.654   1.808   5.133 -0.0386  0.0186  0.0074
31310W        W47204   3.437   0.295   0.572 -0.0218 -0.0979  0.2142
31311W        W47205  13.123   7.943  11.490 -0.1609 -0.1144  0.2138
31312W        W47206  10.903   2.149   1.219  0.3368 -0.1558  0.2156
31313W        W47207   4.082  17.244   3.776 -0.1651  0.0324 -0.0418
31314W        W47208   6.451   3.992  12.399  0.0798 -0.0265 -0.2521
31315W        W47209   6.041  13.572   4.120  0.1194  0.0183 -0.1189
31316W        W47210  14.440   2.454   0.382 -0.0112  0.0543  0.0709
31317W        W47211  12.552   6.290   5.174  0.2457 -0.1962  0.0014
31318W        W47212   0.256   1.669   2.661 -0.2508 -0.1912  0.0089
31319W        W47213  10.586  13.966  14.613  0.0834  0.1936  0.1650
31320W        W47214   8.188  17.248  14.992  0.0646  0.1801  0.1267
31321W        W47215   6.131   9.267   0.135 -0.0720 -0.2681  0.0413
31322W        W47216   7.738  10.878   0.813 -0.3361 -0.1723 -0.0607
31323W        W47217  17.256  14.432  12.281  0.1152 -0.0642 -0.4687
31324W        W47218  15.099  15.976   2.101 -0.1976  0.1749  0.2614
31325W        W47219   2.993  13.757   0.034 -0.3298 -0.4105  0.0229
31326W        W47220  10.181  10.521  14.867 -0.1383  0.0717  0.1100
31327W        W47221  18.199   6.908  15.991 -0.0538 -0.1820  0.0996
31328W        W47222   7.634  13.031   0.921  0.0047  0.1474 -0.1115
31329W        W47223   6.888  17.169  15.109 -0.1119  0.2053 -0.1651
31330W        W47224   0.493   2.888   5.047 -0.0434 -0.2203  0.2989
31331W        W47225  16.158  11.371  16.174 -0.2569  0.4599  0.0573
31332W        W47226   6.734  16.330  11.473  0.4084 -0.1622 -0.0127
31333W        W47227   7.751   2.982  12.182 -0.0700 -0.1283  0.2823
31334W        W47228  12.931  16.064  13.264  0.4462  0.1034 -0.2174
31335W        W47229   8.108   8.693   2.007 -0.1399  0.1508  0.1454
31336W        W47230   8.840  11.912  14.104  0.2484  0.1511 -0.1893
31337W        W47231  13.440   2.199  11.763 -0.0454 -0.2027  0.0144
31338W        W47232  15.198  14.425  15.966  0.0633 -0.0779 -0.2925
31339W        W47233  17.024  12.798  15.915 -0.2747  0.0702  0.3057
31340W        W47234  15.563   3.037  15.619 -0.0605 -0.2054  0.0472
31341W        W47235  16.106   2.321  13.521 -0.4415 -0.0433  0.1635
31342W        W47236   0.706  10.878  15.096  0.1252  0.1126 -0.2465
31343W        W47237  16.058  13.632  15.860 -0.0471  0.1668  0.0864
31344W        W47238  12.500   8.486   4.393 -0.1905  0.2183 -0.0729
31345W        W47239   3.482  14.337  15.364  0.0754  0.1563  0.5086
31346W        W47240  16.393  14.124  15.348  0.0366  0.1329  0.0096
31347W        W47241   7.159  12.556   0.213 -0.0484 -0.0529 -0.1827
31348W        W47242  11.972   4.579  11.156 -0.0457 -0.0636 -0.0369
31349W        W47243  18.223   4.455   3.399  0.3512 -0.1987 -0.0893
31350W        W47244  16.310   4.120  13.791 -0.1586 -0.2615  0.2220
31351W        W47245   9.600   9.058  14.655 -0.1308 -0.1784 -0.1137
31352W        W47246   0.150   8.431   3.144 -0.0675 -0.0428  0.0084
31353W        W47247  10.291  14.334   0.076 -0.2089  0.0886 -0.0313
31354W        W47248   6.312  10.833  15.009  0.3329 -0.0631  0.4543
31355W        W47249   9.967   4.057   4.295 -0.0566 -0.3423  0.1889
31356W        W47250  14.432  14.734  13.254  0.0443 -0.0871  0.2349
31357W        W47251   1.883   7.237  15.971 -0.1133  0.2782 -0.0503
31358W        W47252   7.105  16.556   3.803 -0.0205  0.2614 -0.4572
31359W        W47253  13.422   1.520  13.960  0.1254  0.1260  0.0352
31360W        W47254   3.477  14.245  13.232 -0.0470 -0.0273 -0.0284
31361W        W47255  10.434   9.274  11.653 -0.3182 -0.0346 -0.0445
31362W        W47256   8.560   2.193   1.877 -0.0623  0.1441 -0.2512
31363W        W47257  15.976  10.036  15.940 -0.1359  0.1305 -0.0126
31364W        W47258   0.941   3.447   1.094  0.2388 -0.1629 -0.0740
31365W        W47259   1.591   5.238  15.284 -0.2217  0.0204  0.4475
31366W        W47260  13.191   2.092   2.555 -0.0661 -0.1301 -0.3048
31367W        W47261   1.732   1.331  15.355  0.0209 -0.1323  0.1180
31368W        W47262   2.997   6.918   2.920 -0.1422 -0.2686 -0.0156
31369W        W47263   3.064  12.362  16.354  0.0838  0.1091 -0.0045
31370W        W47264  10.708  16.676  13.903  0.0112 -0.2933  0.1055
31371W        W47265   6.260   0.480   4.647 -0.0760  0.2150 -0.1111
31372W        W47266  10.206   5.449   3.333 -0.0197  0.0796 -0.1290
31373W        W47267   4.942   2.154   0.934 -0.3361 -0.0204 -0.0456
31374W        W47268   5.097   2.434   3.328  0.1698 -0.2101 -0.2006
31375W        W47269   5.165   4.673  10.779  0.1722 -0.2899  0.2177
31376W        W47270   8.859  16.289  12.059  0.1000  0.0189 -0.2484
31377W        W47271  17.066  16.212   1.747  0.3669 -0.1237 -0.0220
31378W        W47272   4.534  17.647   3.930 -0.2161 -0.1384 -0.0995
31379W        W47273   2.186   1.619   3.904 -0.0710 -0.0763 -0.2438
31380W        W47274  12.664  16.715   2.659  0.2422 -0.0855 -0.3543
31381W        W47275   2.947  16.598  15.469  0.2280  0.1351  0.2625
31382W        W47276   9.766   4.874  11.974 -0.1399  0.2258 -0.0387
31383W        W47277   0.136  18.039   4.446  0.2693 -0.3064  0.1793
31384W        W47278   1.935  12.233   6.017 -0.0876 -0.0344 -0.0590
31385W        W47279   3.845  15.251   1.066  0.0107  0.0465  0.0377
31386W        W47280   8.220  12.618   1.448  0.3800 -0.0996 -0.4752
31387W        W47281  14.982  12.371   3.022  0.1215 -0.0450 -0.0344
31388W        W47282  13.445   8.376  13.931  0.0745  0.0655 -0.4413
31389W        W47283   9.754   7.354   1.642 -0.0116 -0.4874 -0.1939
31390W        W47284  17.187   3.084  14.016 -0.0226  0.3303  0.2582
31391W        W47285   3.338   4.370  11.764 -0.1230  0.0810 -0.1868
31392W        W47286  17.808   7.464  15.296 -0.4166  0.1385 -0.5095
31393W        W47287   4.365  14.325  12.088  0.1548  0.1824 -0.3411
31394W        W47288   2.505  16.047  14.302 -0.0637 -0.0520  0.2120
31395W        W47289   1.485   0.308  13.035 -0.1645 -0.2334  0.0969
31396W        W47290   1.141   4.761  14.793 -0.1329  0.0265  0.2856
31397W        W47291   4.938  10.109  13.033 -0.2621 -0.0264  0.0590
31398W        W47292  15.788  18.024  12.330 -0.0202  0.3605  0.0217
31399W        W47293   5.042   6.432  15.225 -0.2596  0.1794  0.1745
31400W        W47294  17.441   8.176   1.303 -0.0151 -0.2325  0.0093
31401W        W47295   2.638  17.413  15.775  0.3738  0.0112 -0.0312
31402W        W47296   9.917  15.478  16.394  0.2087 -0.5052  0.0102
31403W        W47297  15.892  10.590   0.691  0.1693  0.1219 -0.0138
31404W        W47298   1.457   6.650   5.214 -0.1825  0.3883 -0.0720
31405W        W47299  10.799  16.845  15.448 -0.1252  0.2335 -0.2111
31406W        W47300   9.311  11.609  16.460 -0.2279  0.0792  0.0363
31407W        W47301  15.514  17.069   3.945  0.0036 -0.0958 -0.0761
31408W        W47302   9.536   0.033  11.471 -0.1823 -0.0745 -0.1880
31409W        W47303   0.700  17.623   2.016  0.2162  0.0881 -0.2002
31410W        W47304   1.635   1.236  15.853  0.1887 -0.3740  0.1824
31411W        W47305   0.118  15.319   3.133  0.1868 -0.0229 -0.4058
31412W        W47306  12.059   8.131  11.448  0.2341 -0.1597  0.1128
31413W        W47307  16.716  13.506   6.113  0.1345  0.1204 -0.0183
31414W        W47308  16.322  14.018   1.602 -0.1320 -0.2118  0.1495
31415W        W47309   6.373   8.480  14.315  0.0846 -0.1071  0.1146
31416W        W47310  10.185  10.401  12.178 -0.2741  0.3666  0.3077
31417W        W47311   6.573   5.483  10.776 -0.0547 -0.0458 -0.0632
31418W        W47312  10.520  14.898   3.601 -0.2344  0.1962  0.3063
31419W        W47313   2.320   3.117   3.553  0.3191 -0.0650  0.2444
31420W        W47314   8.194  18.226  14.075 -0.0146 -0.2805  0.3214
31421W        W47315   1.248  10.265   5.566  0.0080  0.2510 -0.0683
31422W        W47316  11.629  17.985  13.311  0.0923 -0.0742 -0.0288
31423W        W47317  14.798   5.638  15.873  0.2085  0.1128 -0.0938
31424W        W47318  16.326  15.761  15.121  0.0007 -0.1593  0.1985
31425W        W47319  12.103  13.235  13.951 -0.2449 -0.2727  0.0858
31426W        W47320  10.995  17.313   3.128 -0.0571  0.2144  0.0313
31427W        W47321  16.229   4.746  13.834  0.1063  0.0260  0.2740
31428W        W47322  15.129  13.002   4.153 -0.3577 -0.0646 -0.3664
31429W        W47323  11.363  13.806   0.955  0.1863 -0.0362 -0.0771
31430W        W47324  13.328  13.140  15.660 -0.0039  0.2316  0.1771
31431W        W47325  13.252  16.117  16.395 -0.0398 -0.0743  0.1815
31432W        W47326  14.572   4.991  13.223 -0.3194 -0.0995 -0.3272
31433W        W47327   4.668  14.718   5.956 -0.0258  0.4385  0.0091
31434W        W47328  15.107  17.941  16.078  0.0418 -0.0697  0.0256
31435W        W47329   6.196  18.082   5.287 -0.0131 -0.1423 -0.1614
31436W        W47330   5.992   7.510  13.491  0.1335 -0.0544 -0.0557
31437W        W47331   8.934   7.051   4.003 -0.1904 -0.0466 -0.1653
31438W        W47332  11.300   4.454   4.177 -0.0514  0.0578 -0.0770
31439W        W47333  11.764  17.426  13.890  0.1467  0.0958 -0.0161
31440W        W47334   1.375   4.194   5.155  0.0638  0.0703 -0.1073
31441W        W47335   9.097  17.182   3.235 -0.0201  0.2057  0.2898
31442W        W47336   7.160  11.660  12.069  0.4502 -0.1607 -0.0128
31443W        W47337  14.808   0.768  14.284 -0.3548 -0.1781  0.1905
31444W        W47338  13.373   1.087   2.268 -0.0206 -0.2320 -0.1212
31445W        W47339   9.593  11.832   3.911  0.1701 -0.0386  0.0126
31446W        W47340   6.635  14.469   2.882  0.0038 -0.1391  0.1074
31447W        W47341  12.913  13.877   5.629 -0.2868  0.1104  0.1647
31448W        W47342  10.783   4.534   3.353  0.1896  0.3956  0.1036
31449W        W47343   7.735  16.444  12.146  0.2329 -0.1371  0.1417
31450W        W47344   9.493   3.028   4.029 -0.0286  0.1861  0.2321
31451W        W47345  13.975   3.082   1.532 -0.0840 -0.2109 -0.0244
31452W        W47346   1.444   9.302  13.049 -0.1107 -0.0809 -0.0741
31453W        W47347   1.182   0.076  12.575 -0.0550  0.3022 -0.0804
31454W        W47348   9.785   0.257   0.176  0.1693  0.0802 -0.1062
31455W        W47349  17.350   9.065   1.069 -0.3292  0.2110 -0.4345
31456W        W47350  16.699   2.666   3.270 -0.0061  0.1757  0.0082
31457W        W47351  15.860  17.953   1.589  0.2527  0.0928 -0.0859
31458W        W47352  11.238  10.303  11.279 -0.3859  0.1085 -0.2206
31459W        W47353  13.601   7.063   3.770  0.1386  0.1815  0.2159
31460W        W47354  17.384   9.944  13.142  0.0582  0.0077  0.3171
31461W        W47355   8.044   1.250   5.521 -0.1378  0.3507 -0.0885
31462W        W47356   0.017  10.605   0.071  0.3265 -0.0619 -0.2141
31463W        W47357   7.887  14.583   2.277 -0.3619 -0.0219  0.2098
31464W        W47358  16.537   5.177  15.957 -0.1999  0.1969  0.1771
31465W        W47359   7.658  13.626  16.156  0.3584  0.1434  0.2468
31466W        W47360   7.567  10.285   3.099 -0.0554 -0.0119  0.1742
31467W        W47361   9.178   0.227  16.009 -0.1864  0.2169  0.0613
31468W        W47362  14.550   1.980   2.228 -0.0091 -0.0600 -0.3184
31469W        W47363  14.283   0.471  15.063  0.0553 -0.0135  0.3030
31470W        W47364  11.937   1.311   2.398 -0.2048  0.0313  0.0251
31471W        W47365   3.012   6.418   3.147 -0.1519  0.0045 -0.2736
31472W        W47366  16.158  12.130   2.241  0.0151 -0.1983 -0.0576
31473W        W47367   8.669   7.320   2.534  0.1097  0.0745  0.1486
31474W        W47368   9.217  16.829  14.795 -0.2054 -0.2676 -0.3048
31475W        W47369   7.437  12.350  14.550 -0.1235  0.1555 -0.0550
31476W        W47370  10.700   7.278  10.977  0.0924  0.3611  0.1882
31477W        W47371   5.768  11.654  16.218 -0.0121  0.2632  0.0993
31478W        W47372  16.242   6.082  11.445  0.1244 -0.1921  0.3345
31479W        W47373   9.498  11.033   6.235  0.0198 -0.1574 -0.4183
31480W        W47374   9.642  15.907   1.587 -0.0352 -0.0949 -0.1221
31481W        W47375   5.444   0.370   3.363 -0.0361  0.0211  0.0857
31482W        W47376  16.396   0.982   5.014  0.0239  0.0501 -0.0022
31483W        W47377  10.805  18.196  12.287 -0.3981  0.0448 -0.2311
31484W        W47378  13.766   7.796   0.594 -0.1586 -0.0972 -0.0671
31485W        W47379  17.330   9.439  14.590 -0.0077 -0.2584 -0.0096
31486W        W47380  13.948  12.162   4.550  0.2456  0.1181  0.1574
31487W        W47381   8.667   6.454   2.338  0.3572  0.3900  0.0618
31488W        W47382  11.279   5.963   0.299  0.0594 -0.1108  0.1672
31489W        W47383   4.695  10.186  11.848 -0.0855  0.2235 -0.1886
31490W        W47384  15.454  16.960   0.696  0.0664 -0.2934  0.2041
31491W        W47385  11.960  13.567   4.266 -0.0005  0.0386 -0.0720
31492W        W47386   7.427  17.027  11.517  0.5554 -0.4969 -0.0682
31493W        W47387  17.621   8.544   1.043 -0.3519  0.1777 -0.0302
31494W        W47388   4.992  15.505   0.137  0.1525  0.1946  0.0509
31495W        W47389  15.540  11.603  12.531 -0.1882  0.3078  0.0416
31496W        W47390  15.156   2.556   4.529  0.0906 -0.2536  0.0782
31497W        W47391  17.395   3.505   2.310  0.0900 -0.0311  0.0162
31498W        W47392   6.883  13.380   5.308  0.1467 -0.1733  0.1038
31499W        W47393   1.032   3.582  14.507 -0.2427  0.0334 -0.1322
31500W        W47394   6.765   3.892   5.577  0.2046 -0.1588 -0.2673
31501W        W47395  13.676  12.357   2.614 -0.1947  0.1337 -0.0961
31502W        W47396   5.997  13.113   3.829 -0.2097  0.0270 -0.3084
31503W        W47397  12.142   8.918   4.529  0.0783  0.1314  0.1143
31504W        W47398  14.119   6.588  14.016  0.1137 -0.1464 -0.0663
31505W        W47399   6.047   3.163  16.033 -0.3411  0.1132  0.2998
31506W        W47400   8.595  17.125  16.209  0.0429 -0.1571 -0.2104
31507W        W47401  15.995  13.847   3.508  0.1287 -0.0344 -0.1027
31508W        W47402  14.055  12.294   0.453 -0.1933 -0.0200  0.1846
31509W        W47403   0.812  10.525   2.288 -0.0451 -0.0522  0.2016
31510W        W47404   4.436  17.871   0.535 -0.0473  0.2424 -0.1608
31511W        W47405   3.561  11.671   1.611  0.1296  0.0520  0.2160
31512W        W47406  15.568   1.560   2.996  0.3739  0.3737 -0.0217
31513W        W47407   8.552   6.876   2.133  0.0646  0.4117 -0.0543
31514W        W47408  16.681   4.416   6.342 -0.2907 -0.0674 -0.0350
31515W        W47409  16.915  11.926   6.852  0.1767 -0.0094 -0.0606
31516W        W47410   0.037  15.580   0.516  0.0019  0.2104  0.1479
31517W        W47411  18.121   1.996   2.562 -0.0450  0.1243  0.1641
31518W        W47412   4.750  12.528   0.034 -0.1514  0.0078 -0.0049
31519W        W47413   8.286  10.943  13.596 -0.0899 -0.2208 -0.0169
31520W        W47414  16.067  11.319   2.614 -0.0379 -0.1551  0.0703
31521W        W47415   4.519   6.505   5.421  0.0924  0.1571  0.0435
31522W        W47416  12.656  13.446   5.772  0.1073  0.1006  0.1151
31523W        W47417   2.155  14.959  15.234 -0.0242  0.0085 -0.1847
31524W        W47418  15.937   4.470  14.944  0.1075  0.0388  0.1414
31525W        W47419   9.083   9.715  15.575 -0.2596  0.3079  0.2783
31526W        W47420   6.940  10.913   0.396  0.1297 -0.1412  0.1657
31527W        W47421   0.800  12.776  13.322  0.0789  0.2154  0.0736
31528W        W47422   9.788   6.958  11.728 -0.1422  0.0643 -0.1010
31529W        W47423   8.920  13.094  14.861  0.1599  0.0253 -0.2131
31530W        W47424   6.439   1.850  10.243  0.1899 -0.0891  0.0173
31531W        W47425  10.923   6.937  12.256 -0.1251  0.2621 -0.0740
31532W        W47426   9.865  13.784  11.704 -0.0013  0.1822 -0.0090
31533W        W47427   7.102   5.736  12.741  0.1407 -0.0066  0.0990
31534W        W47428  18.007  11.004   0.231  0.0413  0.2736 -0.3088
31535W        W47429  12.554  15.736   2.288  0.3233  0.1350 -0.1827
31536W        W47430   1.708  15.498  15.991  0.1428 -0.1293 -0.0018
31537W        W47431   4.019   5.363   4.347  0.2532  0.2827  0.0204
31538W        W47432   0.388   9.678  12.459  0.0928 -0.0383 -0.4665
31539W        W47433  12.175   4.733   1.186  0.2875 -0.0630 -0.0200
31540W        W47434   6.936   5.163   6.255  0.5443  0.0462  0.3920
31541W        W47435   5.145   3.459   1.671 -0.1719  0.0865 -0.2249
31542W        W47436   7.154  15.751   0.670  0.2274 -0.0984  0.0052
31543W        W47437   9.289  17.904   2.797  0.2194  0.3708  0.0401
31544W        W47438   1.323   7.432   4.619 -0.1978 -0.0381  0.0456
31545W        W47439  10.460   5.108   2.550  0.0486  0.1612 -0.2110
31546W        W47440   6.801   5.744  15.028 -0.0486  0.2491 -0.1019
31547W        W47441  16.264  15.643  12.146  0.2440 -0.0649 -0.2489
31548W        W47442   4.778  18.141   2.520  0.3430  0.3046 -0.2929
31549W        W47443   4.215  14.016   0.734 -0.0952  0.2033 -0.0438
31550W        W47444  14.766  13.984   5.790  0.0257 -0.0146 -0.1174
31551W        W47445   7.375   4.331   3.306  0.0267 -0.0117  0.1158
31552W        W47446  13.257   2.822  14.244  0.0677 -0.0799 -0.1553
31553W        W47447  14.277   9.081   3.265 -0.0087 -0.0152 -0.1362
31554W        W47448   6.678   4.704   4.799 -0.1809  0.0987 -0.2600
31555W        W47449   6.399  10.229   2.773  0.0755 -0.0017 -0.0908
31556W        W47450   0.427   3.425  14.443 -0.0347 -0.0671 -0.0257
31557W        W47451   8.872  13.603   6.119  0.2160  0.0304 -0.0586
31558W        W47452  12.330   2.023   1.905  0.0752  0.3529  0.1694
31559W        W47453  10.246   8.668  11.990  0.0582 -0.0905 -0.1057
31560W        W47454  10.004   6.614  12.121 -0.0120  0.0720 -0.3281
31561W        W47455  11.753  13.826  15.428  0.4256 -0.1087 -0.1383
31562W        W47456  14.445   3.271  15.053  0.3118 -0.1164  0.0604
31563W        W47457  15.385   9.584   3.214  0.1036 -0.1387  0.2724
31564W        W47458   6.794  16.056   0.445  0.2668 -0.0800 -0.0172
31565W        W47459  10.844   9.475  14.126  0.0845  0.4001  0.0011
31566W        W47460   7.781   6.123   3.193 -0.2293 -0.1326 -0.1464
31567W        W47461   6.701  16.237  15.205 -0.0418 -0.3982  0.2675
31568W        W47462   5.308   9.057   0.588  0.1803  0.2228 -0.0960
31569W        W47463   1.767   3.419   5.399  0.3024  0.5197  0.1402
31570W        W47464  10.253   2.571  11.978 -0.0302 -0.3063  0.0593
31571W        W47465   5.756   5.312  10.745  0.0387  0.1875  0.2036
31572W        W47466  14.509   3.643  16.005 -0.1182  0.3045 -0.0742
31573W        W47467   5.717   1.400  15.595 -0.0728  0.1794  0.3777
31574W        W47468  10.522  14.375   6.068 -0.1216 -0.3153  0.2021
31575W        W47469   6.529  12.214   1.011  0.2312 -0.1065 -0.2418
31576W        W47470   1.809   0.320   4.908  0.2735 -0.1762 -0.3338
31577W        W47471   5.692   4.689   1.822  0.0390 -0.0421  0.1301
31578W        W47472   2.433  10.967   5.525 -0.2274  0.4382 -0.1012
31579W        W47473   0.381  16.105  14.744  0.0591 -0.1018 -0.2348
31580W        W47474  14.014  15.923   4.303  0.4610 -0.2921 -0.2355
31581W        W47475   0.308   7.669   1.207 -0.2952 -0.2631  0.1105
31582W        W47476   3.638   6.366   1.375  0.1634  0.1728 -0.1237
31583W        W47477   8.736   8.432  11.486  0.1491  0.0814 -0.1851
31584W        W47478   0.488   5.831   5.248  0.1287  0.0157 -0.2387
31585W        W47479  11.471  12.324  12.695 -0.1002  0.3248 -0.0393
31586W        W47480  10.181   5.418  16.373  0.0261 -0.2207 -0.1560
31587W        W47481   0.655  12.110   4.864 -0.1171  0.1569  0.1007
31588W        W47482   6.745  10.334   1.025 -0.0766  0.3128  0.2625
31589W        W47483   0.456  11.968  14.607  0.2712 -0.1419  0.3628
31590W        W47484   5.638   6.207  16.196  0.2569 -0.2147 -0.5297
31591W        W47485  15.987   2.703  12.627  0.1795  0.0780 -0.2356
31592W        W47486  12.735   5.112  15.654 -0.0850  0.1504  0.2079
31593W        W47487   7.270   2.960  11.508  0.0004 -0.1873 -0.1329
31594W        W47488   4.562   5.259  13.568 -0.4612  0.3772 -0.0661
31595W        W47489   2.967  15.900   3.832 -0.1395  0.0692 -0.1392
31596W        W47490  12.505   8.058  13.851  0.2383 -0.1638 -0.3380
31597W        W47491  14.378  14.532  15.922  0.4321 -0.2005  0.2289
31598W        W47492  18.055  10.909   6.400 -0.2883 -0.0343  0.1342
31599W        W47493  16.677  10.736   5.466  0.0225 -0.1340 -0.1135
31600W        W47494  16.745  11.321  12.220  0.0822 -0.1418 -0.2970
31601W        W47495  14.795   9.341  14.675 -0.0589 -0.1713 -0.0492
31602W        W47496  17.640  12.284  16.458 -0.2090  0.3057 -0.1798
31603W        W47497  13.160  10.334   4.791  0.4019  0.0819  0.2351
31604W        W47498   2.652  12.027  12.134  0.0256 -0.1430  0.0589
31605W        W47499  12.488  16.717  13.928 -0.0026 -0.0211 -0.2491
31606W        W47500   6.741  16.820  14.049  0.1681  0.1415 -0.1919
31607W        W47501   8.957   6.985  12.178  0.1409  0.2991  0.1481
31608W        W47502  15.662   6.869  14.089  0.0180  0.3315 -0.0466
31609W        W47503   1.487   8.657   2.037  0.1648  0.0817 -0.0992
31610W        W47504  16.401   3.642   5.835 -0.4427 -0.3107 -0.2794
31611W        W47505  13.544   4.125  12.223  0.0676 -0.0070 -0.4370
31612W        W47506   3.816   9.203   3.580 -0.2139  0.1836 -0.0064
31613W        W47507  18.117   1.874   3.731 -0.2536  0.1735 -0.1111
31614W        W47508  11.915  14.845  12.657 -0.0898  0.0055 -0.0066
31615W        W47509  10.067  14.028  13.342  0.2053 -0.3508 -0.0443
31616W        W47510  11.009   5.568   3.317 -0.0487 -0.0421  0.1657
31617W        W47511  15.300   7.061  11.912 -0.0546  0.1568 -0.0645
31618W        W47512   4.089  13.161   0.284 -0.1415  0.1234 -0.0199
31619W        W47513   9.478   6.704  15.395 -0.0930 -0.1845 -0.1723
31620W        W47514   8.845   0.449  14.712  0.0676 -0.2932 -0.3479
31621W        W47515  16.329  11.324   5.886  0.0243  0.0246 -0.0168
31622W        W47516   3.668  16.547  14.834  0.0435 -0.1392 -0.0174
31623W        W47517   3.182  15.701  11.500  0.1608  0.0839  0.1131
31624W        W47518  13.539   5.455   3.838  0.2559  0.0330 -0.0101
31625W        W47519  17.679   5.636  16.154  0.0223 -0.0960  0.1170
31626W        W47520   2.639   0.566   5.060  0.0144  0.1537  0.1504
31627W        W47521  15.968  15.070   1.917  0.0163  0.0271 -0.2465
31628W        W47522   5.184   2.585   2.334  0.0066  0.1170  0.2145
31629W        W47523   6.883   9.307   3.812  0.0656  0.1793  0.1676
31630W        W47524  17.647  17.293  13.965 -0.1951 -0.0204 -0.0739
31631W        W47525   0.296   8.594  12.708 -0.2210 -0.2128 -0.2289
31632W        W47526   4.202   5.173   0.215 -0.1885 -0.1953  0.0880
31633W        W47527   4.052   7.607   0.812 -0.1840 -0.3751  0.0545
31634W        W47528   4.284   5.768  14.579 -0.2859 -0.1380  0.0514
31635W        W47529  12.208  17.913  11.699  0.1435 -0.0150 -0.1232
31636W        W47530  16.273   5.833   0.007 -0.0078 -0.0680 -0.2598
31637W        W47531   6.970   0.453   1.485  0.2209  0.2082  0.2716
31638W        W47532  14.366  13.179   0.622 -0.0820 -0.1762 -0.0879
31639W        W47533  13.303  11.978   2.786 -0.0760 -0.2100  0.0446
31640W        W47534   7.524   2.864   3.922 -0.0472  0.1256 -0.0905
31641W        W47535   4.860  15.970   1.987  0.0743  0.4209  0.3359
31642W        W47536  10.526   2.260  14.535  0.0685 -0.1509  0.3604
31643W        W47537   2.781  13.892   4.582 -0.1336 -0.0653 -0.2322
31644W        W47538  10.572  17.498  13.606  0.0478  0.0793  0.0711
31645W        W47539   6.154  14.232  15.851  0.1156  0.3194  0.2780
31646W        W47540  15.966   8.858  13.796 -0.0829 -0.1199 -0.3395
31647W        W47541   1.465   6.063  10.679 -0.0883  0.2974 -0.0748
31648W        W47542   5.685  14.850   4.319 -0.0976 -0.0400  0.1223
31649W        W47543  14.621  12.405  13.962 -0.1115  0.1190 -0.0502
31650W        W47544  12.576   5.996  15.910 -0.1475 -0.3097 -0.3730
31651W        W47545   2.335   3.809  11.698  0.0508 -0.0074  0.2175
31652W        W47546  17.691  11.777  15.659 -0.2342  0.2196  0.1268
31653W        W47547   1.329   0.503   4.726  0.3962  0.0077 -0.0714
31654W        W47548   4.822  12.975   2.362 -0.1609 -0.2479  0.2826
31655W        W47549   2.793  15.469  16.187 -0.2789 -0.1433  0.0043
31656W        W47550   7.068  11.768   5.451 -0.0567 -0.2706  0.3118
31657W        W47551  15.031  12.462  11.855  0.1068  0.1464 -0.1806
31658W        W47552  17.753  16.177   0.854  0.0407 -0.0241  0.0614
31659W        W47553   8.684   7.713   4.610 -0.3182 -0.1714 -0.2036
31660W        W47554  17.628   7.311   5.434 -0.2079 -0.3141  0.0426
31661W        W47555   9.962  16.664   3.126  0.2210 -0.2151  0.2101
31662W        W47556  14.998   1.548  16.384  0.2543 -0.0423 -0.0932
31663W        W47557  10.539   8.557   2.811  0.0503 -0.0946 -0.3299
31664W        W47558  15.539  15.869   4.134  0.0910  0.0857  0.1223
31665W        W47559   5.272  14.749  12.427 -0.1508 -0.1775 -0.0671
31666W        W47560   2.082  13.900  13.387 -0.0077 -0.0117 -0.2019
31667W        W47561  17.518   5.726   1.529 -0.1758  0.0092  0.2633
31668W        W47562  16.661  14.285  11.031 -0.0239  0.0947 -0.0600
31669W        W47563  11.363   8.125  13.134  0.1173 -0.1937 -0.1706
31670W        W47564   5.284  14.285   5.566  0.0434  0.4444 -0.1241
31671W        W47565  10.865  16.165   1.061  0.2498 -0.1260  0.2470
31672W        W47566   6.098  12.690  15.174 -0.1130 -0.0169 -0.0928
31673W        W47567  17.335   6.617   1.425  0.0560  0.0334 -0.2669
31674W        W47568   1.105  15.992   4.341 -0.0234 -0.3227  0.3135
31675W        W47569   4.037  15.646  12.313 -0.0890 -0.1021  0.0283
31676W        W47570  15.128   2.185  14.237 -0.2192  0.1236  0.2566
31677W        W47571   2.548  13.551  14.405 -0.0867 -0.2225 -0.2375
31678W        W47572   3.856  15.649   5.240 -0.0601  0.1276 -0.1331
31679W        W47573   8.745   5.241   2.032 -0.0674 -0.1695  0.0190
31680W        W47574   7.316   0.802  16.184  0.0832  0.4130  0.3341
31681W        W47575   4.564   8.421   0.716 -0.1693  0.1987 -0.0266
31682W        W47576  10.067  12.483   4.066 -0.1448 -0.1429 -0.0768
31683W        W47577   4.551   8.562  13.128  0.1093 -0.0713 -0.3094
31684W        W47578   8.840  16.233  14.415 -0.0649 -0.0434  0.1132
31685W        W47579  13.269   1.314   3.260  0.2338 -0.3065  0.2719
31686W        W47580   7.866  11.068  12.369 -0.0633  0.3074 -0.0168
31687W        W47581   7.456  11.433   5.255  0.0360  0.3159  0.0974
31688W        W47582   4.269  15.036  10.929 -0.0896  0.0314  0.1153
31689W        W47583  10.505  16.274  15.208  0.2882 -0.1499 -0.0187
31690W        W47584   6.643   2.832   0.254  0.2066 -0.3058 -0.2816
31691W        W47585   8.001  13.472   5.198  0.0233  0.1950  0.0158
31692W        W47586   4.622   7.432   3.076 -0.2271  0.0663  0.1483
31693W        W47587   2.414  10.393  15.199 -0.0342  0.0192  0.1601
31694W        W47588  14.939   6.093  14.822  0.0423 -0.0123  0.1472
31695W        W47589  18.205   8.963   1.996 -0.0875 -0.1120 -0.0278
31696W        W47590   1.091   0.519   3.484 -0.0888 -0.0623 -0.0102
31697W        W47591   4.285  11.230   1.711 -0.0002 -0.1255 -0.1222
31698W        W47592   6.625  13.046  12.071  0.0290 -0.0491  0.2650
31699W        W47593  11.808  17.793  16.430  0.0391  0.3103  0.2218
31700W        W47594   0.130  15.762  12.026 -0.0334 -0.1019  0.1336
31701W        W47595  14.396  11.974   0.900 -0.1141 -0.2866  0.3000
31702W        W47596   4.558  13.124   5.376 -0.0443  0.0004 -0.2259
31703W        W47597  16.530  14.299   5.455  0.3783 -0.0681  0.0644
31704W        W47598  18.021  17.043   0.538  0.1976 -0.1162  0.1003
31705W        W47599  14.499   3.658  14.345 -0.2447 -0.0996 -0.0176
31706W        W47600   5.034   9.918  11.514  0.0628 -0.3102  0.2248
31707W        W47601   3.379  15.983  14.822 -0.2028  0.1149 -0.0563
31708W        W47602   7.059  11.774  15.820 -0.1375 -0.1707  0.2512
31709W        W47603   4.502   6.254   0.082  0.0485 -0.0542  0.0576
31710W        W47604   9.222  15.599   5.248 -0.2697  0.1837  0.1278
31711W        W47605  17.145  17.455  12.115  0.0722  0.1639  0.0812
31712W        W47606  13.057  17.170   1.692 -0.0946 -0.2397 -0.0543
31713W        W47607   3.954  12.390  15.689 -0.1617  0.1487  0.2413
31714W        W47608   7.533   9.430  13.028 -0.0918  0.1771 -0.1208
31715W        W47609  14.556  13.326  12.750 -0.0141  0.0003  0.3321
31716W        W47610  11.185   9.789  15.251 -0.2678 -0.2033  0.2494
31717W        W47611   5.312   2.389  15.562  0.1293  0.0571 -0.1698
31718W        W47612   7.931  14.373   0.951  0.1213  0.0953  0.3149
31719W        W47613   1.765  11.726  15.932  0.0229 -0.3259  0.2160
31720W        W47614  11.625   1.654  12.923 -0.1500  0.1287  0.1775
31721W        W47615   8.802   9.116  14.100 -0.0979 -0.0270  0.0251
31722W        W47616   2.669   9.956  13.741  0.2264 -0.1889  0.1733
31723W        W47617  15.875   6.850  14.585  0.0319 -0.1628  0.0390
31724W        W47618  13.677  12.480   3.712 -0.3252  0.1715 -0.0365
31725W        W47619   2.263  14.759  11.253  0.1553 -0.3551  0.1468
31726W        W47620  14.469   7.952  13.380  0.3941 -0.1790  0.2690
31727W        W47621  15.947   7.270  14.954  0.0120 -0.3656  0.3150
31728W        W47622   9.905   3.304   0.705  0.0431 -0.0159 -0.1547
31729W        W47623  15.017  12.039  13.931 -0.1287 -0.0312  0.1697
31730W        W47624   3.073  11.068  16.348 -0.1929  0.1819 -0.0644
31731W        W47625   6.527   4.759   1.872  0.1177 -0.2075 -0.1238
31732W        W47626   5.710   5.512  15.387  0.2195  0.0552 -0.3659
31733W        W47627  15.738  17.235   4.321  0.0652  0.0371  0.1407
31734W        W47628   0.834  12.075  12.167 -0.0723 -0.0050 -0.0477
31735W        W47629  16.611   0.954   0.672 -0.2350  0.1396 -0.0232
31736W        W47630   8.537   9.680  15.671 -0.1983  0.0049 -0.3788
31737W        W47631  13.136   6.959   1.633 -0.0435  0.0600  0.0167
31738W        W47632   0.200  15.428   1.790  0.2188  0.1167  0.1381
31739W        W47633   8.236  16.424   0.546 -0.0510  0.0130  0.1526
31740W        W47634   7.262  10.458   2.045 -0.4653 -0.3324 -0.1487
31741W        W47635   4.948   8.434  11.545 -0.1706 -0.1135 -0.0086
31742W        W47636   9.401  11.928  15.953  0.1547  0.0854  0.0258
31743W        W47637   2.476   2.562   3.604 -0.0511  0.2458 -0.0735
31744W        W47638   3.000  17.267   0.587 -0.0840  0.2888 -0.0350
31745W        W47639   2.064   6.173  16.403  0.0435 -0.0644  0.0374
31746W        W47640  17.325  11.078  13.776 -0.2933  0.2324 -0.1447
31747W        W47641  12.555   2.368  15.712 -0.1428 -0.1884  0.0141
31748W        W47642   2.643   3.952  13.854  0.0549  0.0412 -0.1857
31749W        W47643   6.478   7.764   2.810  0.1779  0.4378 -0.0848
31750W        W47644   8.620   1.511  12.049  0.0561 -0.0344  0.2909
31751W        W47645  12.985   1.764  16.440  0.0097 -0.0712 -0.2098
31752W        W47646   1.035  17.773   4.861  0.0007  0.1008 -0.2450
31753W        W47647  16.953  14.636  14.121 -0.1682  0.1082 -0.1529
31754W        W47648   1.554  14.206  11.761  0.0519 -0.0017  0.2048
31755W        W47649   4.820  14.348   0.990  0.0880 -0.0158 -0.0858
31756W        W47650   0.008   2.352  16.389  0.0203 -0.0914 -0.0776
31757W        W47651  15.714   5.654  14.875  0.2904  0.0549  0.1938
31758W        W47652  15.289   2.731  14.276  0.1254 -0.0003 -0.0399
31759W        W47653   1.686   9.639   0.433  0.1076  0.1763  0.1551
31760W        W47654  11.544  12.336   4.163  0.2033 -0.0102  0.0056
31761W        W47655   5.223   4.514   4.019  0.0026 -0.1298 -0.0713
31762W        W47656   2.611   9.526   6.342 -0.0871 -0.0062 -0.1589
31763W        W47657  14.066  17.827  14.359  0.2466 -0.1590  0.2150
31764W        W47658  16.666  11.778  12.043  0.0708 -0.3071  0.2551
31765W        W47659  13.085   6.263  14.505 -0.1293  0.1098 -0.1616
31766W        W47660   5.311   1.349  14.835 -0.4538 -0.2693 -0.0199
31767W        W47661  13.920   3.410  15.692  0.2213 -0.1538  0.0496
31768W        W47662  13.746   5.974  13.012  0.1818 -0.0746  0.0446
31769W        W47663   8.663  14.881   2.714 -0.2279 -0.0582 -0.2507
31770W        W47664  14.238   7.551  16.311  0.1292  0.0970 -0.0677
31771W        W47665   4.232   0.926   1.429 -0.4949  0.1661 -0.0646
31772W        W47666  12.137  12.320  16.108  0.1049  0.1161  0.1112
31773W        W47667   8.199  16.004   1.492 -0.1492  0.0192 -0.0223
31774W        W47668   9.552   5.603  15.279  0.1313 -0.2991 -0.1321
31775W        W47669   5.492  15.117  15.920 -0.1566 -0.2738  0.1212
31776W        W47670   8.688   2.833   3.937 -0.0663  0.2678  0.0719
31777W        W47671   3.882   2.544  14.830  0.4616 -0.0681 -0.3273
31778W        W47672  15.368   7.097   4.204  0.1344 -0.3481 -0.0830
31779W        W47673   2.618  13.612  12.600 -0.3829  0.1914 -0.1312
31780W        W47674   1.412   1.767  14.450 -0.1498  0.0047 -0.1289
31781W        W47675  11.506  11.058   0.105  0.0809 -0.3492 -0.1471
31782W        W47676  12.039  14.064   4.625 -0.0351 -0.0508  0.1335
31783W        W47677   8.657   4.474  15.059  0.1267  0.0152 -0.1796
31784W        W47678   2.030  17.301   1.488 -0.2206  0.1006 -0.0844
31785W        W47679  11.422   0.473   2.116 -0.3236 -0.1567  0.3631
31786W        W47680  18.089   0.937  11.697 -0.1706  0.0079  0.1431
31787W        W47681   3.825  10.331  13.949  0.2436  0.3760 -0.1156
31788W        W47682   0.241  11.776   6.304  0.1574  0.1602 -0.0942
31789W        W47683  10.944  16.211  14.705 -0.2417 -0.0794 -0.0954
31790W        W47684   9.637   1.589  13.224 -0.1189  0.1540 -0.2349
31791W        W47685   0.435  17.815   0.359  0.0199  0.0690 -0.0053
31792W        W47686   0.178  16.323  15.135 -0.0411  0.1379 -0.1824
31793W        W47687   6.776   4.025  11.037 -0.0967 -0.1507 -0.2183
31794W        W47688   8.311  13.631   1.444  0.4597  0.2884  0.0688
31795W        W47689   6.026   4.719  11.160 -0.0313  0.1922  0.0517
31796W        W47690  14.753  14.913   0.321 -0.0598 -0.0263 -0.1240
31797W        W47691  12.856  15.045  11.681 -0.3350  0.1410 -0.0579
31798W        W47692   6.604  11.978  12.914  0.1264  0.0990 -0.2502
31799W        W47693  18.008  15.229   1.959 -0.0651  0.0026  0.2756
31800W        W47694   9.715  17.653  11.455 -0.1049  0.2254  0.2155
31801W        W47695   6.542  13.505  15.186 -0.1694  0.0646 -0.2873
31802W        W47696   2.573  11.211   2.331  0.0170 -0.0201  0.0783
31803W        W47697  12.638   1.258  14.161 -0.1154  0.1771  0.0433
31804W        W47698   8.430   0.872   5.646 -0.2578 -0.1089  0.1526
31805W        W47699   0.108   6.373  11.334  0.1987  0.2526 -0.2489
31806W        W47700   6.452  15.636   1.781  0.3116 -0.2586  0.2237
31807W        W47701  18.184   6.190   1.519  0.0223  0.1342 -0.2730
31808W        W47702  15.923   6.748  13.021  0.0180  0.1461  0.1757
31809W        W47703  16.754   6.449  16.450  0.0029 -0.1121  0.2045
31810W        W47704  10.373  17.234   0.943  0.0478  0.0018  0.0912
31811W        W47705   9.697  14.978  13.475  0.0350  0.0734  0.1606
31812W        W47706  13.455   1.957  14.307 -0.1254  0.0716  0.0509
31813W        W47707   1.179   9.620  14.969 -0.0181 -0.2036 -0.0021
31814W        W47708   4.489  12.891   0.475  0.1368 -0.1125  0.0907
31815W        W47709   9.472   9.763  14.111  0.0481  0.0705 -0.2177
31816W        W47710  10.649   9.418   1.980 -0.2441  0.1109 -0.2566
31817W        W47711  17.999   9.326  16.234  0.3454 -0.1797 -0.2827
31818W        W47712   6.527   5.791   2.418  0.1414  0.0329  0.0695
31819W        W47713  16.009   5.752  16.035 -0.0934  0.0812  0.1272
31820W        W47714   5.000   4.614   3.031 -0.0690  0.1250  0.0799
31821W        W47715   5.466  12.571  13.378  0.0914 -0.0975  0.1422
31822W        W47716   6.283  18.044   3.440 -0.2332 -0.0771  0.0712
31823W        W47717   5.392   4.367  15.049  0.2777 -0.1168  0.2308
31824W        W47718   8.979  16.741  10.603  0.0194 -0.0973 -0.3272
31825W        W47719   0.776  10.640   5.671 -0.2293  0.4840 -0.0391
31826W        W47720  18.193  10.578  15.587  0.1442 -0.0979 -0.0203
31827W        W47721  18.138  17.235   1.123  0.2061  0.1117  0.0728
31828W        W47722   6.045  14.362  10.840 -0.1344  0.1675  0.2065
31829W        W47723  17.154  17.410  16.072  0.2320 -0.1695  0.1566
31830W        W47724   3.188  16.978   5.225 -0.2246 -0.2495  0.0716
31831W        W47725   2.218  10.351  12.142  0.0064  0.1738  0.0017
31832W        W47726   8.679  15.207   1.061  0.1474 -0.0637 -0.0095
31833W        W47727   0.411   1.360   5.704  0.0515 -0.0957  0.2281
31834W        W47728   9.727  11.648   3.495 -0.0024 -0.0273  0.1302
31835W        W47729   1.837   1.416   3.559 -0.1588  0.2846 -0.1805
31836W        W47730   7.343  10.138  12.732  0.1136  0.0523  0.1044
31837W        W47731  12.914   0.705  14.207  0.0660 -0.2923  0.0171
31838W        W47732  13.250   1.951  14.849  0.0128  0.0505  0.0416
31839W        W47733  17.060  17.466   1.476  0.1461  0.1681 -0.0128
31840W        W47734  16.784  10.988  12.598 -0.4096  0.0062 -0.1380
31841W        W47735  14.913   3.231  15.123  0.0381  0.0458 -0.1130
31842W        W47736   0.967   7.975  12.319  0.0506  0.0002  0.0497
31843W        W47737  10.323   4.589  14.417  0.0152  0.0251 -0.1236
31844W        W47738  11.030   6.692  15.093  0.0525 -0.4465 -0.1059
31845W        W47739  17.160   9.811   4.245 -0.3851 -0.0994 -0.0236
31846W        W47740   8.121  16.572   4.678  0.1942  0.1097  0.0289
31847W        W47741   8.472   8.421   4.438 -0.1331 -0.0689 -0.0071
31848W        W47742  10.838  17.637   4.481  0.1489 -0.1090 -0.0660
31849W        W47743   0.037  10.318  16.078 -0.2016 -0.1522 -0.2761
31850W        W47744   8.044  16.331   3.906  0.0368 -0.0881  0.3932
31851W        W47745   1.245   9.683   4.362 -0.1294 -0.3956  0.0500
31852W        W47746   3.906   4.931   5.358  0.1726 -0.1307  0.0447
31853W        W47747  15.267  16.236   4.332 -0.1707 -0.1037 -0.2152
31854W        W47748   4.050  15.232  15.304 -0.1717  0.0049 -0.2936
31855W        W47749   6.132   6.067   0.438 -0.0315  0.2454  0.0433
31856W        W47750  17.016  15.483  13.292  0.3151 -0.3216 -0.0568
31857W        W47751   3.864   4.830   4.115  0.0697  0.0477 -0.2563
31858W        W47752  11.080   0.979  12.263  0.0687  0.0148 -0.1723
31859W        W47753  15.790  14.430   2.981 -0.1085 -0.1816  0.1488
31860W        W47754  12.204  12.226   0.966 -0.0745 -0.0004  0.0513
31861W        W47755   4.262   5.354  14.887  0.1966 -0.1254  0.3662
31862W        W47756   3.051  18.195  15.669  0.0889 -0.1423 -0.1469
31863W        W47757   4.741   5.374  12.027  0.2214  0.0894  0.1281
31864W        W47758  10.959   8.183  13.560 -0.1128  0.3070 -0.2942
31865W        W47759   6.702   8.598   4.766 -0.2822 -0.0153  0.2706
31866W        W47760   8.058  14.962  16.144 -0.0341  0.2661 -0.0612
31867W        W47761   8.133   9.462  14.043 -0.0268  0.1030  0.2147
31868W        W47762   8.487   1.740  14.191 -0.0309 -0.0869  0.1489
31869W        W47763  13.466  11.694  12.088  0.0918  0.1132 -0.1067
31870W        W47764  17.392   0.378  15.595  0.0319 -0.2116  0.0818
31871W        W47765  13.245  13.385  13.929  0.0577  0.4311  0.1198
31872W        W47766  11.991  17.232  14.776 -0.0210 -0.6568  0.4841
31873W        W47767  15.496  11.226   1.806  0.1927 -0.0621  0.3191
31874W        W47768   3.361  15.176  13.363  0.0586  0.0245 -0.3764
31875W        W47769   9.711   9.051   1.811 -0.2287 -0.0908 -0.1002
31876W        W47770  10.923   7.531   5.922  0.0855  0.0015  0.0195
31877W        W47771   9.249  15.484  16.030 -0.2335  0.1074 -0.1921
31878W        W47772   0.798   1.459   4.854  0.2923 -0.2441 -0.4143
31879W        W47773  17.923   6.399  15.074  0.1949  0.4240 -0.0685
31880W        W47774   6.979   2.009   2.977  0.1041 -0.0755 -0.0352
31881W        W47775   9.375  16.431   1.616  0.0683  0.4557 -0.0180
31882W        W47776   4.667   9.839   1.680 -0.3275  0.0695 -0.0196
31883W        W47777   1.189   9.691  12.147  0.1834  0.3330  0.2870
31884W        W47778  17.195   2.953  12.238  0.0041 -0.0270  0.1862
31885W        W47779  15.856   8.293  16.061  0.0153 -0.1973 -0.0275
31886W        W47780  15.074   1.645  11.785 -0.0231  0.0278 -0.0300
31887W        W47781   0.685   7.235  11.521 -0.1991 -0.1117 -0.1426
31888W        W47782  11.393  13.852  14.622 -0.2049 -0.2197  0.2016
31889W        W47783   4.817   3.456   2.030 -0.1081 -0.2459 -0.0634
31890W        W47784  16.209   3.040   0.282 -0.1134  0.1734  0.0528
31891W        W47785   0.004   5.505  13.743  0.2758  0.0193  0.1247
31892W        W47786   0.771  10.265  15.155  0.0354 -0.0038 -0.1465
31893W        W47787  14.688   4.104  14.540 -0.1743 -0.0114 -0.1451
31894W        W47788  17.035   1.328   0.748 -0.0561 -0.0351 -0.2122
31895W        W47789  11.408   2.351   3.742 -0.0070 -0.0704 -0.1119
31896W        W47790  15.832   6.186  13.078 -0.0263 -0.2697  0.0434
31897W        W47791   7.477  16.274   2.976 -0.1675 -0.0742  0.2562
31898W        W47792  17.742   8.942   0.008 -0.1376 -0.0135 -0.4123
31899W        W47793  13.714  10.512   2.741  0.1471 -0.1488 -0.0741
31900W        W47794  12.083   7.688   0.362  0.3242  0.2474 -0.3248
31901W        W47795  16.781  16.353   3.257  0.1255 -0.1948 -0.3700
31902W        W47796  16.102   5.071   5.333  0.3601  0.4660  0.1913
31903W        W47797   0.506   0.370  15.529 -0.0245 -0.0496 -0.0224
31904W        W47798   6.215  17.208   0.778  0.0059 -0.1476 -0.1468
31905W        W47799  16.608   9.390   5.119 -0.3219  0.1402  0.0647
31906W        W47800   4.210  16.235   0.761 -0.3336  0.0001 -0.0835
31907W        W47801   3.139   1.231  14.540 -0.1037 -0.1028  0.0325
31908W        W47802   1.445  16.101   3.949  0.1708  0.0418  0.2630
31909W        W47803   2.276   9.530  14.376 -0.0098 -0.1305 -0.2128
31910W        W47804   1.032   2.838   4.660 -0.0309 -0.2602  0.1337
31911W        W47805  17.102   3.117  15.316  0.0103 -0.1702 -0.1001
31912W        W47806  15.795   9.836   4.680 -0.2987 -0.1491 -0.2724
31913W        W47807   7.451  15.250   5.581 -0.0956 -0.4000  0.2509
31914W        W47808   4.466  14.504  13.001 -0.0178 -0.1301  0.1485
31915W        W47809   6.300  12.829  16.060 -0.0863 -0.2369  0.1967
31916W        W47810   9.688   0.989   1.955  0.1741  0.0182 -0.0515
31917W        W47811  15.335   4.623   3.015  0.3101  0.1185  0.1814
31918W        W47812  17.448   1.149   3.906  0.1858 -0.0411  0.0048
31919W        W47813  17.869  10.723  15.991  0.2265 -0.1884  0.0822
31920W        W47814  10.296  17.652   2.007 -0.1122 -0.1981 -0.1125
31921W        W47815   9.536   1.384  15.947  0.1347  0.0986  0.2193
31922W        W47816  14.928  16.132   0.829 -0.0493 -0.0599 -0.1094
31923W        W47817   3.729   4.985   0.210  0.0094  0.0896  0.2858
31924W        W47818  14.396   1.427   1.176  0.1307 -0.0182 -0.2546
31925W        W47819  11.362   3.345   0.576 -0.0736 -0.0639 -0.0318
31926W        W47820  13.568  11.286  10.748  0.0531  0.0969  0.1171
31927W        W47821   9.158  17.651  15.196 -0.1052  0.1206  0.2504
31928W        W47822   9.338  15.387   4.778  0.0443 -0.0504  0.1671
31929W        W47823   1.318   8.485  15.532  0.0468 -0.2208  0.0041
31930W        W47824   8.908   8.395  14.312  0.0180 -0.1274  0.0967
31931W        W47825   6.382   3.353   5.393 -0.2120 -0.3188  0.1622
31932W        W47826   5.591   6.252   0.226  0.3491  0.0672  0.0635
31933W        W47827  11.336   6.339   1.452  0.1519 -0.0457  0.0535
31934W        W47828  15.985   2.624   1.310 -0.2530 -0.2139  0.1207
31935W        W47829  14.376   7.062  15.616 -0.1515  0.2014  0.1278
31936W        W47830   2.874  10.226   5.489  0.2130 -0.0008 -0.1445
31937W        W47831  15.728   4.585  13.991  0.1944  0.1148  0.0457
31938W        W47832  17.680   4.039   1.033  0.0242  0.0082  0.1956
31939W        W47833  13.819   1.512  13.594  0.0573 -0.1077 -0.1619
31940W        W47834   4.498  12.776   1.343  0.1792 -0.0592  0.3213
31941W        W47835  10.627   7.270  12.461 -0.0078 -0.0656  0.3315
31942W        W47836   1.615  10.182   0.001  0.0299  0.3780  0.1059
31943W        W47837   0.555  17.333   3.104  0.1303  0.1691 -0.1345
31944W        W47838  14.827   5.366  14.534  0.3861 -0.1455 -0.1037
31945W        W47839   5.732  14.947  13.208 -0.1678 -0.0955  0.2051
31946W        W47840   7.109  14.033   3.455 -0.1297 -0.1238 -0.1497
31947W        W47841  15.546   6.945   0.178 -0.4721 -0.0866 -0.0563
31948W        W47842  17.552  12.288   0.971 -0.1161  0.0851  0.0564
31949W        W47843  13.869   6.689  12.103 -0.0722  0.0455 -0.2192
31950W        W47844  13.127   3.753  15.105 -0.1041 -0.0709 -0.0781
31951W        W47845  13.187  16.349   0.949  0.2687 -0.0186  0.1505
31952W        W47846  12.038  15.682   1.458 -0.0428  0.1711  0.1196
31953W        W47847   6.889   8.271   5.148  0.1245 -0.0564  0.6074
31954W        W47848   9.981  18.051   1.835 -0.2985 -0.0796 -0.2010
31955W        W47849  12.136   5.511  13.718 -0.0495  0.0674 -0.2146
31956W        W47850   4.354   5.215   5.295  0.0495  0.0044  0.0917
31957W        W47851   2.209  15.817  12.206 -0.0433 -0.1808 -0.1539
31958W        W47852  11.937   7.941  12.342  0.2312  0.2186 -0.0458
31959W        W47853   6.209  12.912   0.608 -0.1457 -0.2593 -0.1601
31960W        W47854  13.883  13.787   3.913 -0.1358  0.0327  0.1078
31961W        W47855   6.307  16.122   4.728  0.1612  0.0561 -0.1017
31962W        W47856  12.679   7.622   1.895 -0.1961 -0.1028  0.2892
31963W        W47857  10.131  10.922  16.403 -0.2936 -0.0416  0.1588
31964W        W47858   4.491   9.061  12.577 -0.1133  0.1170 -0.0092
31965W        W47859  16.363  11.120   0.501 -0.0275  0.0334 -0.1926
31966W        W47860  15.989   3.762  14.028 -0.0433  0.1486 -0.0786
31967W        W47861   1.323  11.077  14.711 -0.1455 -0.3163 -0.0156
31968W        W47862  11.997  16.904  12.464 -0.0123 -0.0075 -0.2602
31969W        W47863   3.651   3.568   2.138 -0.2782  0.1891 -0.1661
31970W        W47864  16.033  15.374   5.049  0.0265 -0.1851 -0.1371
31971W        W47865   0.051   8.321  14.816  0.0998  0.2713  0.0722
31972W        W47866   4.810  18.181   0.533 -0.1212  0.3057  0.0746
31973W        W47867  14.486   1.147   6.501 -0.0284 -0.2396  0.2567
31974W        W47868  10.210   9.243   1.245  0.0457 -0.5307  0.1549
31975W        W47869  15.471   9.800  16.053  0.0193 -0.3563  0.0468
31976W        W47870   2.764   9.390   1.920  0.2560 -0.1830  0.0280
31977W        W47871   0.151  16.825  13.340 -0.1413 -0.2783  0.0477
31978W        W47872   5.971  12.416   1.532 -0.0042 -0.0217  0.1244
31979W        W47873  11.715   6.333   0.306 -0.2082 -0.1187 -0.0793
31980W        W47874   7.560   9.026  14.291  0.0718 -0.2950 -0.3487
31981W        W47875  14.859   0.026  15.746 -0.2893  0.2176  0.2289
31982W        W47876   9.684  15.083  16.048 -0.2007 -0.1100  0.1972
31983W        W47877   5.856   9.478   1.090 -0.1280 -0.0312  0.0118
31984W        W47878  10.475  17.603  11.538 -0.2000  0.0312  0.0661
31985W        W47879   9.447   1.170  14.781 -0.1106 -0.1013  0.1920
31986W        W47880  12.261  12.872  16.148  0.0447 -0.4604 -0.2747
31987W        W47881  12.701  11.836   4.159 -0.2000  0.0899  0.3974
31988W        W47882   6.950   7.003  10.373 -0.0093  0.0367  0.0596
31989W        W47883  12.587   2.513   3.176 -0.0518 -0.0270 -0.0417
31990W        W47884  17.185   7.091   5.348  0.1651  0.0338  0.2988
31991W        W47885   1.317  10.118  14.968 -0.2188 -0.0555  0.2624
31992W        W47886   9.897  18.133  15.197 -0.1506  0.3186 -0.4055
31993W        W47887  11.985   2.472   4.040  0.5428  0.1421  0.0094
31994W        W47888  17.985  14.326  12.941 -0.0372  0.2689  0.0926
31995W        W47889  12.262  10.288   5.526  0.0683 -0.0048 -0.5170
31996W        W47890  17.595   9.207  14.203 -0.1183  0.1694 -0.0639
31997W        W47891  12.759   3.112  13.808  0.0055 -0.0586  0.0774
31998W        W47892  15.164  15.792   3.378 -0.4853  0.0629 -0.0357
31999W        W47893  17.703   6.192  14.674 -0.2704 -0.2666 -0.0829
32000W        W47894  16.891  15.838   2.198  0.1341 -0.1435  0.3107
32001W        W47895  16.432   6.772   0.868 -0.0474 -0.1456 -0.0920
32002W        W47896  12.327  18.031  10.811 -0.0146 -0.0913  0.2736
32003W        W47897  11.752  15.172  16.131 -0.1217 -0.1257 -0.0474
32004W        W47898   1.749  12.796  10.708 -0.0780  0.1617  0.0359
32005W        W47899  13.182  12.096  14.804  0.2722 -0.0132  0.4067
32006W        W47900  14.635  12.889  12.448  0.0312 -0.2095 -0.0690
32007W        W47901  14.988   4.962   2.971 -0.0071 -0.4401 -0.2121
32008W        W47902   7.253   0.959  11.932 -0.1661 -0.2422  0.0379
32009W        W47903  11.766   5.127  13.753 -0.2022 -0.0748 -0.2648
32010W        W47904  15.780   1.587  14.959 -0.1003 -0.1750  0.1646
32011W        W47905   8.484  10.187   3.398  0.0157  0.0256 -0.1093
32012W        W47906  15.097   6.587   1.535  0.2818 -0.0909 -0.0571
32013W        W47907  12.014  13.463   2.039 -0.0043  0.1127  0.1820
32014W        W47908   5.583  10.898   3.844 -0.2794 -0.2272 -0.0106
32015W        W47909   4.420  11.496  12.447  0.1282  0.0007 -0.2604
32016W        W47910   9.342   2.757   4.718 -0.2566  0.1853 -0.1028
32017W        W47911   7.583  17.597   2.655 -0.0699 -0.2065 -0.0453
32018W        W47912   6.107   9.078  11.677 -0.1091  0.0018  0.2240
32019W        W47913   6.256  10.517   1.127 -0.0416  0.1277 -0.0204
32020W        W47914  12.451  17.403  13.192 -0.0434 -0.1054  0.0740
32021W        W47915  10.268   2.132   6.079 -0.1875  0.1193  0.2542
32022W        W47916  16.546  13.485  11.429 -0.0332  0.0534 -0.0986
32023W        W47917  18.130  10.933   0.958  0.2983 -0.0527 -0.0102
32024W        W47918   7.163  12.857   4.689 -0.1826  0.0400 -0.0044
32025W        W47919  17.889  16.397  13.166 -0.0050  0.1699 -0.2725
32026W        W47920  14.119  13.623   4.679  0.1277 -0.1628 -0.1046
32027W        W47921  11.146  17.135   3.580 -0.0304  0.2274 -0.0720
32028W        W47922  10.410   8.636  15.324  0.2424  0.2420  0.1127
32029W        W47923   1.133  16.449   4.083 -0.2227 -0.2235 -0.0303
32030W        W47924   5.941   2.862  15.640  0.2055  0.0926 -0.0276
32031W        W47925  13.821  12.868  16.012 -0.1163  0.1513 -0.0171
32032W        W47926   7.156   6.568   3.034 -0.2470 -0.3138  0.1489
32033W        W47927  10.671  10.125  12.166 -0.2747 -0.1928  0.1009
32034W        W47928   4.948   3.331   2.466 -0.1348  0.0657 -0.0573
32035W        W47929   5.014   6.658   3.301 -0.1191 -0.1021  0.2005
32036W        W47930  15.373  13.966  12.170  0.2548  0.0330 -0.0769
32037W        W47931  17.585  10.689  13.860  0.1147 -0.0199 -0.4673
32038W        W47932  16.393   2.159   0.344  0.2326 -0.2049  0.0718
32039W        W47933   4.702   7.547  15.811 -0.2661  0.1859  0.1704
32040W        W47934  13.250   3.804   4.531  0.0522 -0.0051  0.1063
32041W        W47935   8.543   9.497   1.927  0.2701 -0.0541  0.0994
32042W        W47936   9.413   6.058  12.482 -0.0404 -0.1789 -0.3167
32043W        W47937   5.235  13.045  12.150  0.1061 -0.1708 -0.2145
32044W        W47938   6.482  11.562  12.694  0.1956 -0.2949  0.0139
32045W        W47939  11.220  12.358   5.138  0.1357  0.1112  0.0966
32046W        W47940   9.189   9.787   2.433  0.0459  0.2212 -0.1078
32047W        W47941  16.280   5.069   3.993 -0.2689 -0.3646 -0.1511
32048W        W47942   9.336   8.608   3.865  0.2677 -0.0612  0.1662
32049W        W47943   8.008  10.664   5.401 -0.1019 -0.1635 -0.2524
32050W        W47944   0.092  16.905  10.318  0.1321 -0.1079 -0.0457
32051W        W47945  11.816   9.129   3.328  0.0480 -0.2885  0.0235
32052W        W47946   3.363   7.318  16.266 -0.0879  0.0738 -0.0260
32053W        W47947   1.773   6.335   4.952 -0.0899  0.0771 -0.1820
32054W        W47948   1.053  14.058   2.172  0.0935 -0.3507 -0.0148
32055W        W47949   1.163   3.856  15.539  0.1142  0.0334  0.0793
32056W        W47950  15.452   0.969   5.376  0.3202 -0.0908 -0.0461
32057W        W47951  16.600   4.892   1.645 -0.3464 -0.1514  0.1079
32058W        W47952   2.270  14.773  11.809 -0.0008 -0.1348 -0.1659
32059W        W47953  11.270   4.006   2.082  0.2637  0.0114 -0.0023
32060W        W47954   9.614  12.915  12.629  0.0901 -0.1919  0.2829
32061W        W47955   0.378  11.165  13.142 -0.0130 -0.3158  0.1912
32062W        W47956  13.771   9.147  11.603  0.0905 -0.4606  0.1706
32063W        W47957   4.919  14.116  13.900  0.3942 -0.0890  0.2936
32064W        W47958  10.191  12.389   4.677 -0.1813  0.0742  0.2469
32065W        W47959   7.185  18.172   2.071  0.1157 -0.0131  0.1652
32066W        W47960   4.024  14.534   2.605 -0.0931 -0.1200  0.2353
32067W        W47961  14.295  13.823  11.607  0.1145  0.1060 -0.4464
32068W        W47962   6.743   0.571  12.063  0.3003  0.0370  0.3304
32069W        W47963  11.918  10.121   3.089 -0.1403  0.2102  0.1272
32070W        W47964  13.657  14.460   2.416  0.2446 -0.0364  0.0060
32071W        W47965   9.006  11.027   3.044 -0.2935  0.1147 -0.2194
32072W        W47966  13.202   9.753  15.598  0.2046  0.2027  0.1118
32073W        W47967   9.508  14.884   0.448  0.1386  0.3350 -0.2794
32074W        W47968  15.974  13.224  12.511 -0.0620  0.3659 -0.0613
32075W        W47969  10.966   8.971   1.869 -0.0008 -0.2185  0.1426
32076W        W47970   9.319  15.122   0.065 -0.1248 -0.1499  0.0421
32077W        W47971   8.862  14.801  13.282 -0.0708 -0.0355  0.0311
32078W        W47972   5.187  16.203  13.083  0.3176  0.1438 -0.0862
32079W        W47973  11.274  12.146  11.662 -0.0834  0.1270 -0.0784
32080W        W47974  15.095   0.849   2.125 -0.0317 -0.2715  0.0882
32081W        W47975  17.193  10.953  15.290 -0.0460  0.1696  0.1009
32082W        W47976  17.432   5.889  11.725  0.2740 -0.0902 -0.0648
32083W        W47977   3.786   0.633  12.167 -0.2498  0.0273  0.2181
32084W        W47978  11.999  12.949  12.793  0.0460  0.2170  0.0048
32085W        W47979   4.896   8.932   1.521  0.0210 -0.0422  0.0870
32086W        W47980   9.498  13.888   0.725 -0.2808  0.2596  0.2840
32087W        W47981   9.205  13.232  12.573  0.1243  0.0972  0.5615
32088W        W47982   9.649   8.096  12.167 -0.0392 -0.1311  0.4941
32089W        W47983   6.304  14.670   1.774 -0.0788  0.1677  0.0708
32090W        W47984  11.383   4.908  11.983 -0.0511 -0.0299 -0.1952
32091W        W47985   6.476  10.559   3.509 -0.0189  0.0145 -0.1231
32092W        W47986  13.621  14.062  13.035  0.4230  0.0732  0.1358
32093W        W47987   0.999  14.575  16.107 -0.1459 -0.2166 -0.0169
32094W        W47988  14.928   4.793   4.941 -0.0945  0.2350  0.0622
32095W        W47989  11.076  12.125   3.919  0.0102  0.1809  0.0434
32096W        W47990  16.748   4.872  12.011  0.0231  0.2417 -0.0333
32097W        W47991  13.963   2.887  14.782 -0.1531  0.0028  0.0894
32098W        W47992  15.030  18.098  11.189 -0.1961  0.2429  0.3461
32099W        W47993   2.774   5.181   1.374  0.0989  0.1050 -0.0052
32100W        W47994  11.114   3.499   0.978  0.1081 -0.0882 -0.4076
32101W        W47995  15.402  17.150  11.643  0.3367  0.1027  0.4625
32102W        W47996   1.420  18.047   1.403  0.3424 -0.2108  0.0027
32103W        W47997  12.870   1.913  11.378 -0.1662  0.3095  0.1564
32104W        W47998   1.421  14.615   2.640 -0.1266  0.2028  0.0019
32105W        W47999  15.850  16.895  10.893 -0.2177  0.1614 -0.0261
32106W        W48000  14.806   4.447  14.109 -0.0530 -0.3695 -0.1645
32107W        W48001  13.849   6.484   0.998 -0.1256 -0.4231  0.0630
32108W        W48002   3.071   9.346  12.183  0.1798  0.1433  0.0579
32109W        W48003   3.681   2.824  14.380 -0.1094 -0.0850 -0.1730
32110W        W48004   0.347   4.376  15.655 -0.0321  0.1786 -0.1100
32111W        W48005  14.524  12.121  14.773  0.0422  0.1782  0.1147
32112W        W48006  17.079  12.089   3.472 -0.4671 -0.1584  0.1042
32113W        W48007  15.287   5.209   2.347  0.1409 -0.2118  0.0870
32114W        W48008  14.842  12.176   4.487  0.1980  0.0517  0.0107
32115W        W48009   4.294  17.604  15.386  0.1777  0.0345  0.0839
32116W        W48010  15.783  15.180   2.411  0.1201 -0.0377 -0.0200
32117W        W48011   8.321  17.412  13.578  0.2341 -0.1331 -0.0854
32118W        W48012  16.843  15.906  14.941 -0.0429 -0.0953  0.1474
32119W        W48013   8.955   8.162   4.650 -0.1332  0.0132  0.0480
32120W        W48014  12.347  13.344   1.573  0.0267  0.0424 -0.1353
32121W        W48015   8.336  15.970  14.460  0.1884  0.2399  0.2325
32122W        W48016   9.014  16.725   2.275 -0.0277 -0.0461  0.1031
32123W        W48017   2.842   7.703  13.102  0.0946 -0.3351 -0.0011
32124W        W48018  14.960   9.710  12.895  0.0700 -0.0772 -0.3633
32125W        W48019  14.760  14.020   0.744 -0.3829  0.2873 -0.0989
32126W        W48020   3.121  13.448  12.981 -0.1447 -0.1578  0.0446
32127W        W48021   0.579  13.393   2.759 -0.2487  0.0548  0.2823
32128W        W48022   5.377   6.318  11.130 -0.1547 -0.1022  0.1616
32129W        W48023   0.612  12.698   4.164 -0.3926 -0.0045 -0.0989
32130W        W48024   8.580  13.915  14.523 -0.0627 -0.2540 -0.1873
32131W        W48025   3.776  17.128  14.229 -0.2861 -0.2576  0.2045
32132W        W48026   2.793   2.116  16.322 -0.0794 -0.0055  0.0205
32133W        W48027   1.251  17.546  13.621  0.2953  0.0255  0.0425
32134W        W48028   6.263  14.221  11.697  0.1602 -0.0063  0.1430
32135W        W48029   8.579   7.101  15.515 -0.0854  0.1778 -0.0575
32136W        W48030   8.513   3.977  13.718  0.2537  0.0164  0.1485
32137W        W48031   5.319   4.441  13.131  0.0060  0.1335 -0.0973
32138W        W48032   0.333   3.944   0.700 -0.0244 -0.4611 -0.0074
32139W        W48033  10.147   2.647  10.906  0.2259  0.0700 -0.3032
32140W        W48034   2.394   3.471   3.160  0.1911  0.0145 -0.2027
32141W        W48035  12.420   5.878  13.971 -0.0047  0.2020  0.2860
32142W        W48036  16.046   3.609  15.093 -0.0514  0.2630 -0.0118
32143W        W48037   5.893   2.117   3.015  0.0969 -0.1860 -0.3722
32144W        W48038   5.767   6.678  11.127  0.1070  0.0592  0.0496
32145W        W48039  11.577  10.582  12.106 -0.2961  0.1288 -0.2838
32146W        W48040   1.731   9.903   4.590  0.0259  0.2884  0.1097
32147W        W48041  14.120   3.932  16.137  0.0196  0.4396 -0.3065
32148W        W48042   9.461  14.960  14.143  0.2003 -0.1948  0.4011
32149W        W48043   9.011   5.128  15.393  0.0459  0.0949 -0.1823
32150W        W48044   3.534   0.386   4.530  0.1747 -0.0004  0.3273
32151W        W48045   2.853   2.520  13.421  0.0116 -0.2160 -0.2731
32152W        W48046  15.323  16.390   5.279 -0.1355  0.1777 -0.0894
32153W        W48047   9.379   7.813  15.925  0.3745  0.0665  0.2773
32154W        W48048   4.652   1.205   3.484  0.2273 -0.1890  0.2753
32155W        W48049   3.603  15.811   5.636  0.2389 -0.0032 -0.0182
32156W        W48050  13.003  17.123   4.372  0.0496 -0.0040 -0.0412
32157W        W48051   3.613   0.469  13.002  0.4963 -0.2219  0.2098
32158W        W48052  14.657   5.378   0.992  0.3257 -0.0538 -0.0457
32159W        W48053  18.073   7.619   0.451  0.2852 -0.0745  0.0184
32160W        W48054   3.581   4.633   3.212 -0.0308  0.0248  0.3952
32161W        W48055  10.141  17.611  13.240  0.0566 -0.0332  0.0119
32162W        W48056   7.286   5.179   5.878  0.0099  0.1888  0.1494
32163W        W48057   0.452  11.463   2.497  0.3771 -0.1884  0.1708
32164W        W48058  17.125  16.401  14.913 -0.0236  0.2435 -0.1305
32165W        W48059  10.975   5.915  15.715  0.0998  0.0398  0.0301
32166W        W48060   2.409   1.400   0.976 -0.0135  0.1320 -0.1051
32167W        W48061   9.061  16.333   0.355  0.2779  0.1205  0.3236
32168W        W48062   2.572   2.640  12.477  0.1562  0.0250 -0.3158
32169W        W48063  14.178   8.198  10.250 -0.3597  0.0214  0.0855
32170W        W48064  14.503  15.390   3.840 -0.0807 -0.0863 -0.1335
32171W        W48065   5.742  10.004  13.131  0.0952  0.1279  0.2039
32172W        W48066   2.559  17.192   1.465 -0.0173 -0.0219  0.2886
32173W        W48067  16.901  15.392  12.233  0.1492 -0.2560  0.1028
32174W        W48068  13.632  11.492   5.999  0.0570 -0.3525 -0.1334
32175W        W48069  13.821   8.293  15.360  0.6056  0.2067  0.0318
32176W        W48070   9.492   4.097   1.264  0.0924  0.1149 -0.0915
32177W        W48071  13.596   2.954   2.648  0.0742 -0.3354 -0.0013
32178W        W48072  10.913   5.193  14.033 -0.0405 -0.3401  0.0348
32179W        W48073  14.093   7.650   4.578  0.1839  0.4021  0.1823
32180W        W48074   9.537  11.705  13.910  0.0135 -0.0128  0.0783
32181W        W48075  16.382   5.350   0.853 -0.1271  0.1433 -0.3267
32182W        W48076   7.385  13.496   1.084  0.0464  0.0207  0.0958
32183W        W48077   3.559  14.596   0.407 -0.2071 -0.2932  0.1031
32184W        W48078  17.191   3.825  11.860 -0.1560 -0.2975 -0.0858
32185W        W48079  11.368   4.026  12.851 -0.1330  0.0843  0.0804
32186W        W48080   2.213  10.579   1.809 -0.2170  0.2439  0.1168
32187W        W48081   0.534   3.384   3.912 -0.2199 -0.0210 -0.2726
32188W        W48082   8.090   8.182  13.708 -0.0320  0.3993  0.1864
32189W        W48083   0.141   4.126  16.057  0.4616 -0.3114  0.1041
32190W        W48084  12.242   0.909  13.497  0.2379  0.2216 -0.0384
32191W        W48085   4.636   7.469   5.085 -0.1746  0.3785  0.1634
32192W        W48086   5.660   9.276  12.541 -0.0998 -0.1355  0.0999
32193W        W48087  11.605   8.059  14.064 -0.2626  0.4497  0.0028
32194W        W48088   9.706   8.844  11.532 -0.0014 -0.1929 -0.0517
32195W        W48089   7.814   1.010   5.980 -0.2409  0.0250 -0.2490
32196W        W48090  12.418   5.632   2.625  0.1630 -0.2554  0.0871
32197W        W48091  11.111   2.196  11.149  0.0855 -0.0244 -0.0895
32198W        W48092   3.426  15.794  14.043 -0.0281  0.1227  0.2227
32199W        W48093   4.241  16.128  15.176  0.0260 -0.0981 -0.0204
32200W        W48094   1.729  10.989   5.747 -0.0841 -0.1295 -0.0183
32201W        W48095  12.451  13.792   5.454  0.1375 -0.0638  0.0588
32202W        W48096  11.332   7.338  16.291 -0.1905  0.2522 -0.2542
32203W        W48097   5.760   8.595   4.487 -0.2669 -0.1222  0.1777
32204W        W48098   2.700  11.672  11.744  0.1751 -0.1013  0.0225
32205W        W48099  18.046  16.431   4.080  0.2366 -0.5949 -0.0512
32206W        W48100   2.526   3.599  12.624 -0.1230 -0.1720 -0.2448
32207W        W48101  13.063  16.287  12.107 -0.3706 -0.0410  0.0885
32208W        W48102  14.280   1.257  15.190 -0.0399  0.0399  0.3334
32209W        W48103   6.861   2.248   0.913  0.3059  0.2446  0.1459
32210W        W48104  14.661  17.515  13.892  0.2448 -0.0591 -0.2581
32211W        W48105  17.889  17.614   1.359 -0.2504  0.0967  0.1952
32212W        W48106   4.716  15.762   0.569  0.1186  0.0400  0.2621
32213W        W48107  13.213  10.981  15.097  0.1575  0.0945 -0.0050
32214W        W48108  13.935   8.292   4.193 -0.0310  0.0432 -0.2911
32215W        W48109  15.889  12.445   0.388 -0.4256 -0.0363 -0.3823
32216W        W48110  15.879  14.105  15.527 -0.2617  0.0712  0.4271
32217W        W48111   2.114  14.753  13.920 -0.0010 -0.0425  0.5637
32218W        W48112  15.680   7.211  13.724 -0.0086 -0.1339  0.1407
32219W        W48113  14.625   9.518   1.958 -0.0427 -0.0530  0.1257
32220W        W48114   9.438  15.068   5.136 -0.0356  0.1836 -0.3559
32221W        W48115  10.201  16.704  13.691  0.2076  0.4428  0.2985
32222W        W48116  11.152   9.427   0.703  0.0127  0.1936 -0.0120
32223W        W48117   7.365  12.236   0.842  0.0997  0.3460 -0.3496
32224W        W48118   3.554  15.876  11.174  0.4441  0.2237 -0.2169
32225W        W48119   7.672   9.366   5.761 -0.3286 -0.1139  0.3032
32226W        W48120   2.835   5.214  11.900 -0.2021  0.0280  0.2000
32227W        W48121   1.484   7.286   1.003 -0.1857 -0.1791  0.0675
32228W        W48122   7.774   1.817   1.825  0.3102  0.3471  0.4217
32229W        W48123   5.010   8.573   0.761 -0.1114  0.0787 -0.1765
32230W        W48124   4.320   1.995  14.309 -0.1389 -0.1221 -0.2958
32231W        W48125   3.383   6.002  15.573 -0.0325  0.2373  0.2601
32232W        W48126  11.998  17.998  12.925 -0.0537 -0.1682  0.1518
32233W        W48127  15.317   6.633  12.237 -0.0014  0.2778  0.1200
32234W        W48128  14.664   0.547   0.413  0.0673  0.0673 -0.0092
32235W        W48129  11.503  11.139   0.647 -0.0212  0.1188  0.4899
32236W        W48130  12.212   8.274   2.940  0.0933 -0.1148  0.1658
32237W        W48131  12.428   5.584  11.469  0.0088  0.3011 -0.2896
32238W        W48132   4.099   2.435  13.447 -0.1031 -0.0412  0.1364
32239W        W48133  16.539  16.638   5.778 -0.1039  0.0666 -0.0579
32240W        W48134  16.740  11.053   2.106  0.1432 -0.2162  0.1222
32241W        W48135   7.035   5.082   4.714  0.0103  0.2609  0.3166
32242W        W48136   5.507   6.164  14.449  0.0656  0.0819  0.0660
32243W        W48137   9.793   4.309   2.229  0.1244 -0.2670 -0.0348
32244W        W48138   0.677  11.535   4.855 -0.2668  0.0891 -0.3758
32245W        W48139  10.363   9.333  11.148 -0.0572  0.0680  0.2952
32246W        W48140  17.879  12.194   3.867  0.0353 -0.0826 -0.4887
32247W        W48141  15.437   2.421   4.136 -0.4116 -0.0216 -0.3972
32248W        W48142   7.904   2.058  15.705 -0.1622 -0.2970  0.0328
32249W        W48143   2.816   8.016  16.364 -0.1054  0.1690 -0.1088
32250W        W48144  18.231   1.288   0.337  0.1556 -0.1180 -0.1569
32251W        W48145   1.100  12.649  11.475 -0.3635 -0.2039  0.1859
32252W        W48146   6.918   7.378   0.249  0.2841 -0.2511 -0.2539
32253W        W48147   3.777   5.505  10.150  0.0185 -0.4724  0.0625
32254W        W48148  15.444  17.393  13.225  0.0380  0.0997 -0.2119
32255W        W48149  18.192  10.541   4.308 -0.3803 -0.1399  0.2680
32256W        W48150  10.974   8.740   1.415 -0.0749 -0.1963  0.2874
32257W        W48151   9.252  12.544  11.211 -0.1423  0.2945 -0.0334
32258W        W48152  13.330   5.272   0.143 -0.4580 -0.0925 -0.1713
32259W        W48153   0.800   0.022   4.184  0.2077 -0.1533 -0.0557
32260W        W48154   7.055   2.277  14.869  0.0577  0.0662  0.4448
32261W        W48155  13.949   4.652   4.048 -0.1741  0.0788  0.1632
32262W        W48156  13.539   4.937  16.202  0.0316  0.1260  0.0820
32263W        W48157  16.763  15.930  12.928  0.1226 -0.1666 -0.1396
32264W        W48158   5.293  13.585   1.597 -0.0094 -0.1224 -0.1654
32265W        W48159  11.201   5.429   0.856 -0.3154  0.1826 -0.0147
32266W        W48160  12.905  13.113  11.601 -0.0973  0.0563 -0.0082
32267W        W48161   0.868  14.404   5.176 -0.1398  0.2124 -0.0200
32268W        W48162   0.035  17.534   3.606 -0.2695  0.0874  0.2370
32269W        W48163  16.056   4.055   0.537  0.5369 -0.2139  0.1491
32270W        W48164  13.743  14.506   2.966  0.1838 -0.0725  0.0471
32271W        W48165  10.161  14.940  13.840 -0.1318  0.1820 -0.3670
32272W        W48166  14.110   1.051   1.224 -0.1045  0.0825  0.0281
32273W        W48167   5.710  12.575  12.784 -0.1920  0.1715  0.3463
32274W        W48168  11.616  12.136   2.190  0.1059  0.1019 -0.0588
32275W        W48169  13.364  10.676   2.366  0.0153  0.2533 -0.1196
32276W        W48170   9.705  10.456   4.233  0.2139  0.1297 -0.0350
32277W        W48171   6.309  17.673  14.041  0.1129 -0.0035 -0.0902
32278W        W48172   5.306   1.548   3.674 -0.0249 -0.1370 -0.0031
32279W        W48173  12.931   1.184  12.239  0.0003 -0.4683 -0.2040
32280W        W48174  13.328   4.644   5.548  0.1514  0.1605 -0.1448
32281W        W48175  16.415  11.388  13.495 -0.2063  0.1189  0.0755
32282W        W48176   7.659  12.793   2.313  0.2148 -0.0922  0.2525
32283W        W48177   0.402   7.468   4.303 -0.0402  0.1758  0.0847
32284W        W48178   9.645  12.583   2.403  0.3345 -0.0841  0.1563
32285W        W48179   9.932   6.697   5.502  0.2001  0.0086  0.1967
32286W        W48180  14.168  11.147   1.067 -0.2570  0.0582 -0.0366
32287W        W48181  13.424   7.713   0.141  0.1062 -0.0374 -0.0588
32288W        W48182   6.498  11.436   2.353  0.0886 -0.0005  0.2585
32289W        W48183   3.552  10.147  13.519 -0.1017 -0.0368  0.2654
32290W        W48184   9.335   7.031  11.540 -0.0327 -0.5065 -0.1688
32291W        W48185  17.732  10.716   5.881  0.1578  0.4085  0.0578
32292W        W48186  15.651   6.238   3.131 -0.1519  0.1860  0.6589
32293W        W48187  10.216   0.575  14.016  0.0155 -0.1120 -0.1884
32294W        W48188  13.336  15.650  11.438 -0.0730  0.0849  0.3705
32295W        W48189  16.231  12.356  14.281  0.2387 -0.1570  0.0255
32296W        W48190  10.391   9.148   3.509  0.3145 -0.0391  0.2271
32297W        W48191   5.402   2.468   6.155  0.4500  0.0646  0.2066
32298W        W48192   0.098   9.999  13.572 -0.0866  0.3294 -0.2367
32299W        W48193   4.818   1.349   2.716 -0.1038  0.1520  0.1923
32300W        W48194   0.767  15.080   5.629 -0.1427 -0.1968 -0.1355
32301W        W48195   2.056   8.535   3.354 -0.2058 -0.0048  0.6697
32302W        W48196   2.068  13.670  10.569 -0.0346 -0.1989  0.2076
32303W        W48197  13.145  14.740   1.361  0.0091 -0.0004 -0.1298
32304W        W48198   4.656  14.854  13.301 -0.0695  0.0263 -0.5040
32305W        W48199   8.246   3.077  12.351  0.2186  0.3553  0.1382
32306W        W48200  16.142  10.625  12.182  0.3087 -0.0346 -0.0253
32307W        W48201  10.425   6.176   0.666 -0.1541  0.0859  0.2198
32308W        W48202   7.273   3.002   3.052 -0.1864  0.2147 -0.2064
32309W        W48203   4.449   7.984   2.054 -0.4111 -0.1718  0.1960
32310W        W48204   6.271   0.287   5.132 -0.2078  0.0225 -0.0606
32311W        W48205   3.456  17.071   3.261 -0.4957 -0.0142 -0.0442
32312W        W48206   0.044  15.955  16.145  0.0018  0.1475 -0.1493
32313W        W48207   4.525   9.254   1.794 -0.1166 -0.3620  0.2337
32314W        W48208   0.786   1.905  13.174 -0.0570  0.2175  0.2168
32315W        W48209  15.704   2.048  15.764 -0.0225 -0.0054 -0.5291
32316W        W48210  16.576   9.458   0.500  0.4749 -0.0177  0.0734
32317W        W48211  10.329   7.843  15.608 -0.2060  0.3480 -0.0587
32318W        W48212   1.411   9.067   5.000 -0.0993 -0.1285  0.1884
32319W        W48213  16.354   6.009   1.589  0.2516  0.2938 -0.1608
32320W        W48214   0.800   9.031   2.828 -0.1844  0.0878 -0.1235
32321W        W48215   3.328   0.363  11.188  0.3025  0.4771 -0.1927
32322W        W48216  11.937  11.368  14.895  0.1409  0.0965 -0.1492
32323W        W48217   2.780  12.015  13.844 -0.0994 -0.2106  0.1365
32324W        W48218   6.181  16.142   3.127  0.0823  0.0917 -0.3500
32325W        W48219  10.992  15.151  13.546 -0.0964 -0.0170  0.1112
32326W        W48220  11.045   7.973  11.325 -0.2446 -0.5596 -0.2611
32327W        W48221   0.096  14.790   4.495 -0.2500 -0.0336 -0.2957
32328W        W48222   1.416   9.575  13.502  0.0419 -0.2158 -0.0180
32329W        W48223  14.855   4.989   3.548  0.0245  0.0241  0.2719
32330W        W48224  16.273  10.584   0.314  0.3211 -0.2206 -0.1435
32331W        W48225   9.540   7.241  13.383  0.2472 -0.2473  0.2310
32332W        W48226  13.790   0.004   4.465  0.0072  0.0311 -0.0843
32333W        W48227   2.227  17.984  15.134 -0.2186 -0.2443 -0.0692
32334W        W48228  12.324   8.481  16.022  0.4039  0.2181 -0.2666
32335W        W48229   4.636   2.774   4.061 -0.0264 -0.2789 -0.1115
32336W        W48230   8.298  12.990   0.131  0.1330 -0.1425  0.0899
32337W        W48231   8.009   5.527   2.115 -0.4725  0.1761 -0.0280
32338W        W48232   3.404   4.140   4.376 -0.0806  0.0295 -0.1649
32339W        W48233  15.611   9.837   1.589 -0.1018 -0.1225  0.1578
32340W        W48234   6.405   8.729   0.000 -0.0960  0.3137  0.2459
32341W        W48235   8.019   1.647  13.530 -0.1154 -0.0128 -0.1565
32342W        W48236   8.063  15.913   3.606 -0.0756  0.1980 -0.1423
32343W        W48237   8.831   2.232  13.095 -0.1001 -0.2316 -0.0999
32344W        W48238   2.870   4.317  11.900 -0.2712 -0.2414  0.1186
32345W        W48239   4.717   0.600  12.924 -0.0041 -0.2333  0.1323
32346W        W48240   3.033  11.958   2.290  0.0766  0.1098  0.0149
32347W        W48241   5.285  16.289  15.925 -0.2016 -0.0001 -0.2253
32348W        W48242   4.917  17.772   4.718  0.0287 -0.0110 -0.2647
32349W        W48243  12.307   9.298   3.290 -0.2860 -0.0760  0.1729
32350W        W48244  13.313   7.990  13.138  0.0188 -0.1857  0.0793
32351W        W48245   0.395  13.891   2.771 -0.1548  0.3346  0.3860
32352W        W48246  17.508  11.885  14.170  0.0797  0.2786  0.0419
32353W        W48247   9.489   8.575   9.924  0.1355 -0.1021  0.4826
32354W        W48248   6.227   9.769  15.061 -0.1660  0.1051 -0.3385
32355W        W48249   4.771   9.716  11.838 -0.0065  0.0389 -0.1483
32356W        W48250   9.700  11.804  15.579 -0.0073  0.0008  0.0624
32357W        W48251   9.630   0.065  13.318  0.0318  0.2072 -0.1803
32358W        W48252  10.093   1.400   1.853  0.0620 -0.1385  0.1173
32359W        W48253  11.646  13.811   5.913  0.2665  0.0614  0.1333
32360W        W48254   7.917   0.581   2.787 -0.0294  0.0398 -0.2995
32361W        W48255  15.239  15.401   0.930  0.1582  0.1782 -0.1325
32362W        W48256  13.957  10.766  13.061 -0.1993  0.0735  0.0551
32363W        W48257  12.934   9.265  11.824  0.1709  0.0542 -0.2711
32364W        W48258   1.355  13.926   2.832  0.0950  0.1423 -0.0810
32365W        W48259   1.045   3.450   3.431 -0.1551  0.2084 -0.1005
32366W        W48260   0.690  10.401  11.965 -0.1930  0.0723 -0.2233
32367W        W48261  16.362  17.529   2.809  0.1759 -0.1264  0.0357
32368W        W48262  13.765   1.896   3.964  0.0475 -0.0718  0.0270
32369W        W48263   7.001  10.043  14.551 -0.0993 -0.0558 -0.1683
32370W        W48264   8.371   5.157  14.319  0.3093  0.1087  0.2318
32371W        W48265   3.770  16.279  13.736  0.1080  0.1090 -0.0457
32372W        W48266   9.250   0.146  12.310 -0.0644 -0.1417 -0.0517
32373W        W48267  16.826  14.930   5.422 -0.0473  0.0438 -0.2948
32374W        W48268   5.418  12.543   1.524 -0.0068 -0.2727 -0.1971
32375W        W48269   0.258  11.763  15.300  0.3951 -0.0466 -0.1413
32376W        W48270  15.051   4.889  12.857 -0.0673  0.1087 -0.0822
32377W        W48271   7.065   9.498  14.452  0.0425  0.1134  0.0708
32378W        W48272  16.121   6.023  12.082  0.1287  0.4527  0.0645
32379W        W48273  16.143   8.626   1.348  0.1839 -0.1879  0.3821
32380W        W48274  14.725   1.731   4.457 -0.0271 -0.1736 -0.1292
32381W        W48275  16.949  10.275  15.972  0.0804  0.0116 -0.0213
32382W        W48276   4.443   0.176   0.244  0.1926  0.2857  0.1972
32383W        W48277  16.722  12.651  16.316 -0.0103  0.0894  0.0610
32384W        W48278  15.124   9.229  15.234  0.3739 -0.1181  0.2145
32385W        W48279   1.269   7.521  13.753 -0.4198  0.3420 -0.0856
32386W        W48280   7.350   3.355   1.081  0.1347 -0.1232 -0.0810
32387W        W48281   9.863   0.249   3.730  0.1270 -0.0720 -0.3538
32388W        W48282  10.491   4.324   2.610  0.0203 -0.0056 -0.0499
32389W        W48283   0.095   0.195  14.497 -0.2251 -0.0406  0.1262
32390W        W48284   0.549  15.748   5.368  0.0721 -0.1724 -0.2761
32391W        W48285   5.352  12.022  13.396  0.1670  0.1003  0.1428
32392W        W48286   5.988   2.173   5.047  0.0259 -0.0834  0.0712
32393W        W48287  10.732   9.292   3.897  0.2828 -0.1718 -0.1026
32394W        W48288  14.177   9.110  14.963  0.0003 -0.1369  0.0735
32395W        W48289   6.550   3.031   1.542 -0.0518 -0.2419 -0.1009
32396W        W48290   8.374   5.882   2.717  0.0257  0.5291  0.0289
32397W        W48291  18.167   4.700  15.744 -0.2929 -0.1418  0.0885
32398W        W48292   7.725   7.405  12.809  0.1845 -0.2799 -0.0705
32399W        W48293   7.060   9.821  12.434 -0.0626 -0.2139  0.0452
32400W        W48294  17.531   1.015  11.661  0.0572 -0.2505 -0.0717
32401W        W48295   1.350  18.133  14.425 -0.2511  0.2777  0.0572
32402W        W48296  16.021  10.201   3.358  0.2742 -0.1245 -0.1372
32403W        W48297  17.730  16.363   1.894  0.1482 -0.0113  0.0513
32404W        W48298  13.825   2.323   4.235  0.1831 -0.0378 -0.1156
32405W        W48299  17.021   9.212  16.454  0.0891  0.1574  0.0942
32406W        W48300   6.231   1.829   2.827  0.3465 -0.2176 -0.1903
32407ION     NA48301   7.900   2.884  10.416  0.0728  0.1163  0.1430
32408ION     NA48302   8.122  11.589  10.630 -0.0471 -0.0844  0.4397
32409ION     NA48303   6.038  11.905  10.542 -0.2959 -0.0698  0.1114
32410ION     NA48304  10.266   3.758  10.318 -0.2764 -0.1672  0.3387
32411ION     NA48305   0.071   1.036  10.568  0.0476  0.1213 -0.0516
32412ION     NA48306   5.170  12.063   0.079  0.0320  0.0248 -0.0715
32413ION     NA48307  10.532  15.088  10.699  0.0968 -0.1208 -0.2231
32414ION     NA48308   8.967   8.014  16.111  0.2544 -0.2413  0.0868
32415ION     NA48309  14.121  15.735  15.124  0.1625 -0.1872 -0.1195
32416ION     NA48310  14.424   3.797  14.833  0.1365  0.2699  0.0785
32417ION     NA48311   4.897   5.240  15.530 -0.4846 -0.2561  0.3843
32418ION     NA48312   1.126   1.898  10.519 -0.2624 -0.0217  0.0273
32419ION     NA48313  15.992   8.380   2.061  0.0956  0.0197  0.3734
32420ION     NA48314   6.527  17.943   2.863 -0.0324 -0.2475 -0.1312
32421ION     NA48315   9.438   9.066  10.179  0.1280  0.0903 -0.0209
32422ION     NA48316  12.363  13.175  15.742  0.0583  0.0298  0.0787
32423ION     NA48317   3.399   4.370   5.786  0.1230 -0.1605 -0.1917
32424ION     NA48318   0.734  10.599   3.638 -0.1041 -0.1626  0.0381
32425ION     NA48319  15.985  13.470  10.571  0.1712  0.0342  0.2689
32426ION     NA48320   4.272  16.049   2.055  0.1031 -0.1316  0.1656
32427ION     NA48321   7.637  11.251  11.384 -0.1059  0.0720  0.2816
32428ION     NA48322   7.919   9.997  10.276  0.1655  0.0207  0.3143
32429ION     NA48323   6.934  15.082   0.371  0.0335  0.2435 -0.1342
32430ION     NA48324   4.156   2.199   5.877 -0.3281 -0.0003  0.0133
32431ION     NA48325  15.197   4.838  10.419 -0.3317 -0.0651 -0.5101
32432ION     NA48326  14.298   3.257  13.321 -0.0962 -0.2517 -0.1415
32433ION     NA48327   2.473  13.836  10.740 -0.0583  0.2818  0.1776
32434ION     NA48328  10.875   0.558  10.541 -0.2772  0.2186  0.3372
32435ION     NA48329  16.427   5.523  11.533  0.0249  0.0456 -0.0444
32436ION     NA48330  15.003   2.389  15.204  0.0110  0.0131 -0.0188
32437ION     NA48331   6.443  17.302   1.481 -0.0017  0.1270 -0.0550
32438ION     NA48332  16.813   9.727   6.278 -0.0437  0.0879  0.0106
32439ION     NA48333   9.442   5.777  10.178  0.5506  0.1524  0.0923
32440ION     NA48334   1.041   6.934  10.731 -0.3846 -0.3107  0.0474
32441ION     NA48335   5.753  16.389  10.516 -0.1883  0.1663  0.0452
32442ION     NA48336   9.033  17.955  15.811  0.1838 -0.2819  0.1221
32443ION     NA48337   3.339   3.156   5.319  0.2689  0.1095 -0.1076
32444ION     NA48338   2.925   0.596  13.051 -0.3736 -0.0538  0.0414
32445ION     NA48339   0.407   0.194  10.426 -0.0790 -0.1501 -0.1564
32446ION     NA48340   3.337  10.721  10.818  0.2462 -0.1706 -0.0641
32447ION     NA48341   0.327  16.339  11.054  0.1887  0.0749 -0.1797
32448ION     NA48342  10.010   4.611   9.995  0.1038 -0.1536  0.0744
32449ION     NA48343  10.975   6.365   5.131  0.1238 -0.2425  0.0977
32450ION     NA48344  13.214  16.245  13.625 -0.1071 -0.1201  0.0951
32451ION     NA48345  15.336  13.045   1.153 -0.2317  0.2182  0.1179
32452ION     NA48346  15.096   7.247  12.370  0.0316  0.1250  0.3854
32453ION     NA48347   7.708   3.964  10.301  0.0232  0.3470  0.1037
32454ION     NA48348   3.609   8.914  15.301  0.3539 -0.1221 -0.3620
32455ION     NA48349  16.907  12.442   4.060  0.2787  0.0181  0.2155
32456ION     NA48350  11.121  12.926   0.464 -0.2192  0.0502  0.1253
32457ION     NA48351  12.264   9.106  10.276 -0.0273 -0.1398 -0.0809
32458ION     NA48352   0.769   9.863  11.238 -0.0542 -0.2665 -0.2150
32459ION     NA48353   8.198   5.475  10.048 -0.2286  0.0805 -0.2145
32460ION     NA48354  11.823  10.583  13.389 -0.1008 -0.5745  0.2235
32461ION     NA48355  10.785   8.672   5.813 -0.1313 -0.0234 -0.1520
32462ION     NA48356   1.673  10.478   5.590 -0.1613  0.2746 -0.2399
32463ION     NA48357   3.687   3.825  10.154  0.1134  0.2350  0.1260
32464ION     NA48358  15.185   6.204  10.597  0.1537 -0.3129 -0.1227
32465ION     NA48359   5.652  12.872  10.429 -0.2661  0.1474 -0.1771
32466ION     NA48360   5.897   4.815   9.964 -0.0776 -0.0517 -0.1108
32467ION     NA48361   7.178   6.226  13.149 -0.3158  0.0608 -0.4632
32468ION     NA48362   2.719  15.628   4.499 -0.4789 -0.0700 -0.0558
32469ION     NA48363  10.595   2.371  10.180  0.2883 -0.4485  0.1785
32470ION     NA48364   6.097  15.403  10.368  0.4598 -0.0892  0.0188
32471ION     NA48365  17.082   5.280   5.080 -0.1098 -0.0267 -0.0671
32472ION     NA48366  13.340   5.842  10.052  0.1357  0.2420 -0.2056
32473ION     NA48367   7.537  17.153   4.911 -0.1796  0.1063  0.0739
32474ION     NA48368  17.876  13.766  10.764  0.0668  0.1540  0.0444
32475ION     NA48369  14.248   8.989  10.711 -0.0428  0.1336 -0.2012
32476ION     NA48370   6.426  18.003  10.108 -0.0007  0.1964  0.0507
32477ION     NA48371   7.957   0.170  10.313  0.1717  0.3242  0.1273
32478ION     NA48372   8.511  10.859  10.242 -0.0671 -0.0534 -0.0357
32479ION     NA48373  10.088   6.974  11.299 -0.2377 -0.0953  0.2858
32480ION     NA48374   4.591   3.242  10.277  0.1142  0.0922  0.1231
32481ION     NA48375   6.619  12.853  10.457  0.2156  0.0710 -0.3303
32482ION     NA48376   5.141  17.553   1.781  0.0595  0.3923 -0.0589
32483ION     NA48377   4.642   5.531   9.744  0.0660 -0.0892  0.0875
32484ION     NA48378  13.445   5.088   9.928  0.1989  0.0918  0.0297
32485ION     NA48379  12.949  13.432  10.643  0.0938 -0.0246 -0.2508
32486ION     NA48380   4.227   3.277   4.297  0.1828 -0.2613 -0.0706
32487ION     NA48381   0.404   4.097   3.394  0.0274  0.2333 -0.0757
32488ION     NA48382   4.087  13.728  16.434 -0.3963  0.0446 -0.0110
32489ION     NA48383   5.342   8.400  10.240 -0.2574 -0.1515  0.1145
32490ION     NA48384   5.879   5.006   2.766 -0.0413  0.1751 -0.0658
32491ION     NA48385  12.745   7.240  16.307 -0.3524 -0.0963  0.2706
32492ION     NA48386  16.943   3.746  10.839 -0.1318 -0.2173  0.0602
32493ION     NA48387   5.391  12.359   3.627 -0.1542 -0.1578 -0.3882
32494ION     NA48388   7.865   6.259   6.123  0.0064  0.1233  0.1815
32495ION     NA48389   1.134   5.106  10.661 -0.1854  0.2628 -0.2347
32496ION     NA48390   0.259   3.691  10.485 -0.1155  0.0105  0.0696
32497ION     NA48391  15.261   7.496   5.940 -0.1696  0.2613  0.1304
32498ION     NA48392   7.003  17.202   5.454 -0.1317  0.2719 -0.1672
32499ION     NA48393  13.186  15.176  11.291 -0.1350  0.0374  0.1520
32500ION     NA48394  13.366   2.486  10.580 -0.2399 -0.1224 -0.1410
32501ION     NA48395   2.931  15.453  13.096 -0.1849  0.0627 -0.2404
32502ION     NA48396  17.232   7.575   5.721  0.2893  0.0885  0.0810
32503ION     NA48397  12.703   1.924  10.548 -0.1051 -0.4367 -0.1663
32504ION     NA48398  17.804   3.817   6.088  0.1638  0.0149  0.1016
32505ION     NA48399  12.864  14.451   1.818 -0.2801  0.2500  0.0989
32506ION     NA48400   5.873  13.884   3.177 -0.0517 -0.1924  0.0349
32507ION     NA48401  15.890   2.050   5.858  0.3536  0.1578 -0.0211
32508ION     NA48402  12.519   8.047  12.484 -0.0077 -0.1343 -0.3380
32509ION     NA48403  12.616   0.006  10.414 -0.4274  0.4053  0.2025
32510ION     NA48404   6.890   8.094  11.025  0.0094 -0.0818 -0.5726
32511ION     NA48405  13.534  12.570   6.328  0.3966  0.0895 -0.0687
32512ION     NA48406   8.975  14.965   6.032 -0.0345  0.0877 -0.0444
32513ION     NA48407  15.942   3.739  12.983 -0.2958  0.2132  0.0129
32514ION     NA48408  10.533  17.994  10.551 -0.1597  0.2149  0.2607
32515ION     NA48409  10.387   0.688   2.925 -0.0506  0.1633  0.0708
32516ION     NA48410  10.146  13.097  10.760 -0.1115  0.1464  0.1557
32517ION     NA48411  15.305   8.431   5.961  0.0009 -0.1258  0.1066
32518ION     NA48412   1.973  14.451  11.537 -0.0916 -0.0975 -0.2325
32519ION     NA48413   9.620  14.136  12.871  0.1851 -0.0664 -0.1891
32520ION     NA48414   1.149  16.591  10.937  0.0885  0.0567 -0.0540
32521ION     NA48415   0.023   5.072   0.546 -0.0786  0.0453 -0.1255
32522ION     NA48416  16.002   2.524  10.550  0.0330 -0.1365 -0.3303
32523ION     NA48417   9.319   1.396  14.315 -0.0416  0.0262  0.1479
32524ION     NA48418  15.964  11.145  11.196  0.4061  0.1081 -0.4768
32525ION     NA48419   2.646  12.984  10.679  0.0703  0.0234  0.6924
32526ION     NA48420  12.519   5.352  10.059 -0.0696 -0.1166 -0.0020
32527ION     NA48421   3.131   8.182  10.682 -0.0063 -0.2911  0.0484
32528ION     NA48422  13.892  15.512   5.927 -0.2198  0.1524  0.2730
32529ION     NA48423   5.860   3.701  10.529 -0.2166  0.0080  0.1078
32530ION     NA48424   4.538  15.953  10.473  0.2106  0.4130 -0.1689
32531ION     NA48425   9.802  17.034   6.019  0.2063  0.0524  0.2055
32532ION     NA48426   3.794   9.936  10.881  0.0090  0.4795  0.4665
32533ION     NA48427   3.968  11.372  10.612 -0.1033  0.1724  0.0422
32534ION     NA48428  14.568   1.867   2.848  0.1810 -0.3269  0.2519
32535ION     NA48429   7.471  15.056  10.497 -0.0443 -0.4601 -0.0122
32536ION     NA48430   5.955   5.320   5.146  0.1128  0.1296 -0.1459
32537ION     NA48431  17.097  12.120  15.060 -0.0401 -0.0079 -0.4322
32538ION     NA48432  13.853   2.765  12.936 -0.3007 -0.0028  0.1236
32539ION     NA48433  12.678   6.436  10.061 -0.0764 -0.2142  0.0154
32540ION     NA48434   8.176  14.567   1.419  0.2042  0.1285  0.0468
32541ION     NA48435  18.050  10.260   5.803  0.1347  0.0364 -0.0127
32542ION     NA48436   9.437  13.279  15.002 -0.1961  0.0481  0.0101
32543ION     NA48437  12.228  14.814  13.805 -0.0063 -0.2873 -0.0916
32544ION     NA48438   2.533   2.360   0.922  0.1307  0.0395  0.1564
32545ION     NA48439  13.569  10.354  10.652  0.0092  0.2594 -0.0937
32546ION     NA48440  14.964  14.839  10.744  0.2210  0.0617 -0.4410
32547ION     NA48441   0.767  11.769  11.135 -0.2296 -0.1528  0.1314
32548ION     NA48442   5.395   9.196  10.491 -0.0757  0.1332 -0.0653
32549ION     NA48443  12.577   3.567  12.380 -0.3525  0.1934 -0.1649
32550ION     NA48444   3.141   5.074   0.151  0.0038 -0.1479  0.2125
32551ION     NA48445  13.437   1.123   3.678  0.0861 -0.1361  0.0827
32552ION     NA48446  13.388   1.569  10.564  0.2042  0.0141 -0.0047
32553ION     NA48447  16.130   5.260  10.469 -0.2220  0.0381 -0.1625
32554ION     NA48448   8.844  17.115   5.711  0.1884 -0.0689  0.3235
32555ION     NA48449   4.139  14.823  10.486  0.1507  0.1813 -0.1681
32556ION     NA48450   2.340  17.179   2.667  0.2507 -0.1094 -0.0688
32557ION     NA48451  13.119   4.874   1.353 -0.3128  0.1961 -0.2102
32558ION     NA48452  10.738   8.376   9.787  0.0265 -0.0730  0.0250
32559ION     NA48453  17.017  13.509   5.048  0.0036 -0.1273 -0.2133
32560ION     NA48454   7.869   1.352  10.267  0.1393 -0.0199  0.0112
32561ION     NA48455   3.106   9.114  10.646 -0.0114  0.1711 -0.1738
32562ION     NA48456  12.660  13.150   4.804 -0.1652 -0.2456  0.1037
32563ION     NA48457   9.376  10.506  10.287  0.0344  0.0746 -0.2158
32564ION     NA48458  11.155  10.441   2.639 -0.1351  0.3139 -0.0898
32565ION     NA48459   5.874   6.600   2.076  0.1371  0.0794  0.3779
32566ION     NA48460  17.105   9.741   6.761 -0.0302  0.0029  0.2694
32567ION     NA48461   6.999  13.495   2.215 -0.0245  0.0854 -0.1392
32568ION     NA48462   6.556  12.332   1.952  0.0109 -0.0062 -0.3221
32569ION     NA48463  11.121  13.069   5.799  0.1030 -0.1690  0.1565
32570ION     NA48464  11.931   6.078   9.901 -0.1834 -0.3234  0.4603
32571ION     NA48465   1.762  12.183  10.908 -0.1059  0.2557  0.0951
32572ION     NA48466   2.583  10.338  10.655  0.3349  0.2329 -0.0827
32573ION     NA48467  17.773  12.854   6.545 -0.3746  0.0540 -0.0373
32574ION     NA48468   6.726   3.488  10.152  0.2622  0.1886  0.0851
32575ION     NA48469  13.073   0.655  10.351  0.1182  0.1165 -0.0467
32576ION     NA48470   9.888   0.354   5.966 -0.1559 -0.3913  0.1628
32577ION     NA48471  16.899   8.796  13.421  0.0811  0.0040  0.1034
32578ION     NA48472   9.023   4.280  10.135  0.3318  0.0495 -0.0923
32579ION     NA48473  15.374  13.113  11.053  0.2623  0.1685  0.0318
32580ION     NA48474   7.316  11.418   5.746  0.0836 -0.0306 -0.0092
32581ION     NA48475   4.616   6.986  11.333  0.1434  0.0381  0.1529
32582ION     NA48476   8.707   5.286   9.996 -0.0316 -0.2785 -0.0750
32583ION     NA48477   5.775   5.816   4.391 -0.0713  0.3692 -0.0511
32584ION     NA48478  11.577   1.705   6.032  0.0203 -0.0698  0.4543
32585ION     NA48479  15.837  15.315  10.713 -0.0812 -0.0426 -0.2496
32586ION     NA48480   9.132  14.263  15.402  0.1197 -0.2200 -0.2016
32587ION     NA48481  12.210  16.908  15.346  0.1032  0.0970  0.0752
32588ION     NA48482  13.961  15.001  10.767  0.2633  0.4757  0.3822
32589ION     NA48483  12.398   2.351   5.364 -0.5115  0.1195 -0.1821
32590ION     NA48484   2.393  17.201  11.029 -0.0074 -0.0817 -0.0688
32591ION     NA48485   1.265   9.817  11.178 -0.3538  0.3806 -0.1759
32592ION     NA48486   9.066   1.485  10.691  0.0251 -0.0578 -0.2535
32593ION     NA48487  15.421  11.165   3.624  0.0716 -0.0268 -0.0881
32594ION     NA48488  13.648  12.005  10.720  0.3342  0.0052 -0.1214
32595ION     NA48489  17.460   1.058  12.960 -0.0680 -0.2063 -0.2480
32596ION     NA48490   2.419   6.031  10.468  0.2427 -0.1239 -0.2425
32597ION     NA48491   3.363   6.480  10.486 -0.2794  0.0512  0.1292
32598ION     NA48492   8.673   2.638  10.409 -0.0550  0.0583 -0.0202
32599ION     NA48493   6.477  13.303   3.536 -0.0129 -0.2085  0.0428
32600ION     NA48494   1.361   2.116  11.297  0.1224 -0.1429  0.0732
32601ION     NA48495  11.326  11.071  10.614 -0.1015 -0.4503 -0.2680
32602ION     NA48496   4.286   7.251  12.710  0.0148  0.0063  0.1046
32603ION     NA48497   1.522   4.949   4.597  0.1291 -0.1359  0.0275
32604ION     NA48498  16.355  14.021  11.368  0.0673  0.0387 -0.1281
32605ION     NA48499   1.864   4.224  10.423  0.0663 -0.2975 -0.0372
32606ION     NA48500   5.625  16.928   2.759 -0.0789  0.2426  0.3644
32607ION     NA48501  13.415   7.169  10.263 -0.2122  0.0915  0.2189
32608ION     NA48502  18.212   9.539  12.222  0.0353  0.2237  0.0034
32609ION     NA48503  11.757   3.963  11.910 -0.1501  0.0891  0.2807
32610ION     NA48504   2.587  17.247   0.277 -0.0850 -0.2750 -0.1583
32611ION     NA48505   0.622   8.162   6.317  0.0874  0.0223 -0.1875
32612ION     NA48506   5.716   9.067  14.432  0.0846 -0.1779 -0.2449
32613ION     NA48507  18.095   9.597  11.226  0.0820 -0.0606  0.2762
32614ION     NA48508  11.269  10.314  10.058 -0.1335 -0.1059 -0.1464
32615ION     NA48509   6.411   1.647   5.628 -0.0083  0.1801 -0.0507
32616ION     NA48510   7.178   1.949  10.152 -0.0732 -0.0026 -0.2141
32617ION     NA48511  13.037   7.736  15.124 -0.4166 -0.3068 -0.1217
32618ION     NA48512   9.875  10.503  10.051  0.0341 -0.2360  0.1545
32619ION     NA48513  15.411  16.932  10.545 -0.0334  0.1387  0.2124
32620ION     NA48514   3.231  16.963  13.130  0.0239  0.2268  0.1386
32621ION     NA48515   5.040   2.068   2.333  0.0808 -0.2157 -0.0187
32622ION     NA48516  10.513  12.131  15.569 -0.3304  0.0056  0.2525
32623ION     NA48517   5.645  13.273  10.876  0.3427  0.1026 -0.2280
32624ION     NA48518   4.217   9.637   3.354  0.0284 -0.3031 -0.0012
32625ION     NA48519  12.352   7.820  13.465 -0.1066 -0.0815 -0.0865
32626ION     NA48520   9.628  11.231   3.873 -0.3767 -0.0047  0.1648
32627ION     NA48521   1.790  13.245  10.929 -0.1453  0.0651 -0.1411
32628ION     NA48522   6.712   9.306  10.421 -0.3951  0.1463 -0.0181
32629ION     NA48523  11.125  16.435  10.904 -0.0681 -0.1808  0.0141
32630ION     NA48524  16.182  17.842   6.020 -0.0578  0.1915 -0.0858
32631ION     NA48525  11.694   0.602   1.748 -0.0763 -0.1034  0.2375
32632ION     NA48526   2.968   5.522  11.491  0.1609 -0.1548 -0.2459
32633ION     NA48527   8.398  12.371  10.523 -0.1573 -0.2436  0.2947
32634ION     NA48528   8.736   1.703   2.119  0.0602  0.0401 -0.0278
32635ION     NA48529  16.519  14.752  10.824 -0.5516  0.1821  0.1637
32636ION     NA48530  13.542  10.222   6.220 -0.3551 -0.3164  0.1170
32637ION     NA48531  17.003   0.748  10.573  0.2363  0.0410 -0.0863
32638ION     NA48532  17.948  11.102  11.274  0.0015  0.0610 -0.1146
32639ION     NA48533  10.406   9.185   9.782 -0.1970  0.1714  0.1845
32640ION     NA48534   8.126  13.686  10.465  0.4309 -0.0053 -0.0555
32641ION     NA48535  14.105  13.471  12.604 -0.1638  0.0203  0.0152
32642ION     NA48536  13.507  12.180   4.134  0.1165  0.0645 -0.2137
32643ION     NA48537   8.647  17.684  10.695  0.1399  0.1536 -0.3480
32644ION     NA48538  13.546   9.828   1.824  0.4436 -0.1201 -0.0342
32645ION     NA48539   9.956   7.357  14.402  0.4376  0.0540 -0.0869
32646ION     NA48540   3.624  12.230  10.663  0.1799 -0.0296  0.2141
32647ION     NA48541   2.527   2.550  10.323  0.0901  0.0284 -0.0249
32648ION     NA48542   9.342   7.552  10.069 -0.1280 -0.2584  0.0670
32649ION     NA48543  15.468   7.035  10.758 -0.0360 -0.3152  0.0613
32650ION     NA48544  11.203   7.614   9.781 -0.0007  0.3276 -0.0288
32651ION     NA48545  14.083   7.324  10.755  0.0568 -0.0211  0.0952
32652ION     NA48546   8.650   9.007  10.763  0.2722  0.0159  0.1011
32653ION     NA48547  16.191  18.161   1.239 -0.3089  0.2444 -0.2946
32654ION     NA48548  14.136   3.152  10.143 -0.1814  0.0147  0.0290
32655ION     NA48549  11.538   0.994   3.676 -0.1052 -0.1834  0.0367
32656ION     NA48550   3.745   7.340  10.274  0.0963  0.1747  0.5619
32657ION     NA48551  17.799  16.681  10.635 -0.2541 -0.0400  0.0858
32658ION     NA48552   4.826  15.080   4.914  0.1888  0.0325  0.1049
32659ION     NA48553   9.134  16.370   5.907 -0.2394  0.1368  0.0731
32660ION     NA48554   2.381   8.624  10.652  0.2996  0.0755 -0.4280
32661ION     NA48555   8.939   6.361   6.025 -0.0659 -0.0558  0.1901
32662ION     NA48556   3.834  14.006  10.875 -0.2200  0.1727  0.0859
32663ION     NA48557  16.728   0.088   3.475 -0.5470 -0.0298  0.3321
32664ION     NA48558   7.532  11.774  10.620 -0.1471 -0.1853  0.0114
32665ION     NA48559   1.121   3.314  10.559  0.0980  0.2118 -0.0737
32666ION     NA48560   1.986  10.963   6.421 -0.0199 -0.0055 -0.1390
32667ION     NA48561   8.507   7.773  15.484 -0.0541 -0.1164  0.1900
32668ION     NA48562  16.951   5.758  10.569  0.2026  0.0262  0.1505
32669ION     NA48563   8.182   3.566   1.399  0.3592  0.3708 -0.2608
32670ION     NA48564   5.537   1.787  10.320 -0.1400 -0.0161  0.1319
32671ION     NA48565  14.391  12.376   4.292 -0.3143  0.0820  0.1472
32672ION     NA48566   6.132   5.232  12.035  0.0563  0.1412  0.1610
32673ION     NA48567   6.150   8.714  10.336 -0.0092 -0.2016  0.2091
32674ION     NA48568   5.671   7.297  10.085  0.4177 -0.2316 -0.0127
32675ION     NA48569   3.251   6.769   3.406 -0.1157 -0.3643 -0.0435
32676ION     NA48570   6.083   0.606   0.927  0.1492 -0.1845 -0.0597
32677ION     NA48571   1.005   5.447  12.384  0.3717 -0.0041 -0.1939
32678ION     NA48572  13.820   5.980  13.770  0.0025  0.1244  0.3101
32679ION     NA48573   7.331  14.065  10.576  0.2936  0.0765  0.0927
32680ION     NA48574   2.278  12.287   4.122  0.0119  0.0889  0.1089
32681ION     NA48575   4.039  18.231  13.437  0.1363 -0.0572 -0.0679
32682ION     NA48576  11.856   5.225   1.280  0.0324  0.0618 -0.1171
32683ION     NA48577   8.985   8.761   2.632  0.4390 -0.0097  0.1082
32684ION     NA48578  13.140  17.064  10.706 -0.0493  0.1220  0.2777
32685ION     NA48579   9.999   8.848   5.408 -0.0073 -0.0568 -0.0473
32686ION     NA48580  15.269   8.019  11.052  0.2609  0.0807  0.2324
32687ION     NA48581  12.893   8.125  10.206  0.1919 -0.1953  0.0936
32688ION     NA48582   3.524   1.346  14.173 -0.0978 -0.0532  0.3200
32689ION     NA48583   4.540  15.818  14.161  0.4158 -0.0625  0.2198
32690ION     NA48584  17.807   6.015  10.676  0.5152 -0.2112 -0.1784
32691ION     NA48585  13.173   3.523  10.205 -0.0682 -0.0805  0.0767
32692ION     NA48586   1.652   6.504  10.646 -0.1997  0.0079  0.4066
32693ION     NA48587   8.075   0.263  13.525  0.0924  0.1208 -0.0570
32694ION     NA48588  17.845  13.882  12.858  0.3208  0.1572  0.0902
32695ION     NA48589  15.730  14.419  10.786 -0.0759  0.0032  0.1298
32696ION     NA48590  10.083  17.635  10.543 -0.1722 -0.1615 -0.4716
32697ION     NA48591  11.860   0.495  10.501 -0.2376  0.1124  0.0709
32698ION     NA48592   2.390   5.121  10.336  0.1256 -0.0141 -0.3074
32699ION     NA48593  14.475   9.940  14.924 -0.0315  0.0098  0.2288
32700ION     NA48594  10.660   4.095  10.321  0.0925 -0.4852  0.2744
32701ION     NA48595  14.740   0.727  12.011  0.4268 -0.3516 -0.0932
32702ION     NA48596   3.090   4.717  10.039  0.4111  0.0305 -0.2076
32703ION     NA48597  14.511  17.182  10.476 -0.0478  0.0168  0.1881
32704ION     NA48598   4.650  17.559  10.300 -0.0995  0.2027  0.1148
32705ION     NA48599  17.973   2.405   6.059  0.0699  0.0834  0.2345
32706ION     NA48600  15.830  16.188   4.356 -0.4160 -0.0528 -0.0634
32707ION     NA48601  16.417  16.186  10.672 -0.0232  0.0136  0.3017
32708ION     NA48602  16.480  11.900  11.113  0.2091  0.0575  0.1345
32709ION     NA48603  10.329   7.581   9.860 -0.0738  0.1147  0.0219
32710ION     NA48604   2.126   1.905   2.800  0.0247  0.1073 -0.2116
32711ION     NA48605   4.987  16.738  10.291 -0.2676  0.0210  0.1242
32712ION     NA48606   8.849   1.997  11.743  0.2242  0.1910 -0.1190
32713ION     NA48607   7.207  10.577  10.380 -0.0255 -0.1452  0.2459
32714ION     NA48608   5.103   1.915  15.647  0.0734 -0.0470  0.2036
32715ION     NA48609  14.402   9.944  10.916  0.0402  0.5199  0.4524
32716ION     NA48610  15.268  11.832  11.100 -0.0501  0.1147  0.0542
32717ION     NA48611  17.102  15.553  10.644 -0.1196  0.1081  0.2376
32718ION     NA48612   7.968   3.481  12.676  0.1613 -0.0505 -0.4742
32719ION     NA48613   7.536  17.266   1.262  0.2834 -0.0126  0.3642
32720ION     NA48614   3.601   5.795   3.792 -0.3155 -0.0726 -0.2001
32721ION     NA48615  10.623  11.624  10.317  0.4271  0.1409  0.1415
32722ION     NA48616   4.159  12.994  10.705  0.1789  0.2242 -0.0400
32723ION     NA48617   8.555   3.484  10.217  0.3784 -0.3925  0.0277
32724ION     NA48618   6.433  17.783   5.658 -0.0779  0.1799 -0.1752
32725ION     NA48619  11.571  13.091  10.505 -0.0366  0.2101  0.3182
32726ION     NA48620   0.550  14.389  10.772 -0.0504 -0.2081 -0.0663
32727ION     NA48621  15.588   6.149  16.002  0.1021  0.1776 -0.1165
32728ION     NA48622  13.375   8.030  10.336 -0.0828 -0.2133 -0.1401
32729ION     NA48623   8.703  17.645   2.080  0.3481 -0.1168  0.1960
32730ION     NA48624   6.730  11.199   5.788 -0.0636  0.1006 -0.1059
32731ION     NA48625  15.180   9.031  10.984 -0.0190 -0.2886  0.1052
32732ION     NA48626   1.878   3.107  10.312  0.0516 -0.0018  0.1192
32733ION     NA48627  12.506  14.023  10.984 -0.1116 -0.0182 -0.2662
32734ION     NA48628  17.776  14.711   5.308  0.1943 -0.2677 -0.0570
32735ION     NA48629  15.165   7.774  14.056 -0.1734 -0.0727 -0.1132
32736ION     NA48630  11.206   4.830   9.990  0.1222  0.0206  0.1689
32737ION     NA48631  14.475   3.442   0.699  0.0169  0.4102 -0.3245
32738ION     NA48632   6.828   4.887   5.773  0.3006 -0.0433 -0.1050
32739ION     NA48633   6.401   0.597  10.760 -0.0996  0.0396  0.3195
32740ION     NA48634  11.859  10.098   5.918 -0.0413 -0.1616 -0.1934
32741ION     NA48635   6.980  16.898   4.197 -0.0958 -0.0164 -0.3059
32742ION     NA48636  17.556   9.680  13.897 -0.1812 -0.1092 -0.2804
32743ION     NA48637  13.248   0.078   3.712 -0.1936  0.0800 -0.0054
32744ION     NA48638  16.123  17.656  10.493  0.1001  0.0944 -0.2470
32745ION     NA48639   2.052  15.681  15.635  0.2578 -0.2484 -0.0558
32746ION     NA48640  13.450  17.820  10.515 -0.0074 -0.0674 -0.3053
32747ION     NA48641  14.321   5.794  15.781 -0.0419  0.0817 -0.2487
32748ION     NA48642   0.225   8.258  11.450 -0.0969  0.0489 -0.2570
32749ION     NA48643   2.412  11.084  13.309  0.0462  0.0176  0.1681
32750ION     NA48644   3.774   9.450  12.683 -0.3206  0.0491 -0.4528
32751ION     NA48645  13.415   1.493   5.469  0.2471 -0.1778  0.1538
32752ION     NA48646  17.723  18.027  10.614 -0.0553 -0.2543 -0.2598
32753ION     NA48647   3.744  12.413   2.010  0.0466 -0.3353  0.0860
32754ION     NA48648  16.124   8.007  10.953 -0.1209 -0.1418  0.4222
32755ION     NA48649   8.997  16.499  12.545 -0.0764  0.1371  0.0055
32756ION     NA48650   7.950  10.502  11.780  0.3482 -0.1350 -0.1905
32757ION     NA48651   8.561  11.575  12.965 -0.1382  0.0900 -0.2863
32758ION     NA48652   7.122   0.324  10.073 -0.0246 -0.0050 -0.1410
32759ION     NA48653   9.928  15.740  11.106  0.0043 -0.1123  0.2073
32760ION     NA48654   1.616   9.636   6.181 -0.1437 -0.0060  0.0683
32761ION     NA48655   1.593   8.881  11.249  0.2667  0.0864 -0.1096
32762ION     NA48656  12.865  12.580  15.466  0.1915  0.1155 -0.0466
32763ION     NA48657  11.908  13.927  10.894  0.0311 -0.0551  0.1495
32764ION     NA48658   0.879   4.570   0.059 -0.1875 -0.0727 -0.0250
32765ION     NA48659   1.310  16.388   5.432  0.0371  0.2868 -0.0184
32766ION     NA48660   4.968  12.789  10.598 -0.1583  0.2020 -0.1647
32767ION     NA48661  12.346  10.964   5.869  0.0820  0.1593  0.1312
32768ION     NA48662   4.458  12.079  10.657  0.1007 -0.1095  0.3448
32769ION     NA48663  17.296   9.774  11.446  0.2226  0.3509  0.1493
32770ION     NA48664  16.372   9.562  11.284 -0.0978 -0.2809 -0.1999
32771ION     NA48665  16.623   1.181  10.452  0.0143  0.1577 -0.0064
32772ION     NA48666  17.692   4.172  10.648 -0.0912 -0.3176 -0.0843
32773ION     NA48667  17.443   4.459   4.466  0.0756  0.2150  0.0187
32774ION     NA48668  11.662   6.872   4.252 -0.1243 -0.1676  0.0825
32775ION     NA48669  13.149   8.978  10.329  0.0467 -0.1188 -0.0689
32776ION     NA48670  14.829  10.682  11.207  0.2669 -0.1231  0.3861
32777ION     NA48671  15.622  12.985   3.987 -0.1976  0.0921 -0.0512
32778ION     NA48672   1.202   7.857  10.784 -0.0136 -0.1927  0.0244
32779ION     NA48673   2.405  18.212  10.662  0.0503 -0.1617  0.1867
32780ION     NA48674  17.957   7.048   5.919 -0.1736  0.2984  0.1309
32781ION     NA48675   0.608   0.894  10.463 -0.1612 -0.4421  0.0196
32782ION     NA48676  15.917   1.857  10.540  0.1183 -0.1478  0.2412
32783ION     NA48677   0.516   1.987   5.547  0.0093  0.2030  0.0441
32784ION     NA48678   0.978   5.928  10.898  0.0650  0.0619 -0.1638
32785ION     NA48679  11.355  11.672   2.155 -0.0561  0.0496  0.2078
32786ION     NA48680  10.087   2.441  10.484 -0.6116  0.1319 -0.0578
32787ION     NA48681  17.073  12.504  10.806 -0.2583  0.0168 -0.2104
32788ION     NA48682  16.198  10.975   6.640 -0.5183 -0.0083  0.1420
32789ION     NA48683  11.186   9.610   3.670 -0.5696 -0.1407 -0.0552
32790ION     NA48684  15.354   0.023  10.783  0.1894  0.0286  0.0033
32791ION     NA48685  11.328   2.990  10.130  0.2064  0.0601  0.2110
32792ION     NA48686  16.593  17.614  10.414  0.1708 -0.1059  0.0581
32793ION     NA48687   1.402   0.122  10.441  0.1771  0.0410 -0.0093
32794ION     NA48688  13.768   3.819  10.042 -0.0687  0.2255 -0.2731
32795ION     NA48689   6.665   4.293   0.332 -0.1814  0.0976 -0.0691
32796ION     NA48690   9.664  11.562   1.697  0.0474 -0.1363 -0.1070
32797ION     NA48691   3.492  10.231   1.178 -0.0605  0.0439  0.2896
32798ION     NA48692   1.009   9.316  14.161 -0.0554 -0.0489 -0.2500
32799ION     NA48693  11.141   6.820   0.694  0.0149 -0.0600  0.0202
32800ION     NA48694   6.077  12.231   5.957  0.1566 -0.4537 -0.0898
32801ION     NA48695  15.581   4.230   5.556  0.0030  0.1498  0.2350
32802ION     NA48696  11.855  14.729  11.037  0.2792  0.3447  0.1185
32803ION     NA48697  16.119   3.461  10.421  0.1126 -0.0617  0.2595
32804ION     NA48698   6.336   2.551  10.142 -0.1779  0.0327 -0.0191
32805ION     NA48699  10.079  14.475  15.084  0.2596  0.6403  0.0003
32806ION     NA48700   9.900   7.809   9.994 -0.0534  0.0357  0.0290
32807ION     NA48701  10.290  17.149   5.818  0.0893  0.0296 -0.0930
32808ION     NA48702   1.756  13.182   6.121 -0.1769  0.1085  0.1610
32809ION     NA48703  11.422  18.116   5.234  0.1501 -0.1412 -0.2070
32810ION     NA48704   9.550  17.387  10.577  0.0539  0.2189 -0.1278
32811ION     NA48705   3.723  16.942   2.813  0.5534  0.1846 -0.0933
32812ION     NA48706  16.728  10.115   4.373  0.1992 -0.0903  0.0188
32813ION     NA48707   9.209   1.351  10.236 -0.2563 -0.0153 -0.2320
32814ION     NA48708   2.057   7.384  10.798  0.2650  0.1213 -0.0043
32815ION     NA48709   8.515  17.406  12.651  0.0175  0.2092  0.1822
32816ION     NA48710   1.545   0.367  11.098 -0.0568  0.1644  0.1617
32817ION     NA48711   6.829  16.964   5.866  0.2517 -0.1135 -0.0367
32818ION     NA48712  17.525   7.135   4.903  0.4044 -0.1682  0.0716
32819ION     NA48713   4.147  16.875  10.683 -0.2178  0.1867  0.2440
32820ION     NA48714  10.649  13.319  10.772 -0.1120 -0.2641  0.1669
32821ION     NA48715   3.902   0.024  10.434 -0.0918 -0.0059 -0.3374
32822ION     NA48716   5.679  10.116  10.497 -0.2454 -0.0498 -0.0744
32823ION     NA48717  10.986   0.465   5.822  0.1529 -0.1430 -0.2461
32824ION     NA48718   6.412  13.612  10.513  0.0525 -0.2080  0.0132
32825ION     NA48719   5.315   1.150  10.418 -0.2328  0.5897 -0.1725
32826ION     NA48720   7.498  13.020  13.634  0.2698 -0.0004 -0.0878
32827ION     NA48721  14.842   8.175   4.276  0.0021 -0.2068 -0.3464
32828ION     NA48722  12.971   9.730  10.410 -0.1834 -0.1137 -0.1151
32829ION     NA48723  13.799   9.219  13.987 -0.1208 -0.1803  0.1106
32830ION     NA48724  14.082   0.294  10.464  0.0877 -0.0040 -0.1085
32831ION     NA48725   4.135   7.821   5.839 -0.1403  0.0853  0.1436
32832ION     NA48726  11.597  15.626  10.792  0.1110 -0.2738 -0.0945
32833ION     NA48727   7.772   8.022   5.326  0.2494  0.0040 -0.2218
32834ION     NA48728   8.667   0.728  10.241  0.0593  0.0402  0.1943
32835ION     NA48729  11.733   6.410  14.667  0.2059 -0.0602 -0.2002
32836ION     NA48730   0.795   8.481   1.275  0.1171  0.1438  0.0150
32837ION     NA48731   7.561   9.659  10.651 -0.2752  0.0098  0.4059
32838ION     NA48732   8.502   9.242  14.879  0.1112 -0.1694 -0.1085
32839ION     NA48733   0.818  11.557  12.087  0.4301 -0.2714 -0.1287
32840ION     NA48734   5.796   7.150   5.442 -0.4567  0.1763 -0.0448
32841ION     NA48735  13.065  11.080  10.609  0.0966 -0.2110  0.2444
32842ION     NA48736   9.235   8.291  10.673  0.0840 -0.2002  0.2702
32843ION     NA48737   8.582  13.797  10.771 -0.3264 -0.0773  0.1484
32844ION     NA48738   3.478  17.807  11.472 -0.1603 -0.0412 -0.2132
32845ION     NA48739   5.290  18.094   3.362  0.1452  0.1118 -0.0511
32846ION     NA48740   4.092   8.337   5.254 -0.0518  0.1569  0.2044
32847ION     NA48741   8.222   9.021  10.153  0.0359  0.0111  0.0208
32848ION     NA48742   7.937   6.542   9.933  0.2843 -0.0364 -0.2417
32849ION     NA48743  15.013  18.032   2.717 -0.4085 -0.1157  0.2047
32850ION     NA48744   0.400   4.595  10.569 -0.0010  0.0343 -0.1118
32851ION     NA48745   7.122  14.877   5.738  0.0508  0.1858 -0.2143
32852ION     NA48746   3.107  14.617  10.602 -0.1691  0.0611  0.0881
32853ION     NA48747   7.692  15.540  13.724  0.1506 -0.1782  0.1862
32854ION     NA48748  13.471   6.698  10.327 -0.2145  0.1381 -0.1013
32855ION     NA48749   1.166   2.186  12.243  0.2013 -0.0472  0.2329
32856ION     NA48750  13.683   7.577  11.808 -0.2389 -0.0271 -0.0809
32857ION     NA48751  16.675   7.215  16.336 -0.1752  0.1834 -0.0250
32858ION     NA48752   5.768   8.195  11.808 -0.0744  0.1008 -0.1820
32859ION     NA48753  13.567  11.783   3.230 -0.1554  0.0917  0.3377
32860ION     NA48754  18.061  16.890   5.865 -0.3232 -0.4565  0.3218
32861ION     NA48755  10.133  12.579  10.631  0.0881  0.2541 -0.2319
32862ION     NA48756   9.843  11.802  10.344 -0.1322 -0.0011  0.0003
32863ION     NA48757   7.988  10.058   1.196  0.0128  0.0598  0.2660
32864ION     NA48758   9.183   4.478  15.146  0.0766 -0.3847  0.2165
32865ION     NA48759  14.578  13.141   5.493  0.0064 -0.2134  0.3030
32866ION     NA48760   0.119   2.785  10.686  0.1269 -0.0979 -0.0469
32867ION     NA48761  12.083   2.004   6.184  0.3361 -0.0842  0.1702
32868ION     NA48762  15.803  11.492   6.474 -0.4572 -0.1352  0.2044
32869ION     NA48763  14.553   8.130  10.639  0.1739  0.1501  0.2119
32870ION     NA48764   8.488   8.167  10.212 -0.0548  0.0980 -0.3127
32871ION     NA48765  14.106   6.007  10.386 -0.2635  0.3295  0.0737
32872ION     NA48766  14.000  15.855  13.777 -0.2457 -0.1058  0.1284
32873ION     NA48767   1.901   4.058   1.812 -0.1804 -0.2524 -0.0155
32874ION     NA48768  11.494   4.639   3.390  0.0400  0.0812  0.2917
32875ION     NA48769   3.905  16.079  11.497  0.3693 -0.0323 -0.0229
32876ION     NA48770   7.954  13.176  10.632 -0.1019 -0.0525  0.1620
32877ION     NA48771   3.818   5.448   2.854 -0.0996  0.2679 -0.2556
32878ION     NA48772  11.318  18.044  10.569  0.1984 -0.2758 -0.3934
32879ION     NA48773  14.591   2.086  14.401 -0.0411 -0.3629 -0.1321
32880ION     NA48774   7.278   7.130  10.071 -0.0067  0.0373  0.0327
32881ION     NA48775   6.009   1.779  10.453  0.1127  0.0007 -0.4481
32882ION     NA48776  14.695  16.457  10.634 -0.1010  0.0276 -0.0473
32883ION     NA48777   8.015  15.887  10.610  0.2375 -0.1041 -0.1027
32884ION     NA48778   2.224   0.594  10.525 -0.2315  0.2800 -0.2984
32885ION     NA48779  15.579   7.417   1.785 -0.2983  0.0971 -0.0919
32886ION     NA48780  16.534  10.513  11.216  0.2115 -0.1945  0.0841
32887ION     NA48781  12.597  15.338  10.810 -0.1087 -0.2693  0.0417
32888ION     NA48782   2.020   7.914  10.660 -0.5304 -0.0257  0.2397
32889ION     NA48783   4.478  15.818   6.158  0.3730 -0.2821  0.0103
32890ION     NA48784  17.577  11.898  11.123  0.2803 -0.1425 -0.0201
32891ION     NA48785  12.337  10.291   2.157 -0.5143 -0.1433  0.0726
32892ION     NA48786   1.342  14.339  10.925 -0.0128 -0.0933  0.0709
32893ION     NA48787   1.873  16.985  13.123 -0.0278 -0.1005 -0.0191
32894ION     NA48788   9.134  14.593  10.509  0.0242  0.1919  0.1107
32895ION     NA48789  16.535  14.546   6.204 -0.0735  0.1485  0.0246
32896ION     NA48790  14.528  15.702  10.717  0.3359 -0.1813  0.1356
32897ION     NA48791  13.746  12.895  11.022 -0.2386 -0.1900  0.1010
32898ION     NA48792   1.495  17.621  10.715 -0.1696  0.0648  0.0594
32899ION     NA48793   1.694  13.052  13.420 -0.3616  0.0043  0.0935
32900ION     NA48794  12.829   0.996   5.959  0.0649 -0.0484 -0.1843
32901ION     NA48795  11.105  17.371  12.684 -0.2444  0.0031 -0.1323
32902ION     NA48796   1.263  15.346  10.744  0.1004  0.2970 -0.0116
32903ION     NA48797  14.753  12.625  10.815  0.0934  0.3127  0.0865
32904ION     NA48798   0.100  15.909  13.745  0.1208 -0.1438 -0.0197
32905ION     NA48799  15.564   6.743   5.918 -0.1294  0.1082  0.1801
32906ION     NA48800   9.633   9.329   2.796  0.0172 -0.1259  0.1448
32907ION     NA48801   1.167   7.997   6.541 -0.2929 -0.0850  0.3454
32908ION     NA48802   2.183   9.169   6.049  0.1874 -0.0460 -0.2298
32909ION     NA48803  17.505  17.049  10.537  0.0513  0.0719  0.0278
32910ION     NA48804  12.477   1.352   5.736 -0.0547 -0.0026 -0.2109
32911ION     NA48805   6.532  10.637  10.947 -0.2705  0.0848  0.1696
32912ION     NA48806  14.848  12.346   5.678 -0.0840 -0.2443 -0.0754
32913ION     NA48807  11.347   9.105   9.925 -0.2128 -0.1197 -0.0797
32914ION     NA48808  10.507   4.329   0.476 -0.3388 -0.1345  0.1297
32915ION     NA48809   6.455  17.027  10.280 -0.1894 -0.1242  0.1829
32916ION     NA48810   5.524  17.936  10.093 -0.1350 -0.0525  0.0941
32917ION     NA48811  16.792   1.974  10.584  0.1291  0.1421  0.3675
32918ION     NA48812  17.802  15.313  10.549 -0.0710  0.0542 -0.2948
32919ION     NA48813   3.152   0.464  10.284 -0.0938 -0.0174  0.4542
32920ION     NA48814  16.863   0.191   0.398 -0.1272  0.0973  0.0540
32921ION     NA48815  14.442  11.453  10.981  0.2062 -0.2552 -0.2805
32922ION     NA48816  17.793   6.913  10.806  0.0363  0.1275 -0.1272
32923ION     NA48817  12.513  15.523   5.583  0.0213 -0.2185  0.0470
32924ION     NA48818   4.713   5.776   0.379  0.0631 -0.0795  0.3397
32925ION     NA48819   6.381  16.276   0.972  0.3203  0.0248  0.0749
32926ION     NA48820   0.525  10.855  11.133 -0.1072 -0.0294  0.2440
32927ION     NA48821  15.760   1.443  10.297  0.1807  0.1944 -0.3061
32928ION     NA48822   6.933   1.798  12.821 -0.0144  0.3113 -0.0235
32929ION     NA48823  11.017  17.267  10.589 -0.1675 -0.2724  0.1464
32930ION     NA48824  14.997   3.139   5.288 -0.1340 -0.3090 -0.1342
32931ION     NA48825  15.457   4.011  10.211 -0.1116  0.1077 -0.1694
32932ION     NA48826  10.739   8.087  10.493 -0.2081  0.0576 -0.0586
32933ION     NA48827  12.800   3.107  10.371  0.2160 -0.0356  0.2777
32934ION     NA48828   0.246  12.364  11.070  0.0129 -0.1240  0.0583
32935ION     NA48829  16.998  13.525  10.731  0.3019 -0.2328 -0.0474
32936ION     NA48830   5.248  11.160   5.818  0.0970 -0.4636 -0.0549
32937ION     NA48831   3.229   2.205  10.332  0.1083 -0.0746 -0.2517
32938ION     NA48832   0.100  11.339   6.386 -0.2853  0.0688 -0.0913
32939ION     NA48833  12.724   0.962  10.533  0.0751 -0.0948 -0.0143
32940ION     NA48834   9.536   0.481  10.529 -0.1468 -0.0157 -0.2005
32941ION     NA48835  17.735   8.728   3.938  0.1496  0.3558 -0.0149
32942ION     NA48836  12.380  12.647  10.525 -0.1535 -0.0031 -0.1219
32943ION     NA48837   6.751   7.749  14.801  0.0330  0.1630 -0.1025
32944ION     NA48838   9.730  13.668  11.256 -0.0980  0.2416  0.2239
32945ION     NA48839   4.811  12.165  12.193  0.1664 -0.0564 -0.1472
32946ION     NA48840  16.768   8.321  11.186  0.2701 -0.3026  0.0004
32947ION     NA48841   2.932  15.042   6.145 -0.3180  0.1489  0.1248
32948ION     NA48842   0.607  17.140  10.586  0.1725 -0.0926  0.0787
32949ION     NA48843  16.985   4.632  10.649 -0.0476 -0.2119 -0.2179
32950ION     NA48844   2.198   9.455  10.797 -0.0647 -0.0816 -0.0689
32951ION     NA48845  11.099   6.286  10.114  0.1944  0.0028  0.4239
32952ION     NA48846   1.036  13.550   5.491  0.1795  0.1780  0.1074
32953ION     NA48847   9.166   4.132   4.336  0.1469 -0.0040  0.2660
32954ION     NA48848  16.066   0.682  10.503 -0.0189 -0.1846 -0.0902
32955ION     NA48849   6.559   6.292  10.345  0.1247  0.1321 -0.0941
32956ION     NA48850  10.254  16.243   6.105  0.1434 -0.0284 -0.1837
32957ION     NA48851   3.866  17.690  10.676 -0.2564  0.0014 -0.2161
32958ION     NA48852   8.638   7.017  10.241  0.4279  0.0210  0.3191
32959ION     NA48853   2.420   6.998   1.198 -0.0240 -0.2595  0.2257
32960ION     NA48854   5.887   0.825   5.853  0.0308 -0.2419 -0.0727
32961ION     NA48855  16.530   0.213  11.609  0.3930  0.1032  0.0365
32962ION     NA48856   2.897   7.224  10.611  0.1676  0.2731 -0.1919
32963ION     NA48857   2.724   9.392   2.397 -0.2615 -0.0860 -0.1777
32964ION     NA48858  14.968   1.624  10.446  0.0807  0.0882  0.3531
32965ION     NA48859   3.450  15.453  10.670  0.1105  0.2758 -0.0673
32966ION     NA48860  17.497  14.646  10.871 -0.0489 -0.0091  0.3640
32967ION     NA48861   5.049   5.095   9.681 -0.1988  0.0737 -0.1924
32968ION     NA48862  11.932   2.603  10.515 -0.3313  0.3361 -0.3456
32969ION     NA48863  16.013   7.398  10.698 -0.1125  0.0774 -0.2447
32970ION     NA48864   4.810   1.764  10.163  0.3943  0.5891 -0.0738
32971ION     NA48865   7.569  14.832   2.897 -0.0739  0.2529  0.4125
32972ION     NA48866   5.227  14.490  15.792  0.0519  0.3780  0.3126
32973ION     NA48867   0.237  13.411  10.986  0.1899  0.3994 -0.1434
32974ION     NA48868  10.776   2.280   5.098 -0.0067  0.2369  0.1022
32975ION     NA48869  14.663  16.387   5.694 -0.0752 -0.2250  0.2963
32976ION     NA48870  11.406   5.646  10.040  0.0470 -0.4061 -0.4179
32977ION     NA48871  15.869   8.759  11.098  0.1860  0.1473  0.1678
32978ION     NA48872  13.341   2.127   5.696 -0.0902  0.1074  0.3356
32979ION     NA48873   9.658  15.475  10.733  0.2451  0.1962 -0.0260
32980ION     NA48874   2.387   7.035   6.166  0.0685 -0.2993 -0.1503
32981ION     NA48875   8.759  15.754  10.712 -0.0900  0.0347 -0.1782
32982ION     NA48876   4.144   4.590  10.009  0.1705 -0.2068  0.1421
32983ION     NA48877  12.067   7.079   9.872  0.0246 -0.0825 -0.1376
32984ION     NA48878   4.213  12.423  16.151  0.1111 -0.1053  0.1106
32985ION     NA48879   0.779   3.737   5.784  0.0643 -0.2034 -0.2142
32986ION     NA48880   8.100  14.541  10.358 -0.0349 -0.4029  0.0186
32987ION     NA48881   0.300   9.019   6.325  0.0561  0.3156 -0.0460
32988ION     NA48882   5.542   5.767   9.897 -0.0145  0.1063 -0.1301
32989ION     NA48883  15.535  15.919  10.600  0.1357 -0.2395  0.0582
32990ION     NA48884  17.682   3.308  10.541 -0.1897  0.0139 -0.3831
32991ION     NA48885  15.756  13.786  13.405  0.0236  0.1126 -0.1361
32992ION     NA48886  16.975   0.207  10.687  0.1088  0.0011  0.0865
32993ION     NA48887   2.148  17.552   5.823  0.1490 -0.3336  0.0678
32994ION     NA48888  14.460  16.878   1.354 -0.1498  0.2078 -0.5251
32995ION     NA48889  17.555  11.862   6.231  0.1990  0.0647  0.1919
32996ION     NA48890  14.616   3.999  10.144 -0.1644  0.4235  0.1134
32997ION     NA48891  11.862   1.112  10.480 -0.1203  0.2499 -0.0074
32998ION     NA48892   4.343   1.523  10.105  0.0465 -0.3109 -0.5204
32999ION     NA48893  10.203  10.926  10.137 -0.0394  0.3579 -0.0972
33000ION     NA48894  15.422   9.666  11.190 -0.0509 -0.0312  0.1326
33001ION     NA48895   3.613   3.157  10.268 -0.2779  0.2567  0.0768
33002ION     NA48896  11.739  14.134  13.552  0.4802 -0.0501  0.2514
33003ION     NA48897   5.704   2.842   6.123 -0.0322 -0.1461  0.0438
33004ION     NA48898  17.551   2.309  10.599  0.2381 -0.2925  0.1038
33005ION     NA48899  13.795  10.889   2.466  0.1164  0.0282 -0.0926
33006ION     NA48900  17.575  12.846  10.906  0.0054 -0.1811 -0.1512
33007ION     NA48901  13.782   6.098   5.779 -0.0524  0.1414 -0.1424
33008ION     NA48902  16.301   6.497  10.507  0.2917  0.0708 -0.1709
33009ION     NA48903   9.945   5.690  11.136  0.5270  0.3338 -0.0206
33010ION     NA48904   1.642   6.021   2.088  0.2541  0.0102 -0.2027
33011ION     NA48905  10.917  12.730  10.340  0.3675  0.1961 -0.0870
33012ION     NA48906  17.955   5.067  11.630 -0.1527  0.2683  0.3958
33013ION     NA48907  14.839   3.146  10.691  0.1430  0.0467 -0.0330
33014ION     NA48908   7.289   0.145   5.717  0.1671 -0.0279 -0.1269
33015ION     NA48909   6.903   5.447  10.036  0.3549 -0.0784 -0.0249
33016ION     NA48910  13.082  12.548  10.567  0.1375  0.0371  0.2713
33017ION     NA48911   7.400  17.164  10.512 -0.0289  0.0473  0.1814
33018ION     NA48912   8.885   6.624  10.167 -0.0646  0.3208 -0.2021
33019ION     NA48913   0.231   6.717  10.949 -0.0666 -0.2075 -0.0331
33020ION     NA48914   7.397  13.219  10.529 -0.1101 -0.0953  0.2165
33021ION     NA48915   4.317   1.656   0.588 -0.0390 -0.1774  0.6385
33022ION     NA48916   9.533  16.478  10.754  0.0208 -0.3013 -0.0919
33023ION     NA48917  15.803   5.636  10.463  0.1314 -0.4983 -0.2019
33024ION     NA48918  15.143   2.308  10.331  0.0493 -0.1125  0.3065
33025ION     NA48919   9.342  18.238  10.478  0.1573  0.1430 -0.0713
33026ION     NA48920   9.408   3.329  10.299  0.0958  0.3051  0.0631
33027ION     NA48921   2.434  11.605   6.013  0.0684  0.3743  0.0194
33028ION     NA48922   8.481  17.004   4.811 -0.3718  0.0131  0.3917
33029ION     NA48923  13.393  16.386  10.696  0.1236  0.2599  0.0604
33030ION     NA48924   8.679  16.883   2.892  0.2191 -0.0890  0.0244
33031ION     NA48925  12.726  11.811  10.856 -0.0487 -0.2688  0.2587
33032ION     NA48926   3.284   9.088   1.916 -0.2272 -0.1859 -0.1129
33033ION     NA48927   8.335  16.763  10.703  0.0442 -0.1799  0.0150
33034ION     NA48928  14.621   4.348   5.184  0.3088  0.2488 -0.1313
33035ION     NA48929  15.777  12.631  10.872  0.1413 -0.0941  0.0960
33036ION     NA48930   2.126  11.356  10.822  0.0707  0.3576  0.1550
33037ION     NA48931  15.052   3.142   3.355 -0.1078  0.0436 -0.1021
33038ION     NA48932   1.012  13.524  10.630 -0.4459  0.1310 -0.3399
33039ION     NA48933   4.102   8.947  10.699  0.1146 -0.1523  0.1550
33040ION     NA48934  11.916   5.952   3.528 -0.2617  0.2645 -0.1551
33041ION     NA48935  14.634   0.194  16.226 -0.1854 -0.0553  0.1267
33042ION     NA48936   1.651  11.635   5.384  0.1521  0.0650 -0.1488
33043ION     NA48937   5.875  10.893   3.367  0.1017  0.0518 -0.0036
33044ION     NA48938  17.497   8.920   6.527  0.1956  0.0589 -0.2862
33045ION     NA48939  12.863   4.022  10.298  0.1732 -0.1872  0.1493
33046ION     NA48940   9.361   3.300   5.870  0.0175 -0.0724 -0.0897
33047ION     NA48941  14.943  14.061  11.158 -0.1011 -0.0478  0.2378
33048ION     NA48942   9.549   2.757   1.689  0.0937 -0.0413  0.2278
33049ION     NA48943   2.128   6.359   3.404  0.1532 -0.1328 -0.0437
33050ION     NA48944  16.869  10.938  11.212  0.0456 -0.0989 -0.0109
33051ION     NA48945  13.235  17.838   5.731  0.0583  0.0789  0.1405
33052ION     NA48946  14.400   2.468  11.049  0.4891  0.1968  0.1744
33053ION     NA48947  14.102  17.067  15.094 -0.1525 -0.0627  0.0392
33054ION     NA48948   1.836  15.851  10.990 -0.1773  0.0267 -0.0098
33055ION     NA48949  13.117   9.237  15.983  0.0789  0.2542 -0.2532
33056ION     NA48950  16.319  17.523   3.814 -0.0670  0.0431 -0.1282
33057ION     NA48951   7.968   8.193  10.816  0.0055 -0.1357  0.1627
33058ION     NA48952  14.908   5.193   4.029 -0.0021  0.1348 -0.2722
33059ION     NA48953   8.684  11.368   5.810 -0.2926  0.0804  0.1010
33060ION     NA48954  11.880   0.253  15.028  0.0876 -0.1414  0.1271
33061ION     NA48955   5.211  11.447  10.682 -0.0672  0.0462  0.1051
33062ION     NA48956  10.699  13.068  15.968 -0.0506 -0.0544  0.1621
33063ION     NA48957   8.172  13.037   5.896  0.1066 -0.2855  0.3393
33064ION     NA48958  17.690   7.826  11.226 -0.0311  0.2189 -0.0127
33065ION     NA48959   0.344   7.897  10.912 -0.2444  0.0698 -0.1506
33066ION     NA48960   5.098  16.675  14.290  0.1234  0.0327  0.2565
33067ION     NA48961   4.111   2.457  10.214  0.1156  0.1352 -0.1107
33068ION     NA48962   9.606   6.545   5.908 -0.3174  0.0363  0.1919
33069ION     NA48963   8.887  11.589  10.599 -0.0017  0.1459  0.3020
33070ION     NA48964  14.735  15.340  14.402 -0.0031  0.0990  0.0570
33071ION     NA48965  14.934   5.679  10.309 -0.1349  0.2122  0.0874
33072ION     NA48966   5.289  14.757  10.533 -0.2125 -0.1570  0.1456
33073ION     NA48967   0.069  15.538   6.136  0.0438 -0.3403 -0.0078
33074ION     NA48968   4.416   8.017  10.371 -0.0732 -0.0096  0.3198
33075ION     NA48969   4.662  14.156  10.652  0.1608  0.2686 -0.0212
33076ION     NA48970  16.658  14.376  10.517 -0.1024 -0.1069  0.1609
33077ION     NA48971   4.494   3.578  15.851  0.2227 -0.0651  0.2136
33078ION     NA48972   8.677   3.561   5.102  0.1747  0.0204  0.1988
33079ION     NA48973   6.990   4.485  10.291  0.1310  0.0789  0.1335
33080ION     NA48974   7.201   8.477  10.188  0.1774 -0.2347 -0.0136
33081ION     NA48975   4.158  13.031   5.709  0.0479 -0.2045  0.1514
33082ION     NA48976   6.332   2.445   5.787 -0.1900  0.3329 -0.0570
33083ION     NA48977   2.839   9.313  13.139 -0.1235  0.0314 -0.1380
33084ION     NA48978  11.886  11.597   5.555 -0.0012  0.0472  0.1843
33085ION     NA48979   1.275   9.875   4.823  0.1396 -0.0367  0.0329
33086ION     NA48980   0.641   8.998  11.079 -0.1387  0.1649 -0.2426
33087ION     NA48981  10.347  16.818  10.607 -0.0057  0.0613 -0.2614
33088ION     NA48982   2.834   2.226  15.020  0.1212 -0.4211  0.0125
33089ION     NA48983  10.744   6.490   2.722 -0.2388 -0.1575  0.1499
33090ION     NA48984  10.017   9.767  10.316  0.0195 -0.2708  0.1285
33091ION     NA48985   4.701   0.066  10.935 -0.0367  0.0078 -0.2738
33092ION     NA48986  10.466   5.802   9.960  0.0414  0.0239  0.1416
33093ION     NA48987  10.708   9.871  10.015 -0.0729  0.0176 -0.0758
33094ION     NA48988   2.963  17.908  10.675  0.0247 -0.0084 -0.2838
33095ION     NA48989  10.474   6.690   5.869 -0.2644  0.2470 -0.1179
33096ION     NA48990  16.814   4.831   5.926  0.2566 -0.0090 -0.0504
33097ION     NA48991  11.583  12.105  10.397  0.0060  0.0633  0.1579
33098ION     NA48992  15.362  10.516   2.703  0.3162 -0.0594 -0.0909
33099ION     NA48993  13.483  13.861  10.732 -0.2366  0.1983  0.3070
33100ION     NA48994   3.561   4.593  10.856  0.0806  0.1272 -0.0470
33101ION     NA48995  11.031  15.876   6.280  0.0248 -0.2445 -0.2973
33102ION     NA48996  14.845   9.877  11.195  0.2613  0.1057 -0.3290
33103ION     NA48997   2.626  11.760   2.400  0.2326  0.2256 -0.0337
33104ION     NA48998  16.025  10.673  11.254  0.2322  0.2293  0.3360
33105ION     NA48999   4.000   5.552  10.637  0.3133 -0.1699 -0.2213
33106ION     NA49000   2.996   1.629  10.384  0.2425 -0.1440 -0.0223
33107ION     NA49001  14.496   0.453   5.970 -0.2234  0.0095  0.3376
33108ION     NA49002  12.647  14.507  13.611 -0.0909  0.1127 -0.2106
33109ION     NA49003   4.929   2.507   5.935 -0.0534 -0.0407 -0.0143
33110ION     NA49004  17.162   6.463  11.028  0.1333  0.2757 -0.2655
33111ION     NA49005  10.398  14.414   1.869  0.0684  0.0292  0.2749
33112ION     NA49006   9.844   0.548   0.537  0.0044  0.4336  0.0120
33113ION     NA49007  12.572  10.560  10.403  0.2585 -0.0642 -0.1932
33114ION     NA49008   2.721  15.151  14.518 -0.0772  0.3547 -0.0171
33115ION     NA49009   4.071   3.127   3.155  0.2746 -0.1112  0.3401
33116ION     NA49010   7.010   6.515  10.253 -0.0498 -0.0742  0.1704
33117ION     NA49011  14.952   0.764  10.487 -0.1065 -0.0988 -0.0059
33118ION     NA49012   2.171   4.013   4.227 -0.2837 -0.2563  0.1686
33119ION     NA49013  17.679   8.405  11.247 -0.2823  0.1098 -0.2386
33120ION     NA49014   4.711   7.044  10.182 -0.2035  0.2445 -0.0841
33121ION     NA49015  11.345  13.929  10.788 -0.0348 -0.0819 -0.2322
33122ION     NA49016  14.240   2.013  11.497 -0.0372 -0.3008 -0.2037
33123ION     NA49017   0.426   2.699   0.076 -0.2025 -0.1960 -0.2094
33124ION     NA49018  11.058   1.489  10.377 -0.0437 -0.0586  0.2078
33125ION     NA49019   2.931  16.947  10.637 -0.3930 -0.1150 -0.1421
33126ION     NA49020  17.351   9.077  16.033 -0.2078  0.1037  0.1761
33127ION     NA49021   2.003  14.940  10.819 -0.1936 -0.1114  0.0393
33128ION     NA49022   0.118   1.789  10.510 -0.0972 -0.2581 -0.1043
33129ION     NA49023  11.741  16.720   5.950 -0.1753  0.2579  0.1203
33130ION     NA49024   7.346   4.275   1.554 -0.0227 -0.1641 -0.3680
33131ION     NA49025   5.029   4.019   9.971  0.0676  0.1297  0.2820
33132ION     NA49026   7.775  15.895  14.724 -0.0250  0.1321  0.1829
33133ION     NA49027   0.410  15.454  10.850 -0.0226 -0.0787  0.0678
33134ION     NA49028   4.217  10.584  10.609  0.3781  0.2823 -0.1447
33135ION     NA49029  10.191  12.930   5.866  0.3035 -0.1038 -0.1888
33136ION     NA49030   3.562   0.810  10.281  0.0040 -0.0369 -0.4170
33137ION     NA49031  10.596   7.167  10.116 -0.3598 -0.1475  0.0808
33138ION     NA49032   5.304  12.009  10.540 -0.2289  0.1104  0.1245
33139ION     NA49033  16.545  13.387  14.315  0.0465  0.1266  0.0514
33140ION     NA49034   2.998   7.165   0.197 -0.0237 -0.0542 -0.1496
33141ION     NA49035   9.069   6.002  12.136 -0.1483 -0.3092  0.1348
33142ION     NA49036   9.493  12.563   6.181  0.1338  0.0739  0.0506
33143ION     NA49037   0.242   5.426  10.483 -0.1909  0.2205  0.0774
33144ION     NA49038   1.126   0.922  10.591  0.2654  0.0514  0.2912
33145ION     NA49039  12.013   3.569  10.234  0.2364  0.3598  0.0076
33146ION     NA49040  14.454  13.389  10.814 -0.0007  0.2810 -0.0959
33147ION     NA49041   0.869  12.709  10.972  0.0892 -0.0861  0.1310
33148ION     NA49042   6.408   9.380   5.941 -0.6867 -0.2039 -0.2428
33149ION     NA49043   2.622   7.084  11.469 -0.1992  0.1690  0.2520
33150ION     NA49044   7.079   2.077  11.422 -0.1815 -0.2386 -0.5810
33151ION     NA49045   6.794   7.815   5.546  0.1209 -0.2620 -0.1893
33152ION     NA49046  15.807   3.949  11.616 -0.0012 -0.0018  0.2020
33153ION     NA49047  18.103  14.906  12.197 -0.1070 -0.4708 -0.0562
33154ION     NA49048   2.642  12.040  10.772  0.1981 -0.1813 -0.0889
33155ION     NA49049  11.348   8.882   3.113 -0.0910 -0.3067 -0.0060
33156ION     NA49050  17.754   5.690  14.436 -0.0946 -0.1195 -0.1864
33157ION     NA49051   6.704  16.439  10.631 -0.1068  0.1133  0.2800
33158ION     NA49052   6.759  11.396  10.616  0.0953  0.1218 -0.0861
33159ION     NA49053   3.341  13.118  10.764  0.0737  0.0712  0.0260
33160ION     NA49054   1.094   4.297  10.536  0.0266  0.1509  0.1454
33161ION     NA49055   1.365  14.703   2.101 -0.0114 -0.0545  0.3103
33162ION     NA49056  11.688  17.124  10.730  0.0530  0.0555 -0.1801
33163ION     NA49057   2.907   9.568  10.690 -0.0822 -0.3790  0.0007
33164ION     NA49058   9.452  14.227  10.670 -0.2047  0.1173  0.0235
33165ION     NA49059  14.075   0.962  10.515 -0.0037  0.2076  0.2436
33166ION     NA49060   9.285   5.858   2.866  0.1797 -0.1761  0.0090
33167ION     NA49061   2.753   0.389  15.528 -0.1571 -0.0003 -0.2495
33168ION     NA49062  13.295   9.411  10.677  0.0410  0.1407  0.0490
33169ION     NA49063  12.366   5.607  10.997  0.1843  0.1764 -0.0446
33170ION     NA49064  17.650  13.544   2.251  0.1261  0.1161  0.2436
33171ION     NA49065   4.388  10.717   5.846  0.0374 -0.2661 -0.2481
33172ION     NA49066   4.875   4.666  16.421  0.2672 -0.2634 -0.0396
33173ION     NA49067  12.821  10.077   5.968  0.1221 -0.2377  0.0597
33174ION     NA49068   0.536   0.332   1.792  0.1156  0.2716 -0.0190
33175ION     NA49069  11.058  14.856  14.658 -0.0244 -0.0590 -0.2980
  18.23820  18.23820  16.46277
