INSANE! Membrane UpperLeaflet>loPI:POPI:DPPI:PYPI:ERGO=180.0:5.0:3.0:2.0:10.0 LowerLeaflet>PSPI:POPI:POPS:YOPS:POPE:YOPE:POPC:YOPC:ERGO=6.0:14.0:21.0:9.0:9.0:21.0:12.0:48.0:60.0
49069
    1loPI    C1    1   8.178  10.145  10.172 -0.0200 -0.0628 -0.0400
    1loPI    C2    2   7.788  10.150  10.260 -0.0659  0.4421 -0.2361
    1loPI    C3    3   8.059  10.155  10.554 -0.1903 -0.4156 -0.0803
    1loPI   PO4    4   8.242  10.194   9.924 -0.1528 -0.3529 -0.0106
    1loPI   GL1    5   8.694  10.140   9.758  0.0775 -0.0411  0.6561
    1loPI   GL2    6   8.798   9.873   9.562  0.1447  0.1051  0.2128
    1loPI   C1A    7   8.437  10.067   9.267  0.1924  0.1650  0.0068
    1loPI   C2A    8   8.388   9.974   8.861  0.1592  0.1823  0.1216
    1loPI   C3A    9   8.629   9.893   8.568 -0.1246  0.0103 -0.0618
    1loPI   C4A   10   8.732   9.784   8.116  0.1405  0.0376 -0.1419
    1loPI   C5A   11   8.862   9.863   7.748  0.5138 -0.2069  0.1477
    1loPI   C6A   12   8.808  10.247   7.377  0.1829  0.1069 -0.0514
    1loPI   C1B   13   9.043   9.851   9.236  0.1666 -0.1437  0.0591
    1loPI   C2B   14   9.119   9.742   8.875  0.2591 -0.0666  0.2243
    1loPI   C3B   15   9.073   9.588   8.450  0.0825 -0.0616 -0.0375
    1loPI   C4B   16   9.168   9.609   7.975  0.2344 -0.2080 -0.1945
    2loPI    C1   17  11.367  10.808   9.977  0.0683 -0.0982 -0.0367
    2loPI    C2   18  11.606  10.816  10.298  0.0328  0.0112 -0.0127
    2loPI    C3   19  11.345  11.112  10.235 -0.2918 -0.2431  0.1093
    2loPI   PO4   20  11.265  10.672   9.982  0.3442 -0.3725  0.0025
    2loPI   GL1   21  11.026  10.443   9.709 -0.1701  0.0576 -0.0559
    2loPI   GL2   22  10.945  10.638   9.524 -0.1569 -0.2446  0.0442
    2loPI   C1A   23  11.099  10.248   9.300  0.1858 -0.0336  0.3069
    2loPI   C2A   24  11.187  10.017   8.879 -0.0426 -0.1372 -0.1008
    2loPI   C3A   25  11.086   9.801   8.565 -0.0517 -0.0920 -0.0008
    2loPI   C4A   26  10.997  10.045   8.253 -0.1800 -0.0412  0.0872
    2loPI   C5A   27  10.860  10.354   7.935 -0.1351  0.0322 -0.0236
    2loPI   C6A   28  10.641  10.512   7.740  0.1220 -0.0895  0.3092
    2loPI   C1B   29  10.803  10.572   9.118 -0.2169 -0.2006  0.1903
    2loPI   C2B   30  10.842  10.352   8.695 -0.3510  0.0794 -0.2109
    2loPI   C3B   31  11.043  10.575   8.375  0.0822 -0.2525 -0.0333
    2loPI   C4B   32  11.425  10.833   8.292 -0.1409  0.2153 -0.0767
    3loPI    C1   33  16.784   0.593  11.126  0.1250 -0.0567  0.0085
    3loPI    C2   34  16.538   0.575  11.441  0.0133 -0.1986 -0.0853
    3loPI    C3   35  16.814   0.864  11.419 -0.1078 -0.0714  0.0477
    3loPI   PO4   36  16.649   0.435  10.923  0.1219 -0.0998 -0.0473
    3loPI   GL1   37  16.497   0.427  10.401  0.3574 -0.2210 -0.4361
    3loPI   GL2   38  16.404   0.656  10.242  0.1402  0.1232  0.0368
    3loPI   C1A   39  16.883   0.663  10.078 -0.3006 -0.0263 -0.3162
    3loPI   C2A   40  16.956   0.635   9.682  0.1253 -0.0544 -0.2157
    3loPI   C3A   41  17.019   0.715   9.274  0.1784 -0.1432  0.1129
    3loPI   C4A   42  17.010   0.595   8.809 -0.2292 -0.1779 -0.2337
    3loPI   C5A   43  17.003   0.658   8.394 -0.1320  0.0040 -0.0664
    3loPI   C6A   44  16.792   0.385   8.117  0.0567 -0.2185 -0.1932
    3loPI   C1B   45  16.434   0.600   9.848  0.0500 -0.3022 -0.0198
    3loPI   C2B   46  16.424   0.678   9.455  0.0251  0.0615  0.1561
    3loPI   C3B   47  16.573   0.674   9.126 -0.2347 -0.1674  0.1726
    3loPI   C4B   48  16.557   0.721   8.632  0.0519  0.2064  0.0410
    4loPI    C1   49  12.985   3.210  10.909  0.1183  0.0310 -0.1092
    4loPI    C2   50  13.170   2.906  11.090  0.1894 -0.0023 -0.2366
    4loPI    C3   51  13.198   3.275  11.241  0.0754 -0.0636 -0.0627
    4loPI   PO4   52  12.971   3.128  10.677 -0.0582 -0.0294  0.1143
    4loPI   GL1   53  13.023   2.822  10.362  0.0221  0.0671  0.2440
    4loPI   GL2   54  13.141   2.517  10.090  0.1649  0.2113 -0.3200
    4loPI   C1A   55  12.925   2.914   9.895 -0.1635  0.1614 -0.2636
    4loPI   C2A   56  13.153   3.033   9.440 -0.0990  0.1207 -0.1506
    4loPI   C3A   57  13.143   2.924   8.974 -0.1597 -0.0053  0.1085
    4loPI   C4A   58  13.302   3.076   8.554 -0.1239 -0.4443 -0.3073
    4loPI   C5A   59  13.619   3.304   8.191 -0.0758 -0.0068 -0.0262
    4loPI   C6A   60  13.757   3.292   7.685  0.2595 -0.2535 -0.4652
    4loPI   C1B   61  13.315   2.553   9.633 -0.1942  0.0108  0.0096
    4loPI   C2B   62  13.401   2.606   9.188 -0.1612 -0.0749 -0.2513
    4loPI   C3B   63  13.537   2.590   8.710  0.1535  0.1171 -0.0111
    4loPI   C4B   64  13.663   2.697   8.244  0.1337 -0.0582 -0.1160
    5loPI    C1   65   5.998  15.570  10.418 -0.0684  0.0355 -0.1593
    5loPI    C2   66   5.830  15.326  10.687  0.0127 -0.0354 -0.1720
    5loPI    C3   67   5.829  15.722  10.747  0.0143 -0.0496 -0.0767
    5loPI   PO4   68   5.912  15.368  10.149  0.1031 -0.2816 -0.0136
    5loPI   GL1   69   5.726  15.532   9.753  0.1599  0.0568  0.3073
    5loPI   GL2   70   6.008  15.748   9.792  0.0547 -0.1862  0.1657
    5loPI   C1A   71   5.700  15.711   9.240 -0.1111  0.1513  0.0766
    5loPI   C2A   72   5.711  15.762   8.834  0.1712  0.0292  0.2707
    5loPI   C3A   73   5.651  15.730   8.401 -0.0393  0.2671  0.0232
    5loPI   C4A   74   5.471  15.646   8.023  0.0192 -0.2691  0.0757
    5loPI   C5A   75   5.641  15.415   7.705 -0.3021  0.0798 -0.4166
    5loPI   C6A   76   5.689  15.022   7.771 -0.1500 -0.0694  0.2768
    5loPI   C1B   77   5.831  16.081   9.523 -0.5075 -0.0937 -0.1497
    5loPI   C2B   78   5.830  16.190   9.209 -0.2847 -0.0585 -0.3316
    5loPI   C3B   79   5.914  16.374   8.863 -0.1027 -0.1188 -0.3592
    5loPI   C4B   80   6.033  16.105   8.508  0.0895 -0.0793 -0.1431
    6loPI    C1   81   0.696  17.386  10.347  0.0119 -0.1392  0.0689
    6loPI    C2   82   0.930  17.698  10.433 -0.1266 -0.0422  0.0972
    6loPI    C3   83   0.669  17.564  10.704 -0.0371 -0.2106  0.1012
    6loPI   PO4   84   0.881  17.220  10.273 -0.1936  0.1075 -0.0458
    6loPI   GL1   85   0.886  16.867  10.077 -0.1164  0.1310 -0.0058
    6loPI   GL2   86   1.205  16.694   9.940 -0.2708 -0.1532  0.5226
    6loPI   C1A   87   0.768  16.782   9.644  0.2311  0.2155 -0.2687
    6loPI   C2A   88   0.800  16.725   9.305  0.1734 -0.1671 -0.1275
    6loPI   C3A   89   0.845  16.590   8.819 -0.1143 -0.0608 -0.1546
    6loPI   C4A   90   0.817  16.586   8.483 -0.1157 -0.1932  0.1662
    6loPI   C5A   91   0.801  16.647   8.012  0.0798  0.0559  0.0798
    6loPI   C6A   92   0.890  16.612   7.458  0.0862 -0.1690  0.3234
    6loPI   C1B   93   1.496  16.629   9.683 -0.0295 -0.3865  0.1393
    6loPI   C2B   94   1.631  16.605   9.304 -0.1011  0.1786  0.2847
    6loPI   C3B   95   1.465  16.600   8.867 -0.2843  0.1392  0.2639
    6loPI   C4B   96   1.337  16.644   8.546 -0.1701 -0.1714 -0.0044
    7loPI    C1   97   5.354   1.308  10.589 -0.0170 -0.0828 -0.0810
    7loPI    C2   98   5.242   1.447  10.947 -0.3394 -0.0274 -0.2003
    7loPI    C3   99   5.247   1.053  10.878  0.1994 -0.0673  0.0154
    7loPI   PO4  100   5.172   1.434  10.352  0.1381 -0.0739  0.1341
    7loPI   GL1  101   5.298   1.342   9.970 -0.0856  0.0911  0.3578
    7loPI   GL2  102   5.090   1.659   9.936 -0.1306 -0.2871  0.2671
    7loPI   C1A  103   5.178   1.260   9.597 -0.1124  0.1693 -0.0765
    7loPI   C2A  104   5.055   1.151   9.165  0.1806 -0.2834  0.2537
    7loPI   C3A  105   5.061   1.098   8.710 -0.0219  0.2702 -0.0125
    7loPI   C4A  106   4.876   1.191   8.230 -0.2293  0.0652 -0.2839
    7loPI   C5A  107   4.729   0.944   7.869  0.0109  0.2842  0.0987
    7loPI   C6A  108   4.350   0.959   7.498 -0.0978  0.0841 -0.0604
    7loPI   C1B  109   4.854   1.702   9.608  0.0211  0.2361 -0.0063
    7loPI   C2B  110   4.892   1.577   9.260 -0.2474 -0.0915  0.1446
    7loPI   C3B  111   4.649   1.510   9.029 -0.1567 -0.3153 -0.0841
    7loPI   C4B  112   4.617   1.280   8.754 -0.1849 -0.1988 -0.0329
    8loPI    C1  113   1.983   6.563  10.550 -0.0849 -0.0739 -0.3507
    8loPI    C2  114   2.020   6.236  10.778  0.0087  0.1530 -0.0330
    8loPI    C3  115   2.293   6.527  10.800 -0.0135  0.2061 -0.3961
    8loPI   PO4  116   1.716   6.616  10.578  0.0033 -0.0450 -0.0885
    8loPI   GL1  117   1.357   6.617  10.232 -0.0204  0.1423 -0.3315
    8loPI   GL2  118   1.526   6.336  10.038 -0.2837  0.0017 -0.0100
    8loPI   C1A  119   1.230   6.532   9.715 -0.0391 -0.0829 -0.0153
    8loPI   C2A  120   1.289   6.389   9.345 -0.1202  0.2911  0.2792
    8loPI   C3A  121   1.193   6.282   8.872  0.0545  0.0145 -0.0192
    8loPI   C4A  122   1.181   6.387   8.481 -0.2183  0.2224  0.0034
    8loPI   C5A  123   1.322   6.538   8.056  0.1439  0.2380 -0.1044
    8loPI   C6A  124   1.454   6.392   7.641  0.3538  0.1026 -0.0250
    8loPI   C1B  125   1.520   6.082   9.735 -0.3528  0.2619  0.1965
    8loPI   C2B  126   1.520   5.974   9.321  0.1434  0.1206  0.0002
    8loPI   C3B  127   1.475   5.873   8.932 -0.1844 -0.0290  0.0318
    8loPI   C4B  128   1.440   5.525   8.608  0.3251  0.1302 -0.1268
    9loPI    C1  129   1.335   2.528  10.790  0.0434 -0.0481 -0.0785
    9loPI    C2  130   1.208   2.711  11.122  0.4536  0.0201  0.0470
    9loPI    C3  131   1.449   2.903  10.868  0.2165 -0.0640 -0.2480
    9loPI   PO4  132   1.102   2.411  10.647  0.2927  0.1609 -0.0142
    9loPI   GL1  133   1.088   2.500  10.241 -0.0849  0.0630 -0.0077
    9loPI   GL2  134   1.210   2.405  10.191  0.1346  0.2728 -0.0264
    9loPI   C1A  135   1.276   2.823   9.891 -0.0662  0.1430  0.1219
    9loPI   C2A  136   1.094   2.799   9.419 -0.2004  0.4096  0.0266
    9loPI   C3A  137   1.044   2.835   9.064 -0.0798 -0.0769  0.2169
    9loPI   C4A  138   0.891   2.798   8.682 -0.0493  0.0578  0.2218
    9loPI   C5A  139   0.943   2.767   8.246  0.1172 -0.1025  0.2156
    9loPI   C6A  140   1.034   3.037   7.990  0.0260  0.0059  0.1344
    9loPI   C1B  141   0.989   2.455   9.767  0.1559 -0.0849 -0.2429
    9loPI   C2B  142   0.893   2.357   9.379  0.0545  0.2108  0.2948
    9loPI   C3B  143   0.801   2.391   8.946  0.2877  0.0271 -0.2682
    9loPI   C4B  144   0.685   2.398   8.565  0.1140  0.4416  0.1499
   10loPI    C1  145   6.029  16.764  10.819 -0.0874 -0.1076  0.3161
   10loPI    C2  146   5.840  16.454  10.650 -0.1150  0.0010  0.1448
   10loPI    C3  147   5.742  16.571  11.020 -0.2639 -0.0502  0.1220
   10loPI   PO4  148   6.104  16.965  10.568  0.0178  0.0500 -0.1277
   10loPI   GL1  149   6.147  16.990  10.106 -0.1871  0.0351 -0.3852
   10loPI   GL2  150   6.065  17.231   9.873 -0.3235 -0.2157  0.0783
   10loPI   C1A  151   6.449  16.989   9.710 -0.3072  0.0389 -0.0137
   10loPI   C2A  152   6.442  16.921   9.223 -0.1536  0.3393 -0.1648
   10loPI   C3A  153   6.317  16.773   8.892  0.1482  0.0335  0.2563
   10loPI   C4A  154   6.219  16.653   8.472 -0.3636 -0.0922  0.0393
   10loPI   C5A  155   6.108  16.701   8.091 -0.1171 -0.0730  0.0851
   10loPI   C6A  156   6.279  16.503   7.644  0.3463  0.2666  0.1184
   10loPI   C1B  157   6.157  17.260   9.407 -0.4029  0.2049 -0.1953
   10loPI   C2B  158   6.219  17.319   9.017 -0.0099 -0.1568  0.3013
   10loPI   C3B  159   6.175  17.150   8.611 -0.2008 -0.0505 -0.0576
   10loPI   C4B  160   6.151  17.284   8.219  0.0855  0.0204 -0.1853
   11loPI    C1  161   6.194   9.794  10.313  0.0376  0.0248 -0.0296
   11loPI    C2  162   6.190   9.429  10.477 -0.2834 -0.0553 -0.2080
   11loPI    C3  163   6.190   9.754  10.711 -0.0642 -0.1671 -0.0492
   11loPI   PO4  164   6.243   9.760  10.046 -0.1881 -0.1115  0.1639
   11loPI   GL1  165   6.241   9.556   9.676  0.2328  0.3265  0.0842
   11loPI   GL2  166   5.880   9.656   9.627  0.0239 -0.0682 -0.1890
   11loPI   C1A  167   6.418   9.359   9.351 -0.2238  0.3949 -0.3747
   11loPI   C2A  168   6.299   9.302   8.873  0.0757 -0.0637 -0.0029
   11loPI   C3A  169   6.323   9.309   8.392 -0.2583 -0.0893 -0.1761
   11loPI   C4A  170   6.584   9.203   8.033  0.0420 -0.0740 -0.2021
   11loPI   C5A  171   6.903   9.287   7.836  0.3937  0.1045 -0.1585
   11loPI   C6A  172   7.124   9.710   7.658  0.2870  0.1190  0.4164
   11loPI   C1B  173   5.914   9.432   9.359 -0.0573  0.0799 -0.2245
   11loPI   C2B  174   5.873   9.188   8.993 -0.1155 -0.1005  0.1560
   11loPI   C3B  175   5.821   9.262   8.542 -0.1096  0.0676  0.0423
   11loPI   C4B  176   5.960   9.153   8.168 -0.0337  0.2564 -0.0837
   12loPI    C1  177  14.903   0.160  10.740 -0.1765  0.3203 -0.0656
   12loPI    C2  178  14.701   0.299  11.057  0.0566  0.0317  0.2163
   12loPI    C3  179  15.101   0.320  11.049  0.0532  0.0276 -0.0565
   12loPI   PO4  180  14.768   0.224  10.566  0.0571 -0.0214 -0.1918
   12loPI   GL1  181  14.674   0.100  10.242 -0.1585  0.0281 -0.0191
   12loPI   GL2  182  15.063   0.049  10.248  0.2144  0.1840 -0.2901
   12loPI   C1A  183  14.728   0.032   9.915  0.0408  0.1054 -0.0297
   12loPI   C2A  184  14.725   0.070   9.493 -0.2274  0.0590  0.0837
   12loPI   C3A  185  14.822   0.084   9.036 -0.0323  0.0557 -0.1770
   12loPI   C4A  186  14.796   0.371   8.695  0.0885  0.1252 -0.0576
   12loPI   C5A  187  14.866   0.271   8.217 -0.0003 -0.4078 -0.1322
   12loPI   C6A  188  14.859   0.448   7.893  0.0798 -0.1112  0.2877
   12loPI   C1B  189  15.208   0.127   9.786  0.2543 -0.0460  0.1309
   12loPI   C2B  190  15.219   0.161   9.363  0.0882 -0.1302  0.1833
   12loPI   C3B  191  15.246   0.328   8.963  0.0773 -0.2152  0.0495
   12loPI   C4B  192  15.278   0.290   8.544 -0.0863  0.1196 -0.0625
   13loPI    C1  193   5.604   6.301  10.611 -0.2015  0.3278 -0.0531
   13loPI    C2  194   5.476   6.032  10.877  0.0910  0.0990 -0.1378
   13loPI    C3  195   5.357   6.412  10.904 -0.3569 -0.0420 -0.0381
   13loPI   PO4  196   5.599   6.065  10.360  0.0021 -0.1281  0.0564
   13loPI   GL1  197   5.776   5.848   9.953  0.1641  0.0321 -0.0984
   13loPI   GL2  198   5.636   5.543   9.945 -0.3456 -0.0901  0.2623
   13loPI   C1A  199   5.822   6.229   9.588 -0.0825  0.0221  0.1031
   13loPI   C2A  200   5.867   6.157   9.197 -0.0850 -0.4472  0.2037
   13loPI   C3A  201   5.983   5.947   8.839 -0.1672  0.1146 -0.0270
   13loPI   C4A  202   5.975   5.852   8.387 -0.1352  0.2212  0.0476
   13loPI   C5A  203   6.311   5.848   7.975  0.2489 -0.0285 -0.2448
   13loPI   C6A  204   6.785   5.980   7.963  0.2431  0.2583  0.2041
   13loPI   C1B  205   5.769   5.678   9.476 -0.2605  0.2506 -0.3353
   13loPI   C2B  206   5.738   5.600   9.135 -0.1731 -0.0117  0.0681
   13loPI   C3B  207   5.550   5.665   8.741 -0.0581 -0.0546  0.1920
   13loPI   C4B  208   5.496   5.726   8.402 -0.1999 -0.0058  0.1399
   14loPI    C1  209   5.852  10.553  10.320  0.4061 -0.1743 -0.1082
   14loPI    C2  210   5.897  10.167  10.413 -0.1091 -0.2204 -0.0208
   14loPI    C3  211   5.711  10.414  10.667 -0.1033  0.0073 -0.2342
   14loPI   PO4  212   5.779  10.592  10.075 -0.0592  0.0962 -0.0075
   14loPI   GL1  213   5.900  10.604   9.701 -0.2548  0.0156  0.2636
   14loPI   GL2  214   5.673  10.734   9.485  0.1943 -0.0019  0.1624
   14loPI   C1A  215   6.032  10.442   9.332  0.0651 -0.0735  0.1956
   14loPI   C2A  216   5.990  10.432   8.941  0.4202  0.0114 -0.1640
   14loPI   C3A  217   5.823  10.372   8.586 -0.1595 -0.0876 -0.1929
   14loPI   C4A  218   5.892  10.217   8.210 -0.4032  0.4348 -0.1026
   14loPI   C5A  219   6.101   9.917   7.848 -0.0659 -0.2194 -0.0738
   14loPI   C6A  220   6.268   9.546   7.911  0.2633 -0.3950 -0.2710
   14loPI   C1B  221   5.482  10.603   9.057  0.0379 -0.0014 -0.2444
   14loPI   C2B  222   5.364  10.513   8.667  0.1428 -0.0861  0.1226
   14loPI   C3B  223   5.428  10.512   8.206 -0.0931  0.0899 -0.0543
   14loPI   C4B  224   5.446  10.793   7.856  0.1977 -0.0278  0.0276
   15loPI    C1  225  15.699   5.706  11.085 -0.0057  0.0168 -0.1060
   15loPI    C2  226  15.392   5.938  11.194  0.0038  0.0422 -0.1327
   15loPI    C3  227  15.751   5.988  11.364 -0.0104  0.0024 -0.0906
   15loPI   PO4  228  15.634   5.716  10.809 -0.0884  0.0649 -0.1144
   15loPI   GL1  229  15.494   5.517  10.402  0.2412 -0.1392  0.0767
   15loPI   GL2  230  15.677   5.245  10.364 -0.0629 -0.2421 -0.0777
   15loPI   C1A  231  15.321   5.721  10.018 -0.0049 -0.2150 -0.0901
   15loPI   C2A  232  15.435   5.731   9.587  0.0587  0.1572  0.1815
   15loPI   C3A  233  15.447   5.703   9.176  0.0310 -0.2229  0.1844
   15loPI   C4A  234  15.387   5.665   8.830 -0.2253  0.2069  0.0573
   15loPI   C5A  235  15.454   5.976   8.376  0.2239  0.4937  0.0932
   15loPI   C6A  236  15.188   5.959   7.993 -0.1347 -0.0727  0.0125
   15loPI   C1B  237  15.663   5.259   9.913  0.0345  0.0031  0.3040
   15loPI   C2B  238  15.635   5.258   9.501  0.1756  0.1586  0.3220
   15loPI   C3B  239  15.711   5.236   9.077 -0.1323 -0.1761 -0.2900
   15loPI   C4B  240  15.675   5.278   8.571 -0.1406 -0.0195  0.3376
   16loPI    C1  241  13.860  15.172  10.091 -0.1343  0.0981  0.0972
   16loPI    C2  242  13.784  14.876  10.349  0.0355 -0.0059  0.0296
   16loPI    C3  243  13.978  15.203  10.472 -0.0335  0.0193  0.0728
   16loPI   PO4  244  13.868  15.023   9.901  0.2128 -0.0683 -0.2094
   16loPI   GL1  245  13.693  15.211   9.572 -0.3178 -0.4010 -0.0805
   16loPI   GL2  246  13.358  15.315   9.556 -0.0872  0.1271  0.3211
   16loPI   C1A  247  13.760  15.399   9.240  0.0196 -0.0723  0.1591
   16loPI   C2A  248  13.752  15.323   8.767 -0.0239 -0.0486  0.0077
   16loPI   C3A  249  13.848  15.476   8.311  0.0734  0.2851 -0.0421
   16loPI   C4A  250  13.779  15.343   7.892 -0.2693 -0.4295 -0.3353
   16loPI   C5A  251  13.615  15.090   7.606  0.0134 -0.1398  0.3658
   16loPI   C6A  252  13.631  15.025   7.170 -0.2539 -0.1845 -0.2865
   16loPI   C1B  253  13.186  15.463   9.211  0.2870 -0.2245  0.2550
   16loPI   C2B  254  13.271  15.383   8.882  0.0436 -0.1212  0.1540
   16loPI   C3B  255  13.359  15.409   8.443  0.1550 -0.0609  0.1617
   16loPI   C4B  256  13.325  15.384   8.004  0.0316 -0.1916  0.1273
   17loPI    C1  257  12.029   8.703  10.891 -0.1763  0.0285  0.3149
   17loPI    C2  258  11.671   8.729  11.066 -0.1499 -0.2096  0.4084
   17loPI    C3  259  11.939   8.463  11.198 -0.0467 -0.2370  0.1501
   17loPI   PO4  260  12.055   8.837  10.633  0.1866  0.0156  0.0762
   17loPI   GL1  261  11.849   8.918  10.230 -0.1046  0.1573 -0.2443
   17loPI   GL2  262  12.178   8.930  10.107  0.0856  0.1678  0.0287
   17loPI   C1A  263  11.614   9.082   9.902  0.2370  0.2805 -0.1736
   17loPI   C2A  264  11.527   9.002   9.561 -0.0162  0.1638  0.0104
   17loPI   C3A  265  11.566   9.017   9.061  0.0247  0.2732 -0.3500
   17loPI   C4A  266  11.675   8.929   8.679  0.2682 -0.1828 -0.2570
   17loPI   C5A  267  11.681   8.967   8.316 -0.0436 -0.0141 -0.2093
   17loPI   C6A  268  11.561   9.032   7.963  0.2696 -0.0559 -0.0999
   17loPI   C1B  269  12.072   9.045   9.702  0.0952 -0.0384 -0.0458
   17loPI   C2B  270  11.994   8.947   9.274 -0.0935 -0.2543  0.0211
   17loPI   C3B  271  12.098   8.978   8.955 -0.2915 -0.0871  0.1006
   17loPI   C4B  272  12.258   8.918   8.492 -0.0310 -0.0229  0.0941
   18loPI    C1  273  17.244  17.621  10.620 -0.0916  0.0768 -0.0792
   18loPI    C2  274  17.187  17.437  10.971 -0.2215 -0.0920 -0.1870
   18loPI    C3  275  17.335  17.233  10.660  0.1468  0.1222 -0.1591
   18loPI   PO4  276  16.939  17.709  10.452 -0.1128  0.0795 -0.3325
   18loPI   GL1  277  16.745  17.667  10.043 -0.1677  0.0763 -0.0903
   18loPI   GL2  278  16.508  17.937  10.159 -0.0695 -0.2172 -0.0574
   18loPI   C1A  279  16.770  17.814   9.579  0.0023  0.3122 -0.1148
   18loPI   C2A  280  16.717  17.768   9.131 -0.3207  0.1338 -0.2159
   18loPI   C3A  281  16.703  17.610   8.656 -0.1148 -0.0956  0.1222
   18loPI   C4A  282  16.706  17.637   8.184 -0.0436  0.3101 -0.3491
   18loPI   C5A  283  16.561  17.844   7.880  0.5044  0.1984 -0.1011
   18loPI   C6A  284  16.328  17.904   7.524 -0.2454  0.0062 -0.1011
   18loPI   C1B  285  16.455  18.183   9.785  0.0586  0.0302 -0.1161
   18loPI   C2B  286  16.487  18.262   9.253 -0.3034  0.1483  0.0848
   18loPI   C3B  287  16.467  18.298   8.838  0.0477  0.0995  0.2369
   18loPI   C4B  288  16.383  18.036   8.482  0.0075 -0.0420 -0.0896
   19loPI    C1  289   0.518  15.805  10.662 -0.0010  0.0738 -0.2051
   19loPI    C2  290   0.663  15.781  11.034 -0.1618  0.2612 -0.1288
   19loPI    C3  291   0.674  16.129  10.837 -0.1804  0.1897 -0.2571
   19loPI   PO4  292   0.602  15.643  10.557 -0.1039  0.1000  0.5994
   19loPI   GL1  293   0.861  15.711  10.159 -0.0683  0.0937 -0.0393
   19loPI   GL2  294   0.745  15.403  10.119  0.1282  0.2674  0.0055
   19loPI   C1A  295   0.959  15.755   9.786 -0.0596  0.1043 -0.1522
   19loPI   C2A  296   0.938  15.733   9.445 -0.1364 -0.0787  0.2497
   19loPI   C3A  297   0.954  15.680   9.076 -0.0078 -0.1149 -0.1415
   19loPI   C4A  298   0.948  15.612   8.612  0.1249  0.1590 -0.0860
   19loPI   C5A  299   0.954  15.633   8.173  0.2106  0.1835  0.2574
   19loPI   C6A  300   0.868  15.778   7.704 -0.1413  0.1743 -0.1535
   19loPI   C1B  301   0.691  15.287   9.706  0.0033 -0.1130  0.2654
   19loPI   C2B  302   0.683  15.295   9.314  0.0153  0.0911 -0.1070
   19loPI   C3B  303   0.668  15.297   8.868 -0.3437  0.2360  0.0884
   19loPI   C4B  304   0.701  15.178   8.432 -0.2115 -0.0718 -0.2646
   20loPI    C1  305   1.804  17.971  10.272 -0.0951  0.0183 -0.0190
   20loPI    C2  306   1.494  18.023  10.520 -0.0173  0.2345  0.0353
   20loPI    C3  307   1.830  17.850  10.653 -0.1502 -0.0968 -0.0516
   20loPI   PO4  308   1.763  17.931  10.022 -0.0844 -0.2761 -0.3125
   20loPI   GL1  309   2.004  17.926   9.676  0.2546  0.4793 -0.3466
   20loPI   GL2  310   2.233  18.170   9.508  0.2117 -0.1483 -0.1732
   20loPI   C1A  311   2.038  17.497   9.525  0.0632 -0.0710  0.0883
   20loPI   C2A  312   1.961  17.469   9.061 -0.1162  0.0482 -0.2567
   20loPI   C3A  313   1.969  17.473   8.678  0.3337  0.2086 -0.1127
   20loPI   C4A  314   1.844  17.486   8.265 -0.3533  0.2981 -0.0638
   20loPI   C5A  315   1.682  17.676   7.954  0.0523  0.0717 -0.0313
   20loPI   C6A  316   1.257  17.666   7.837  0.0282 -0.0054  0.0436
   20loPI   C1B  317   2.240  17.934   9.242  0.3297 -0.0367  0.0025
   20loPI   C2B  318   2.239  17.847   8.856 -0.1586 -0.4249  0.3386
   20loPI   C3B  319   2.099  17.935   8.462  0.1155  0.0603  0.0157
   20loPI   C4B  320   2.015  18.026   8.066  0.0976  0.3358  0.0133
   21loPI    C1  321   0.558   6.412  10.695  0.1195  0.0060 -0.0299
   21loPI    C2  322   0.834   6.355  10.979  0.0168  0.2632  0.1248
   21loPI    C3  323   0.470   6.193  11.018  0.1684 -0.1520 -0.1226
   21loPI   PO4  324   0.690   6.567  10.591 -0.2048  0.0391 -0.1320
   21loPI   GL1  325   0.877   6.694  10.241 -0.1778 -0.0058  0.4924
   21loPI   GL2  326   0.630   6.953  10.158 -0.0622 -0.0221  0.1247
   21loPI   C1A  327   1.006   6.948   9.848 -0.0866 -0.0972 -0.3553
   21loPI   C2A  328   1.007   6.947   9.436 -0.1399 -0.2387 -0.1295
   21loPI   C3A  329   1.053   6.816   9.054  0.0291 -0.0885 -0.2113
   21loPI   C4A  330   1.158   6.862   8.525 -0.0647  0.1448 -0.2010
   21loPI   C5A  331   0.776   6.678   8.238 -0.1351  0.3674  0.3579
   21loPI   C6A  332   0.764   6.229   8.245 -0.0809  0.3293  0.1035
   21loPI   C1B  333   0.504   6.901   9.763  0.2623  0.1333  0.2316
   21loPI   C2B  334   0.478   6.860   9.319 -0.3210  0.2512 -0.0363
   21loPI   C3B  335   0.497   6.942   8.941 -0.0932 -0.1179  0.0054
   21loPI   C4B  336   0.622   7.126   8.479 -0.1971  0.0620  0.1620
   22loPI    C1  337  11.091  14.979  10.187  0.1406 -0.1498  0.0511
   22loPI    C2  338  11.178  15.206  10.504  0.3967 -0.0010 -0.1228
   22loPI    C3  339  11.163  14.808  10.542  0.0434  0.0338  0.1608
   22loPI   PO4  340  10.905  15.109  10.131 -0.0454 -0.2154  0.1549
   22loPI   GL1  341  10.815  15.366   9.797  0.1290  0.2715 -0.0659
   22loPI   GL2  342  11.075  15.230   9.641 -0.2256 -0.1977 -0.0730
   22loPI   C1A  343  10.637  15.363   9.505 -0.0820 -0.2278  0.3441
   22loPI   C2A  344  10.625  15.180   9.148  0.2187 -0.3006 -0.2658
   22loPI   C3A  345  10.533  15.221   8.747  0.0390  0.1341  0.0704
   22loPI   C4A  346  10.671  15.236   8.359  0.0990  0.1905  0.1150
   22loPI   C5A  347  10.783  15.412   7.992 -0.0761 -0.0430  0.0883
   22loPI   C6A  348  10.968  15.492   7.656  0.0063 -0.1946  0.0916
   22loPI   C1B  349  11.098  14.986   9.350  0.0880 -0.0282 -0.2954
   22loPI   C2B  350  10.950  14.947   8.940  0.3355 -0.0205  0.1371
   22loPI   C3B  351  11.031  14.970   8.451 -0.0420 -0.4436  0.2726
   22loPI   C4B  352  11.205  15.142   8.041 -0.0653  0.0592  0.3103
   23loPI    C1  353   5.079  13.755  10.317 -0.3844 -0.0350 -0.1909
   23loPI    C2  354   4.789  13.847  10.577 -0.1483  0.1467  0.0129
   23loPI    C3  355   5.106  13.634  10.697 -0.0939  0.1310 -0.1555
   23loPI   PO4  356   5.098  14.018  10.215 -0.3922 -0.1683  0.3700
   23loPI   GL1  357   5.199  14.208   9.781  0.5134  0.2948  0.4625
   23loPI   GL2  358   4.944  13.964   9.683  0.1905 -0.3698  0.0589
   23loPI   C1A  359   5.344  14.293   9.338 -0.0742 -0.0721 -0.0935
   23loPI   C2A  360   5.402  14.706   9.069 -0.0254 -0.0365  0.0017
   23loPI   C3A  361   5.571  14.716   8.640  0.0341 -0.0278  0.1499
   23loPI   C4A  362   5.492  14.634   8.170 -0.0821  0.0360  0.0249
   23loPI   C5A  363   5.289  14.719   7.711 -0.3266  0.1384  0.1788
   23loPI   C6A  364   5.163  14.720   7.178 -0.0208  0.5158 -0.4558
   23loPI   C1B  365   4.830  13.964   9.328  0.0518  0.2433 -0.3009
   23loPI   C2B  366   4.988  13.957   8.953 -0.0457  0.1595 -0.3407
   23loPI   C3B  367   5.247  13.804   8.622 -0.1639  0.0027 -0.1794
   23loPI   C4B  368   5.070  13.517   8.284  0.0000  0.0772 -0.0566
   24loPI    C1  369  13.186  13.336  10.263  0.2301  0.0726  0.0745
   24loPI    C2  370  13.447  13.188  10.527  0.2206 -0.4068 -0.1732
   24loPI    C3  371  13.054  13.144  10.588  0.1890  0.1870  0.1259
   24loPI   PO4  372  13.304  13.308  10.031 -0.0087 -0.1685  0.0266
   24loPI   GL1  373  13.202  13.113   9.615 -0.0383 -0.3180 -0.3720
   24loPI   GL2  374  13.440  13.000   9.660  0.1239  0.0928 -0.0502
   24loPI   C1A  375  12.992  12.993   9.221 -0.1386 -0.2993 -0.0646
   24loPI   C2A  376  13.035  12.926   8.871 -0.2098  0.0389  0.1921
   24loPI   C3A  377  13.118  12.851   8.453 -0.2379  0.1122  0.5545
   24loPI   C4A  378  13.149  12.731   7.993 -0.0261  0.0994 -0.1060
   24loPI   C5A  379  13.265  13.131   7.690  0.2296  0.2354  0.3501
   24loPI   C6A  380  13.227  13.492   7.497  0.1081  0.1644  0.1206
   24loPI   C1B  381  13.483  12.996   9.167  0.0848 -0.1492  0.3127
   24loPI   C2B  382  13.523  12.901   8.715 -0.1251  0.0439 -0.1845
   24loPI   C3B  383  13.658  12.900   8.297  0.1229  0.0611 -0.1631
   24loPI   C4B  384  13.966  13.107   7.951 -0.2510  0.4399 -0.3200
   25loPI    C1  385  15.323  14.188  10.374 -0.2257 -0.2149 -0.0523
   25loPI    C2  386  14.939  14.303  10.368 -0.1966 -0.0999  0.1772
   25loPI    C3  387  15.161  14.363  10.695  0.0679 -0.0030 -0.0156
   25loPI   PO4  388  15.283  13.924  10.276  0.0638 -0.1045 -0.0831
   25loPI   GL1  389  15.206  13.875   9.813 -0.0850 -0.0869 -0.1496
   25loPI   GL2  390  15.494  13.693   9.820 -0.2092  0.3693  0.1772
   25loPI   C1A  391  15.031  13.939   9.468  0.3046 -0.0051  0.2619
   25loPI   C2A  392  15.030  13.893   9.054 -0.0977 -0.1707 -0.0400
   25loPI   C3A  393  15.012  13.858   8.523  0.2896  0.0128 -0.4586
   25loPI   C4A  394  15.100  13.752   8.063 -0.5347 -0.2727 -0.2056
   25loPI   C5A  395  15.199  13.470   7.732 -0.2758 -0.1237  0.0397
   25loPI   C6A  396  15.600  13.464   7.492 -0.1736  0.2072  0.0124
   25loPI   C1B  397  15.572  13.882   9.371  0.2150  0.0148 -0.0334
   25loPI   C2B  398  15.761  13.888   9.000  0.2187 -0.0343 -0.0545
   25loPI   C3B  399  15.649  14.029   8.678 -0.1495 -0.1560 -0.0892
   25loPI   C4B  400  15.466  13.928   8.370  0.1560 -0.0567 -0.2170
   26loPI    C1  401   5.474  13.660   9.978  0.1143  0.2215 -0.0406
   26loPI    C2  402   5.793  13.420   9.995  0.0647  0.1638  0.0932
   26loPI    C3  403   5.571  13.479  10.322  0.0445  0.3486  0.0469
   26loPI   PO4  404   5.381  13.636   9.829 -0.0970  0.0456 -0.2618
   26loPI   GL1  405   5.524  13.456   9.502  0.0471 -0.0346 -0.2713
   26loPI   GL2  406   5.273  13.759   9.375  0.1671  0.1136 -0.2687
   26loPI   C1A  407   5.422  13.199   9.161  0.3785 -0.4212  0.0367
   26loPI   C2A  408   5.361  13.313   8.684  0.2051 -0.0550  0.0204
   26loPI   C3A  409   5.508  13.418   8.335  0.2190 -0.2623 -0.1456
   26loPI   C4A  410   5.520  13.654   7.831 -0.1280  0.1212  0.2848
   26loPI   C5A  411   5.749  13.656   7.374  0.3739 -0.0729 -0.0741
   26loPI   C6A  412   5.942  13.410   7.199 -0.2628 -0.0715 -0.1345
   26loPI   C1B  413   5.497  13.738   9.087  0.0615  0.0382  0.0269
   26loPI   C2B  414   5.767  13.772   8.735 -0.2039 -0.1525  0.1793
   26loPI   C3B  415   5.819  13.781   8.256  0.1268  0.0771 -0.0662
   26loPI   C4B  416   5.985  13.732   7.838 -0.1165  0.0381  0.0430
   27loPI    C1  417   9.285  14.291  10.432  0.0880  0.0753  0.2259
   27loPI    C2  418   9.391  14.529  10.735  0.1068 -0.0826  0.3446
   27loPI    C3  419   9.063  14.301  10.764  0.1217 -0.1158  0.2556
   27loPI   PO4  420   9.291  14.457  10.151 -0.0447 -0.4079  0.1904
   27loPI   GL1  421   9.592  14.350   9.742  0.2412 -0.1211 -0.2221
   27loPI   GL2  422   9.829  14.623   9.454  0.1499  0.1535 -0.1190
   27loPI   C1A  423   9.392  14.323   9.326 -0.1283  0.3633  0.3525
   27loPI   C2A  424   9.516  14.251   8.876 -0.4478  0.2804  0.1325
   27loPI   C3A  425   9.719  14.235   8.419 -0.0804 -0.0107 -0.0629
   27loPI   C4A  426   9.675  13.950   8.158  0.1617  0.2107  0.0696
   27loPI   C5A  427   9.741  13.688   7.833 -0.2715  0.2373 -0.0753
   27loPI   C6A  428   9.922  13.580   7.471  0.1842 -0.2368  0.1847
   27loPI   C1B  429   9.859  14.561   8.976 -0.1100 -0.1725 -0.1774
   27loPI   C2B  430  10.024  14.565   8.575  0.1685 -0.1191  0.1415
   27loPI   C3B  431  10.117  14.697   8.167  0.0931 -0.0204  0.2954
   27loPI   C4B  432   9.970  14.885   7.830  0.0607 -0.2304  0.3531
   28loPI    C1  433   7.192  16.239  10.406 -0.2354  0.1245 -0.1024
   28loPI    C2  434   7.214  16.600  10.577  0.0885  0.0990 -0.0854
   28loPI    C3  435   7.190  16.272  10.804 -0.4727  0.1195 -0.1013
   28loPI   PO4  436   7.285  16.348  10.120 -0.1451  0.0160 -0.3184
   28loPI   GL1  437   7.478  16.324   9.828  0.1564  0.2429 -0.0231
   28loPI   GL2  438   7.358  16.684   9.734 -0.0038  0.2895  0.1826
   28loPI   C1A  439   7.243  16.077   9.520  0.3719 -0.2889  0.0409
   28loPI   C2A  440   7.204  16.162   9.000  0.1106 -0.0502 -0.1308
   28loPI   C3A  441   7.071  16.154   8.578 -0.1199 -0.2995 -0.2139
   28loPI   C4A  442   6.963  16.168   8.184  0.1153  0.1196  0.1107
   28loPI   C5A  443   7.111  16.337   7.859  0.0408  0.0233  0.1357
   28loPI   C6A  444   7.431  16.666   7.671  0.4836 -0.3085  0.1730
   28loPI   C1B  445   7.218  16.561   9.276 -0.0467  0.2190  0.1863
   28loPI   C2B  446   7.221  16.581   8.768 -0.1864  0.0031 -0.0621
   28loPI   C3B  447   7.255  16.659   8.280  0.0864  0.1524  0.0379
   28loPI   C4B  448   7.151  17.012   7.976 -0.2173  0.1985  0.0063
   29loPI    C1  449  18.224  15.862  10.844 -0.0249 -0.0265 -0.1998
   29loPI    C2  450  17.896  15.967  11.047 -0.1111 -0.1473 -0.2746
   29loPI    C3  451  18.258  16.052  11.195 -0.1712 -0.2879 -0.0407
   29loPI   PO4  452  18.248  15.936  10.556  0.1726  0.2973  0.0683
   29loPI   GL1  453  18.636  15.669  10.260 -0.1897 -0.0612 -0.1611
   29loPI   GL2  454  18.721  15.411  10.311  0.0566  0.0144 -0.0284
   29loPI   C1A  455  18.894  15.760   9.864  0.0892  0.0700  0.0610
   29loPI   C2A  456  18.877  15.719   9.402  0.0391 -0.1924 -0.2126
   29loPI   C3A  457  18.963  15.685   8.992 -0.0565 -0.1376  0.0093
   29loPI   C4A  458  18.870  15.689   8.468 -0.2417 -0.1273 -0.0110
   29loPI   C5A  459  18.646  15.417   8.228 -0.2845 -0.0621  0.0959
   29loPI   C6A  460  18.765  14.978   8.092  0.0167 -0.0869  0.0945
   29loPI   C1B  461  18.582  15.322   9.951  0.0525  0.1748  0.0709
   29loPI   C2B  462  18.510  15.411   9.512 -0.2548 -0.0546  0.3115
   29loPI   C3B  463  18.643  15.305   9.094 -0.1517 -0.2164 -0.0351
   29loPI   C4B  464  18.682  15.142   8.643 -0.0561  0.2207  0.1541
   30loPI    C1  465  10.400   0.361  10.139  0.2412  0.2300 -0.2445
   30loPI    C2  466  10.285   0.570  10.460  0.1186 -0.1118 -0.0610
   30loPI    C3  467  10.018   0.475  10.177  0.1634 -0.0614 -0.1202
   30loPI   PO4  468  10.633   0.524   9.983 -0.1969  0.0589 -0.1897
   30loPI   GL1  469  10.719   0.496   9.577  0.0935  0.0233  0.1988
   30loPI   GL2  470  10.454   0.811   9.547  0.0111 -0.0430  0.3741
   30loPI   C1A  471  10.652   0.433   9.354  0.0199  0.3528  0.0889
   30loPI   C2A  472  10.697   0.510   8.959  0.1602 -0.0207 -0.2510
   30loPI   C3A  473  10.840   0.509   8.521 -0.2781  0.1948  0.0633
   30loPI   C4A  474  10.935   0.556   8.012 -0.0145 -0.0637  0.2215
   30loPI   C5A  475  10.899   0.897   7.683  0.3134  0.4077 -0.4874
   30loPI   C6A  476  11.055   1.189   7.868 -0.0713 -0.1611 -0.0410
   30loPI   C1B  477  10.489   0.913   9.161  0.0742 -0.3934  0.1724
   30loPI   C2B  478  10.571   0.987   8.651  0.2551 -0.1450  0.4939
   30loPI   C3B  479  10.658   1.080   8.178  0.1061  0.1940  0.0875
   30loPI   C4B  480  10.632   1.418   7.865  0.2220 -0.2396  0.2347
   31loPI    C1  481   0.405  16.553  10.937  0.1813 -0.0541  0.1495
   31loPI    C2  482   0.252  16.217  11.092 -0.0843  0.0488  0.1154
   31loPI    C3  483   0.009  16.511  10.972  0.1295  0.0942 -0.2202
   31loPI   PO4  484   0.561  16.569  10.751 -0.0822 -0.0764  0.0014
   31loPI   GL1  485   0.530  16.685  10.395  0.1292 -0.1490 -0.0941
   31loPI   GL2  486   0.368  17.017  10.236 -0.1391  0.1337  0.3010
   31loPI   C1A  487   0.597  16.472  10.035 -0.0807 -0.2095 -0.0614
   31loPI   C2A  488   0.380  16.272   9.713 -0.0296 -0.4170 -0.3921
   31loPI   C3A  489   0.476  16.379   9.408 -0.1702 -0.0519  0.0102
   31loPI   C4A  490   0.520  16.173   9.036 -0.0712  0.0955 -0.3031
   31loPI   C5A  491   0.701  16.120   8.697 -0.0344 -0.2678  0.0066
   31loPI   C6A  492   0.643  16.127   8.261  0.0590 -0.1182  0.0821
   31loPI   C1B  493   0.298  16.863   9.881 -0.4019 -0.0094 -0.0278
   31loPI   C2B  494   0.260  16.865   9.447 -0.0242  0.2377  0.3091
   31loPI   C3B  495   0.274  16.807   9.012 -0.1184 -0.1107  0.3115
   31loPI   C4B  496   0.337  16.541   8.628  0.0520 -0.0133 -0.4156
   32loPI    C1  497   3.414   1.520  10.061 -0.2080  0.0933 -0.0982
   32loPI    C2  498   3.632   1.814  10.221 -0.0539  0.0124 -0.1581
   32loPI    C3  499   3.304   1.684  10.409  0.1065 -0.0593  0.0765
   32loPI   PO4  500   3.669   1.272  10.017 -0.0178  0.3534  0.3670
   32loPI   GL1  501   3.689   1.186   9.696  0.1465 -0.0819 -0.3525
   32loPI   GL2  502   3.965   1.235   9.579 -0.1449 -0.0143  0.1509
   32loPI   C1A  503   3.463   1.046   9.264  0.0334  0.0601 -0.1163
   32loPI   C2A  504   3.503   1.156   8.864  0.1969 -0.0572  0.2806
   32loPI   C3A  505   3.384   1.395   8.470 -0.4107 -0.1111  0.5009
   32loPI   C4A  506   3.388   1.271   8.048  0.0008 -0.0426 -0.0577
   32loPI   C5A  507   3.476   0.895   7.851 -0.2001 -0.0642  0.2051
   32loPI   C6A  508   3.493   0.559   7.802 -0.2102  0.1751 -0.0632
   32loPI   C1B  509   3.905   0.867   9.404 -0.2290  0.0281 -0.0363
   32loPI   C2B  510   3.831   0.751   8.978 -0.2904  0.0431 -0.4485
   32loPI   C3B  511   4.186   0.851   8.655 -0.1685  0.2623 -0.0619
   32loPI   C4B  512   4.350   1.209   8.287 -0.1019  0.1760 -0.2003
   33loPI    C1  513  16.383  16.871  10.554  0.1374 -0.1431 -0.0413
   33loPI    C2  514  16.052  16.966  10.756  0.1265  0.0637 -0.1540
   33loPI    C3  515  16.379  16.850  10.954  0.1350  0.3218 -0.0113
   33loPI   PO4  516  16.342  16.939  10.368  0.0462  0.0013 -0.0209
   33loPI   GL1  517  16.402  16.741  10.053 -0.1115 -0.3406  0.2353
   33loPI   GL2  518  16.717  16.700  10.010 -0.0464 -0.1812  0.1708
   33loPI   C1A  519  16.173  16.767   9.626  0.1114 -0.0585 -0.2854
   33loPI   C2A  520  16.196  16.721   9.180 -0.3022  0.0894  0.0452
   33loPI   C3A  521  16.139  16.721   8.757 -0.0495 -0.2052 -0.2205
   33loPI   C4A  522  16.203  16.665   8.398  0.0299 -0.0809 -0.5496
   33loPI   C5A  523  16.201  16.477   7.966 -0.2816 -0.0492  0.0399
   33loPI   C6A  524  16.327  16.238   7.575  0.1083 -0.1819 -0.2444
   33loPI   C1B  525  16.658  16.783   9.544  0.2273 -0.0346 -0.2072
   33loPI   C2B  526  16.709  16.729   9.022  0.3408  0.3095 -0.1854
   33loPI   C3B  527  16.630  16.649   8.583  0.0413  0.0762  0.1705
   33loPI   C4B  528  16.759  16.632   8.098  0.2492 -0.0532  0.1335
   34loPI    C1  529   9.056   5.510  10.557  0.1800 -0.0545 -0.0256
   34loPI    C2  530   9.175   5.224  10.811  0.2885 -0.0955 -0.1219
   34loPI    C3  531   9.406   5.544  10.748  0.1747  0.0062 -0.0266
   34loPI   PO4  532   8.924   5.299  10.338 -0.2995 -0.3152 -0.0246
   34loPI   GL1  533   8.990   5.377   9.911  0.1985  0.2696  0.0915
   34loPI   GL2  534   9.040   5.122   9.692  0.1736  0.0887  0.1913
   34loPI   C1A  535   8.813   5.581   9.537  0.2664  0.1186 -0.0831
   34loPI   C2A  536   8.668   5.673   9.117 -0.6213 -0.0378 -0.1930
   34loPI   C3A  537   8.758   5.848   8.689  0.1353  0.0490 -0.1716
   34loPI   C4A  538   8.739   5.732   8.291  0.0210  0.2317 -0.2273
   34loPI   C5A  539   8.824   5.768   7.909  0.0447 -0.1749  0.2214
   34loPI   C6A  540   8.836   5.814   7.421  0.3720 -0.0479  0.0322
   34loPI   C1B  541   8.901   5.114   9.323  0.1168 -0.2825  0.2256
   34loPI   C2B  542   8.777   4.951   8.893  0.1671  0.0356  0.0593
   34loPI   C3B  543   8.559   5.002   8.589  0.2781 -0.2117 -0.3471
   34loPI   C4B  544   8.720   5.012   8.152 -0.0127  0.4246 -0.2216
   35loPI    C1  545   4.750  14.315  10.434 -0.0308 -0.1122 -0.0641
   35loPI    C2  546   4.657  14.598  10.700  0.0132 -0.0347 -0.1307
   35loPI    C3  547   4.421  14.278  10.658  0.0842 -0.1202  0.1053
   35loPI   PO4  548   4.793  14.401  10.229  0.0173 -0.1266 -0.1725
   35loPI   GL1  549   4.796  14.506   9.841  0.3820  0.1744 -0.0034
   35loPI   GL2  550   4.684  14.852   9.871  0.1328  0.0230 -0.0279
   35loPI   C1A  551   4.906  14.414   9.350  0.1166 -0.1140  0.0866
   35loPI   C2A  552   5.052  14.416   8.855 -0.2837 -0.2392 -0.1821
   35loPI   C3A  553   5.054  14.683   8.509 -0.1564 -0.0374 -0.2948
   35loPI   C4A  554   4.987  14.679   8.096 -0.1343 -0.2402  0.0829
   35loPI   C5A  555   4.825  14.269   7.879  0.1985  0.2636 -0.3204
   35loPI   C6A  556   4.967  13.807   7.833 -0.3502 -0.2022  0.2907
   35loPI   C1B  557   4.550  14.708   9.436  0.2699 -0.2016 -0.2493
   35loPI   C2B  558   4.563  14.664   8.968 -0.0728 -0.1676  0.0161
   35loPI   C3B  559   4.585  14.605   8.625 -0.2256 -0.3598  0.1686
   35loPI   C4B  560   4.552  14.439   8.227 -0.2715  0.0091  0.2085
   36loPI    C1  561  18.090  11.107  10.947  0.0068 -0.0933 -0.1584
   36loPI    C2  562  18.320  11.040  11.267 -0.0685  0.0980 -0.0624
   36loPI    C3  563  18.021  11.305  11.288 -0.1088  0.0711 -0.2753
   36loPI   PO4  564  17.958  10.907  10.879 -0.0791  0.0314  0.1249
   36loPI   GL1  565  17.869  10.952  10.457 -0.0315 -0.1036  0.4117
   36loPI   GL2  566  18.136  10.893  10.342 -0.2618 -0.1071  0.1753
   36loPI   C1A  567  17.781  10.722  10.033  0.0526  0.2696  0.0027
   36loPI   C2A  568  17.762  10.754   9.577 -0.1674 -0.0703  0.1206
   36loPI   C3A  569  17.953  10.668   9.133  0.0466  0.0100  0.0184
   36loPI   C4A  570  17.808  10.463   8.723  0.0988  0.1267  0.1820
   36loPI   C5A  571  17.959  10.238   8.451 -0.1982 -0.1134 -0.2968
   36loPI   C6A  572  17.688   9.976   8.253 -0.0055 -0.2069  0.0815
   36loPI   C1B  573  18.241  10.738   9.917  0.0498 -0.2591 -0.2994
   36loPI   C2B  574  18.322  10.657   9.475 -0.2092  0.1482 -0.1849
   36loPI   C3B  575  18.510  10.591   9.110 -0.1382 -0.3458 -0.1856
   36loPI   C4B  576  18.365  10.563   8.657  0.1616 -0.1822  0.0628
   37loPI    C1  577   9.702  11.353  10.197  0.0032 -0.1040 -0.0303
   37loPI    C2  578   9.758  11.035  10.432 -0.0996 -0.0956  0.0063
   37loPI    C3  579  10.048  11.307  10.391  0.0096 -0.2219 -0.0688
   37loPI   PO4  580   9.529  11.226  10.020 -0.1411 -0.1167 -0.2630
   37loPI   GL1  581   9.366  11.324   9.565 -0.1675  0.0788 -0.1867
   37loPI   GL2  582   9.265  11.021   9.694  0.2110 -0.0129 -0.0001
   37loPI   C1A  583   9.391  11.249   9.146  0.0876 -0.1531  0.1478
   37loPI   C2A  584   9.392  11.140   8.697 -0.2426  0.0518  0.1950
   37loPI   C3A  585   9.431  11.063   8.279  0.0408 -0.0421 -0.2566
   37loPI   C4A  586   9.656  10.967   7.936  0.0249 -0.0186  0.2308
   37loPI   C5A  587   9.739  11.046   7.595  0.4403 -0.0369  0.2632
   37loPI   C6A  588   9.964  11.022   7.214 -0.1572  0.0173  0.0975
   37loPI   C1B  589   9.393  10.792   9.378  0.0339 -0.3156  0.3450
   37loPI   C2B  590   9.372  10.640   9.064  0.1991  0.0008  0.1836
   37loPI   C3B  591   9.409  10.609   8.579  0.2317  0.0709  0.2391
   37loPI   C4B  592   9.481  10.448   8.125  0.1670  0.0963 -0.1161
   38loPI    C1  593  15.555   5.191  11.374 -0.0435 -0.1895  0.1495
   38loPI    C2  594  15.455   5.547  11.528 -0.0306 -0.0550 -0.1464
   38loPI    C3  595  15.305   5.211  11.686 -0.0819  0.0833  0.1035
   38loPI   PO4  596  15.567   5.212  11.049  0.1708 -0.1166 -0.0657
   38loPI   GL1  597  15.315   5.095  10.694  0.2540  0.3023  0.0385
   38loPI   GL2  598  15.505   4.788  10.581  0.2097  0.0647  0.0035
   38loPI   C1A  599  15.089   5.262  10.351 -0.0479  0.0540  0.0701
   38loPI   C2A  600  15.082   5.220   9.936  0.0862 -0.1546  0.0832
   38loPI   C3A  601  15.036   5.232   9.486 -0.1582  0.3325 -0.0352
   38loPI   C4A  602  15.066   5.276   9.084 -0.0425 -0.2797  0.1121
   38loPI   C5A  603  15.162   5.273   8.601  0.0709 -0.2097 -0.1268
   38loPI   C6A  604  15.322   5.530   8.295  0.0997  0.0378 -0.4282
   38loPI   C1B  605  15.400   4.853  10.112  0.0400  0.0444 -0.0845
   38loPI   C2B  606  15.403   4.799   9.706 -0.4425 -0.0056 -0.0723
   38loPI   C3B  607  15.462   4.839   9.312  0.1170  0.1660  0.0231
   38loPI   C4B  608  15.449   4.899   8.836 -0.1203 -0.2220 -0.0472
   39loPI    C1  609   2.898  11.763  10.464 -0.3759 -0.1382  0.0626
   39loPI    C2  610   2.981  11.519  10.770 -0.1457 -0.1324  0.0069
   39loPI    C3  611   3.028  11.915  10.810 -0.0306 -0.1386 -0.0629
   39loPI   PO4  612   2.636  11.653  10.279 -0.2507  0.2471 -0.3283
   39loPI   GL1  613   2.415  11.685   9.988 -0.0846  0.0715 -0.2348
   39loPI   GL2  614   2.391  11.883   9.781 -0.1374  0.2674 -0.4427
   39loPI   C1A  615   2.718  11.562   9.614 -0.3113 -0.1173 -0.1872
   39loPI   C2A  616   2.695  11.418   9.260  0.0558  0.2002 -0.1367
   39loPI   C3A  617   2.705  11.492   8.793  0.1312 -0.0204 -0.3979
   39loPI   C4A  618   2.708  11.411   8.447  0.0662  0.1947  0.0474
   39loPI   C5A  619   2.497  11.362   8.115 -0.1443  0.1024  0.1584
   39loPI   C6A  620   2.276  11.506   7.788 -0.4606 -0.0885  0.0581
   39loPI   C1B  621   2.468  11.882   9.357 -0.1362  0.0213  0.0892
   39loPI   C2B  622   2.408  11.975   8.944  0.1630 -0.1165 -0.2750
   39loPI   C3B  623   2.361  11.896   8.646 -0.2531 -0.2115  0.0885
   39loPI   C4B  624   2.311  11.808   8.253  0.2685  0.2066  0.0340
   40loPI    C1  625  11.809  11.764   9.934 -0.0345  0.1108 -0.0658
   40loPI    C2  626  11.654  11.589  10.258  0.0955  0.0524 -0.0345
   40loPI    C3  627  11.856  11.932  10.294 -0.0220  0.1267 -0.0749
   40loPI   PO4  628  11.683  11.699   9.774  0.1780 -0.2300 -0.3577
   40loPI   GL1  629  11.488  11.905   9.481  0.3483 -0.0398 -0.1149
   40loPI   GL2  630  11.334  12.234   9.666 -0.0625  0.1760 -0.2084
   40loPI   C1A  631  11.680  11.887   9.074  0.0214 -0.0138  0.0067
   40loPI   C2A  632  11.744  11.741   8.614  0.0464 -0.1366  0.0432
   40loPI   C3A  633  11.654  11.751   8.218  0.1393 -0.2355  0.0260
   40loPI   C4A  634  11.600  11.577   7.801 -0.0108 -0.1060 -0.0927
   40loPI   C5A  635  11.466  11.269   7.509  0.1127 -0.0488 -0.3127
   40loPI   C6A  636  11.038  11.204   7.440  0.1872 -0.1096  0.1662
   40loPI   C1B  637  11.289  12.346   9.181  0.4107 -0.1757 -0.3639
   40loPI   C2B  638  11.285  12.548   8.823  0.0229 -0.1396  0.2506
   40loPI   C3B  639  11.309  12.699   8.393  0.1540  0.3474  0.2794
   40loPI   C4B  640  11.550  12.738   8.052 -0.1089  0.0680  0.4150
   41loPI    C1  641   5.308  17.365  10.445 -0.0180 -0.0583  0.0704
   41loPI    C2  642   5.117  17.504  10.768 -0.2518 -0.0176 -0.0827
   41loPI    C3  643   5.516  17.522  10.748 -0.2438  0.0939  0.1493
   41loPI   PO4  644   5.203  17.418  10.227  0.0953  0.3471 -0.1683
   41loPI   GL1  645   5.245  17.729  10.078  0.1446  0.1138 -0.2174
   41loPI   GL2  646   5.549  17.806  10.286 -0.0882 -0.1103  0.0066
   41loPI   C1A  647   5.217  17.729   9.625 -0.1706  0.1741 -0.1920
   41loPI   C2A  648   5.218  17.575   9.235  0.1817  0.0835 -0.0692
   41loPI   C3A  649   5.244  17.622   8.800  0.1276 -0.1870  0.0231
   41loPI   C4A  650   5.204  17.612   8.317  0.1353  0.0184 -0.1686
   41loPI   C5A  651   5.197  17.898   8.096 -0.0684 -0.1264 -0.0428
   41loPI   C6A  652   5.297  17.900   7.597 -0.3865 -0.2646  0.1088
   41loPI   C1B  653   5.692  17.687   9.854  0.0151  0.1863 -0.0846
   41loPI   C2B  654   5.751  17.424   9.506  0.1248 -0.0697  0.2885
   41loPI   C3B  655   5.626  17.232   9.055 -0.3235  0.1597  0.0640
   41loPI   C4B  656   5.756  17.383   8.560  0.0755 -0.1343  0.0960
   42loPI    C1  657   0.395   3.765  10.963  0.0107  0.0328  0.1949
   42loPI    C2  658   0.779   3.653  10.960 -0.0507 -0.1803  0.1726
   42loPI    C3  659   0.528   3.498  11.230 -0.1936 -0.2915 -0.0211
   42loPI   PO4  660   0.327   3.755  10.698  0.1785 -0.4712 -0.0665
   42loPI   GL1  661   0.514   3.704  10.327  0.1215 -0.1407 -0.0777
   42loPI   GL2  662   0.215   3.800  10.142 -0.2287  0.0200  0.2793
   42loPI   C1A  663   0.690   3.721   9.902  0.0194 -0.0927  0.2362
   42loPI   C2A  664   0.679   3.745   9.482 -0.0998  0.0692 -0.0971
   42loPI   C3A  665   0.528   3.707   9.112 -0.0512 -0.1328  0.1405
   42loPI   C4A  666   0.520   3.698   8.681 -0.0767 -0.0828  0.1710
   42loPI   C5A  667   0.478   3.673   8.236 -0.1980 -0.3451  0.0922
   42loPI   C6A  668   0.232   3.444   7.914  0.0211 -0.2709 -0.2824
   42loPI   C1B  669   0.092   3.709   9.732  0.0714  0.0091  0.0740
   42loPI   C2B  670   0.056   3.636   9.265  0.2717  0.1048  0.5010
   42loPI   C3B  671  -0.027   3.746   8.805  0.1574  0.0231  0.4210
   42loPI   C4B  672  -0.076   3.793   8.390 -0.0099  0.0067 -0.0835
   43loPI    C1  673   7.512   3.827   9.918  0.2538  0.1844 -0.0164
   43loPI    C2  674   7.392   4.168   9.746 -0.0535 -0.0523 -0.2824
   43loPI    C3  675   7.174   4.004  10.039  0.1479  0.0309 -0.0837
   43loPI   PO4  676   7.634   3.685   9.734  0.3242  0.0394  0.1090
   43loPI   GL1  677   7.840   3.416   9.430  0.3163 -0.0823 -0.1010
   43loPI   GL2  678   8.101   3.242   9.447 -0.1852  0.1450  0.2388
   43loPI   C1A  679   7.657   3.354   8.982 -0.2436  0.2152 -0.0114
   43loPI   C2A  680   7.494   3.268   8.556  0.1293 -0.1463 -0.0914
   43loPI   C3A  681   7.337   3.401   8.225 -0.0858  0.1194 -0.1078
   43loPI   C4A  682   7.274   3.461   7.796  0.1576 -0.1065 -0.1137
   43loPI   C5A  683   7.505   3.443   7.474  0.1247  0.2543 -0.0568
   43loPI   C6A  684   7.860   3.565   7.421  0.0388 -0.0156 -0.2314
   43loPI   C1B  685   8.068   2.966   9.054  0.1668 -0.1635 -0.1593
   43loPI   C2B  686   8.354   2.803   8.734 -0.1833  0.0795 -0.1255
   43loPI   C3B  687   8.389   2.689   8.269 -0.0684 -0.3911  0.3338
   43loPI   C4B  688   8.365   2.690   7.828  0.0419 -0.0660  0.2402
   44loPI    C1  689   6.279   0.932  10.483 -0.0335 -0.1150 -0.0097
   44loPI    C2  690   6.339   1.252  10.714  0.0546 -0.0599 -0.1076
   44loPI    C3  691   6.125   0.943  10.852  0.0389  0.0058  0.0173
   44loPI   PO4  692   6.416   1.073  10.249 -0.0297  0.0459 -0.0493
   44loPI   GL1  693   6.384   1.111   9.796  0.3810  0.1377 -0.0327
   44loPI   GL2  694   6.159   0.925   9.668  0.1224 -0.0686 -0.2658
   44loPI   C1A  695   6.455   1.372   9.341  0.2646 -0.3791  0.0196
   44loPI   C2A  696   6.372   1.416   8.915  0.0495  0.1981 -0.1143
   44loPI   C3A  697   6.397   1.402   8.378 -0.0946  0.1224 -0.2159
   44loPI   C4A  698   6.761   1.378   8.067  0.0395 -0.0629 -0.0907
   44loPI   C5A  699   6.894   1.476   7.659 -0.1716  0.0387 -0.3455
   44loPI   C6A  700   7.306   1.361   7.386 -0.1796 -0.2587  0.1226
   44loPI   C1B  701   6.334   0.667   9.406 -0.0831 -0.3297  0.0876
   44loPI   C2B  702   6.358   0.550   8.967 -0.1918 -0.1880 -0.0613
   44loPI   C3B  703   6.306   0.558   8.617 -0.2072 -0.1741  0.0392
   44loPI   C4B  704   6.573   0.406   8.303  0.0187 -0.0610  0.2055
   45loPI    C1  705  11.708   4.863  10.695 -0.4476  0.2025 -0.0645
   45loPI    C2  706  11.934   4.952  11.013  0.1153 -0.1192 -0.3575
   45loPI    C3  707  11.537   4.918  11.052  0.1357  0.1950  0.2275
   45loPI   PO4  708  11.823   4.994  10.530  0.2174 -0.2452  0.1042
   45loPI   GL1  709  11.799   5.189  10.141  0.0736 -0.0714 -0.0993
   45loPI   GL2  710  11.747   4.862  10.064  0.4974  0.2519 -0.0742
   45loPI   C1A  711  12.048   5.274   9.746 -0.0429 -0.0573 -0.0570
   45loPI   C2A  712  12.099   5.244   9.324  0.2801  0.0940  0.2025
   45loPI   C3A  713  12.052   5.318   8.795 -0.3252 -0.1671  0.0548
   45loPI   C4A  714  12.224   5.330   8.387 -0.1661 -0.0226  0.2660
   45loPI   C5A  715  12.485   5.382   7.903  0.2068  0.0730 -0.1298
   45loPI   C6A  716  12.820   5.438   7.623  0.2994  0.3170 -0.0585
   45loPI   C1B  717  11.780   4.852   9.618  0.0126 -0.0776  0.2094
   45loPI   C2B  718  11.912   4.875   9.102 -0.0476 -0.1216  0.0548
   45loPI   C3B  719  11.848   4.935   8.645  0.1527 -0.2915 -0.0058
   45loPI   C4B  720  11.805   5.042   8.278 -0.0526  0.2899 -0.0462
   46loPI    C1  721   3.950   6.291  10.723 -0.0013 -0.0681 -0.0184
   46loPI    C2  722   4.068   5.948  10.555  0.2719  0.1177 -0.2156
   46loPI    C3  723   4.237   6.072  10.895  0.1162  0.0187 -0.1012
   46loPI   PO4  724   3.888   6.460  10.485 -0.0541 -0.0631 -0.3231
   46loPI   GL1  725   3.792   6.394  10.069  0.0280  0.1292  0.1486
   46loPI   GL2  726   4.028   6.160  10.108 -0.2130 -0.0842 -0.0057
   46loPI   C1A  727   3.939   6.413   9.627 -0.0976 -0.1993  0.0541
   46loPI   C2A  728   3.879   6.274   9.254  0.1140  0.0637  0.1277
   46loPI   C3A  729   3.932   6.418   8.741  0.2662  0.5856 -0.1744
   46loPI   C4A  730   3.794   6.366   8.358  0.4153  0.0057 -0.1973
   46loPI   C5A  731   3.753   5.968   8.104  0.0448  0.1347  0.0120
   46loPI   C6A  732   3.541   5.912   7.691  0.0824  0.0015  0.0701
   46loPI   C1B  733   4.300   6.462   9.945 -0.0158  0.1493 -0.2140
   46loPI   C2B  734   4.407   6.554   9.492 -0.3120 -0.0225 -0.1545
   46loPI   C3B  735   4.469   6.486   9.100  0.0593 -0.3391  0.1321
   46loPI   C4B  736   4.567   6.405   8.765  0.2471  0.4681  0.0011
   47loPI    C1  737  11.827  17.876  10.518 -0.1858 -0.0045 -0.0768
   47loPI    C2  738  11.721  17.927  10.901  0.1155 -0.2819  0.0486
   47loPI    C3  739  11.564  17.626  10.688 -0.0476 -0.1311 -0.0466
   47loPI   PO4  740  11.781  18.099  10.433 -0.0266 -0.1363 -0.0129
   47loPI   GL1  741  11.755  18.254  10.013 -0.2925  0.0071  0.0091
   47loPI   GL2  742  11.467  18.284   9.769  0.2746  0.0699 -0.0154
   47loPI   C1A  743  11.844  18.495   9.621  0.0421 -0.0760 -0.4687
   47loPI   C2A  744  11.962  18.621   9.164  0.0329  0.1396 -0.3181
   47loPI   C3A  745  12.120  18.619   8.791 -0.1667 -0.2339 -0.1782
   47loPI   C4A  746  12.222  18.631   8.416 -0.1161  0.0513 -0.2157
   47loPI   C5A  747  12.193  18.880   7.995  0.1111 -0.2875  0.1105
   47loPI   C6A  748  12.415  19.184   7.736 -0.0036 -0.0117  0.0149
   47loPI   C1B  749  11.391  18.409   9.370  0.0116  0.2897 -0.1699
   47loPI   C2B  750  11.483  18.527   9.015 -0.3051 -0.0728  0.1319
   47loPI   C3B  751  11.605  18.546   8.607 -0.0593  0.0331  0.4117
   47loPI   C4B  752  11.782  18.619   8.105  0.0063 -0.0013 -0.0941
   48loPI    C1  753  16.539  15.582  10.857  0.3029  0.0248  0.0412
   48loPI    C2  754  16.755  15.380  11.126 -0.0242 -0.3456  0.0349
   48loPI    C3  755  16.383  15.499  11.216  0.1401  0.2115  0.0156
   48loPI   PO4  756  16.575  15.536  10.651 -0.0751 -0.1561  0.0909
   48loPI   GL1  757  16.517  15.561  10.187 -0.1183  0.1804  0.1079
   48loPI   GL2  758  16.498  15.717   9.934 -0.0902 -0.0854  0.1067
   48loPI   C1A  759  16.891  15.413   9.842  0.1704 -0.3452  0.0500
   48loPI   C2A  760  17.018  15.314   9.498 -0.1956  0.0145  0.2323
   48loPI   C3A  761  17.017  15.243   9.025  0.1077 -0.1052  0.1169
   48loPI   C4A  762  17.084  15.222   8.689 -0.5747 -0.0160 -0.3521
   48loPI   C5A  763  17.258  15.330   8.272  0.0010  0.1403 -0.1890
   48loPI   C6A  764  17.440  15.612   7.881 -0.0042 -0.0231  0.1824
   48loPI   C1B  765  16.755  15.798   9.622  0.2116  0.1696 -0.0038
   48loPI   C2B  766  16.696  15.845   9.225  0.3429  0.2261  0.0676
   48loPI   C3B  767  16.827  15.788   8.844  0.1797 -0.2084 -0.0373
   48loPI   C4B  768  17.060  15.765   8.365  0.3374 -0.0833  0.0073
   49loPI    C1  769  15.397   3.862  11.075 -0.0621  0.1350 -0.0956
   49loPI    C2  770  15.302   4.175  11.306 -0.2413 -0.0918  0.1430
   49loPI    C3  771  15.226   3.802  11.432 -0.0378 -0.2332 -0.1419
   49loPI   PO4  772  15.591   3.839  10.994 -0.2278 -0.1311  0.0013
   49loPI   GL1  773  15.861   3.843  10.613 -0.0907  0.1225 -0.2343
   49loPI   GL2  774  15.532   3.884  10.468 -0.0715 -0.3050 -0.1901
   49loPI   C1A  775  16.072   4.230  10.380 -0.1417 -0.1040 -0.0195
   49loPI   C2A  776  16.128   4.288  10.030 -0.0945 -0.0997  0.2045
   49loPI   C3A  777  16.121   4.222   9.592  0.2953 -0.1230  0.4981
   49loPI   C4A  778  16.274   4.405   9.126 -0.0782  0.0220  0.0055
   49loPI   C5A  779  16.235   4.401   8.770 -0.1106  0.3075  0.1283
   49loPI   C6A  780  15.971   4.506   8.418 -0.0497  0.1719 -0.1388
   49loPI   C1B  781  15.751   3.864  10.015  0.0363 -0.1086 -0.1700
   49loPI   C2B  782  15.893   3.796   9.560 -0.1549  0.0167  0.0415
   49loPI   C3B  783  15.967   4.002   9.187  0.2185  0.0665 -0.3780
   49loPI   C4B  784  16.028   3.956   8.690  0.4869 -0.2177 -0.0070
   50loPI    C1  785  12.852   1.728  10.763  0.1826  0.0584  0.2041
   50loPI    C2  786  13.156   1.963  10.872  0.1947  0.0838  0.1165
   50loPI    C3  787  13.081   1.626  11.075  0.3249  0.0412  0.0949
   50loPI   PO4  788  12.779   1.692  10.472  0.2153 -0.0479  0.0711
   50loPI   GL1  789  12.937   1.479  10.173 -0.0295 -0.0446  0.0150
   50loPI   GL2  790  12.668   1.597   9.930  0.0091  0.0668  0.1698
   50loPI   C1A  791  13.186   1.633   9.843 -0.3078 -0.1366  0.2034
   50loPI   C2A  792  13.391   1.678   9.502  0.0314 -0.0978  0.2343
   50loPI   C3A  793  13.439   1.676   9.094 -0.0434 -0.2579  0.0193
   50loPI   C4A  794  13.529   1.703   8.654 -0.3498  0.1614 -0.2565
   50loPI   C5A  795  13.499   1.744   8.259  0.0340  0.0904  0.2367
   50loPI   C6A  796  13.269   1.745   7.824 -0.1950  0.1477  0.0609
   50loPI   C1B  797  12.709   1.604   9.562 -0.3092 -0.1104 -0.1571
   50loPI   C2B  798  12.937   1.658   9.225 -0.2891  0.0021  0.2319
   50loPI   C3B  799  12.936   1.594   8.780  0.0017 -0.0358  0.1365
   50loPI   C4B  800  12.997   1.730   8.399  0.0390 -0.1852 -0.0900
   51loPI    C1  801  15.356   2.744  10.975 -0.0684 -0.0497 -0.2152
   51loPI    C2  802  15.615   2.443  10.927  0.1114  0.0792 -0.0680
   51loPI    C3  803  15.421   2.487  11.274  0.1425  0.1768 -0.0629
   51loPI   PO4  804  15.480   2.921  10.845 -0.0355  0.1427  0.3329
   51loPI   GL1  805  15.749   2.893  10.555 -0.0620 -0.2117  0.2041
   51loPI   GL2  806  15.904   2.691  10.481  0.1362  0.0111 -0.0496
   51loPI   C1A  807  15.698   2.916  10.051 -0.1033 -0.0797 -0.0043
   51loPI   C2A  808  15.787   2.902   9.541  0.1622  0.0105  0.2912
   51loPI   C3A  809  15.847   3.072   9.076 -0.0526  0.1608 -0.1383
   51loPI   C4A  810  15.900   3.053   8.628  0.0718 -0.4498 -0.0372
   51loPI   C5A  811  16.169   3.097   8.229  0.0959 -0.3581  0.0654
   51loPI   C6A  812  16.197   3.383   7.943 -0.0479 -0.1525 -0.0723
   51loPI   C1B  813  15.963   2.481  10.135  0.1394  0.4642  0.1442
   51loPI   C2B  814  15.979   2.280   9.746 -0.2733 -0.0574 -0.0099
   51loPI   C3B  815  15.994   2.431   9.423 -0.2996  0.0313 -0.1202
   51loPI   C4B  816  16.066   2.621   8.945 -0.1531  0.2762  0.1882
   52loPI    C1  817  16.430  10.755  11.181  0.1743  0.2337 -0.1536
   52loPI    C2  818  16.683  10.532  11.397 -0.1012  0.0532 -0.0105
   52loPI    C3  819  16.443  10.795  11.579  0.0159  0.2612 -0.1507
   52loPI   PO4  820  16.526  10.783  10.871 -0.3028 -0.3326 -0.1180
   52loPI   GL1  821  16.473  10.763  10.427  0.0957 -0.4640  0.0479
   52loPI   GL2  822  16.502  10.505  10.462  0.2134  0.0236 -0.1413
   52loPI   C1A  823  16.786  10.705  10.165  0.1785 -0.0130 -0.3466
   52loPI   C2A  824  16.812  10.718   9.754  0.3185  0.0700  0.4157
   52loPI   C3A  825  16.817  10.693   9.300  0.1234 -0.2715  0.1486
   52loPI   C4A  826  16.864  10.693   8.892  0.0165  0.2088 -0.3824
   52loPI   C5A  827  16.809  10.466   8.474  0.3897 -0.1399  0.0216
   52loPI   C6A  828  17.109  10.405   8.121  0.1638  0.0749  0.1522
   52loPI   C1B  829  16.526  10.263  10.089 -0.3609 -0.2172  0.0775
   52loPI   C2B  830  16.482  10.292   9.716 -0.4152  0.1159  0.0731
   52loPI   C3B  831  16.611  10.239   9.352  0.2736 -0.1562  0.1085
   52loPI   C4B  832  16.621  10.293   8.957 -0.2910  0.0577 -0.0687
   53loPI    C1  833  10.351  13.603   9.997  0.1254  0.0707 -0.0664
   53loPI    C2  834  10.700  13.783  10.077  0.0290  0.1471  0.1924
   53loPI    C3  835  10.412  13.772  10.354 -0.0669 -0.1739  0.0854
   53loPI   PO4  836  10.303  13.660   9.780 -0.0872  0.1691  0.3508
   53loPI   GL1  837  10.113  13.506   9.416 -0.0483 -0.1942  0.1926
   53loPI   GL2  838  10.296  13.770   9.300 -0.0015  0.0906 -0.0799
   53loPI   C1A  839   9.905  13.403   9.103 -0.0535  0.1556 -0.1847
   53loPI   C2A  840   9.922  13.359   8.777  0.0020 -0.2286  0.0950
   53loPI   C3A  841   9.865  13.494   8.386  0.0020 -0.1001 -0.1650
   53loPI   C4A  842  10.106  13.734   8.132  0.0234 -0.1243 -0.0876
   53loPI   C5A  843  10.087  14.014   7.742  0.0328 -0.2156 -0.0121
   53loPI   C6A  844   9.776  14.088   7.444 -0.0437 -0.4148 -0.3364
   53loPI   C1B  845  10.341  13.671   8.890  0.1882 -0.3688  0.2707
   53loPI   C2B  846  10.490  13.639   8.504 -0.3858 -0.0879  0.1018
   53loPI   C3B  847  10.543  13.575   8.062 -0.2087  0.2538  0.1643
   53loPI   C4B  848  10.410  13.700   7.598 -0.0455 -0.2768 -0.2772
   54loPI    C1  849   9.565  16.481  10.282 -0.1844 -0.0327 -0.0464
   54loPI    C2  850   9.605  16.779  10.547 -0.1730 -0.0869  0.0133
   54loPI    C3  851   9.435  16.434  10.658 -0.3179 -0.0512 -0.0943
   54loPI   PO4  852   9.563  16.578  10.047 -0.0704 -0.0881 -0.1341
   54loPI   GL1  853   9.504  16.438   9.627 -0.0346 -0.4410 -0.2430
   54loPI   GL2  854   9.879  16.476   9.549 -0.5426  0.0166 -0.1015
   54loPI   C1A  855   9.546  16.523   9.145 -0.0587  0.1403  0.0277
   54loPI   C2A  856   9.374  16.527   8.775  0.0335 -0.2040  0.1804
   54loPI   C3A  857   9.403  16.646   8.361  0.2509  0.1388  0.2268
   54loPI   C4A  858   9.461  16.889   7.941 -0.1440 -0.1613  0.2337
   54loPI   C5A  859   9.644  17.144   7.723  0.1567  0.3785  0.1059
   54loPI   C6A  860   9.822  17.461   7.862  0.1322 -0.0959 -0.1614
   54loPI   C1B  861  10.030  16.525   9.063 -0.0622 -0.2217 -0.0858
   54loPI   C2B  862   9.871  16.499   8.673  0.2368 -0.2032 -0.3162
   54loPI   C3B  863  10.069  16.521   8.329  0.1834 -0.0200  0.0938
   54loPI   C4B  864  10.416  16.409   7.912  0.0853 -0.2972 -0.0980
   55loPI    C1  865   6.999   1.100  10.275  0.1012 -0.0042  0.0533
   55loPI    C2  866   6.785   1.415  10.399  0.4521  0.2971 -0.0856
   55loPI    C3  867   6.895   1.132  10.660 -0.0135  0.1938  0.0075
   55loPI   PO4  868   6.856   1.060   9.984 -0.0625  0.0262  0.0599
   55loPI   GL1  869   6.844   0.993   9.574 -0.1630  0.0025 -0.1109
   55loPI   GL2  870   7.172   0.841   9.497  0.1487 -0.2248  0.1202
   55loPI   C1A  871   6.687   1.013   9.134  0.1198  0.4035 -0.0741
   55loPI   C2A  872   6.574   1.012   8.677 -0.1668  0.1223 -0.1051
   55loPI   C3A  873   6.657   0.907   8.269 -0.1816  0.3331 -0.1089
   55loPI   C4A  874   6.683   1.018   7.740 -0.3834 -0.0893  0.0651
   55loPI   C5A  875   6.925   1.102   7.366  0.0202  0.2131 -0.0846
   55loPI   C6A  876   7.191   0.860   7.133 -0.0211 -0.1127  0.0704
   55loPI   C1B  877   7.171   0.795   9.057  0.1958 -0.2994 -0.0914
   55loPI   C2B  878   7.111   0.961   8.700 -0.0483 -0.2962  0.2688
   55loPI   C3B  879   7.149   1.044   8.233  0.2441 -0.1968  0.1343
   55loPI   C4B  880   7.171   1.084   7.810  0.2495 -0.1297  0.0672
   56loPI    C1  881   0.270  13.030  11.123 -0.0758 -0.0567 -0.0764
   56loPI    C2  882   0.477  13.353  11.235 -0.0606 -0.0829 -0.0283
   56loPI    C3  883   0.120  13.278  11.398 -0.0749 -0.0773 -0.0572
   56loPI   PO4  884   0.261  13.026  10.826  0.1466 -0.3670  0.5014
   56loPI   GL1  885   0.423  13.139  10.424  0.3884  0.3817 -0.0095
   56loPI   GL2  886   0.379  13.530  10.287  0.1271  0.0578  0.2011
   56loPI   C1A  887   0.580  12.939  10.074 -0.2383 -0.2085 -0.1495
   56loPI   C2A  888   0.507  12.942   9.653 -0.0658 -0.2266 -0.1242
   56loPI   C3A  889   0.424  12.961   9.151 -0.2460 -0.2112 -0.1236
   56loPI   C4A  890   0.261  12.844   8.780  0.1134 -0.0116  0.0432
   56loPI   C5A  891   0.210  13.029   8.365  0.0206 -0.3371  0.1982
   56loPI   C6A  892  -0.050  13.360   8.192 -0.0297 -0.0432 -0.2506
   56loPI   C1B  893   0.172  13.667   9.935 -0.1213  0.1606 -0.1883
   56loPI   C2B  894   0.111  13.605   9.445  0.0286 -0.2876 -0.0669
   56loPI   C3B  895   0.077  13.465   9.051 -0.0219 -0.3165 -0.0566
   56loPI   C4B  896   0.013  13.322   8.727  0.1497  0.1455  0.2290
   57loPI    C1  897  12.919  12.785  10.251 -0.1813 -0.2765 -0.1371
   57loPI    C2  898  12.578  12.757  10.045 -0.2422  0.0799 -0.0913
   57loPI    C3  899  12.630  13.056  10.306 -0.0222 -0.1593  0.1449
   57loPI   PO4  900  13.084  12.838  10.033 -0.0464 -0.1425 -0.1997
   57loPI   GL1  901  13.106  12.585   9.621 -0.0655 -0.1361 -0.0258
   57loPI   GL2  902  12.831  12.655   9.653  0.2614  0.0147  0.0200
   57loPI   C1A  903  13.185  12.536   9.163 -0.1453 -0.2603 -0.0551
   57loPI   C2A  904  13.198  12.447   8.793  0.0659 -0.0758 -0.0802
   57loPI   C3A  905  13.291  12.406   8.341 -0.0973 -0.1490 -0.2073
   57loPI   C4A  906  13.320  12.249   8.002 -0.3072  0.1670 -0.0980
   57loPI   C5A  907  13.436  12.267   7.636  0.0218  0.2106  0.1269
   57loPI   C6A  908  13.658  12.212   7.183  0.0749 -0.1269  0.0766
   57loPI   C1B  909  12.721  12.566   9.235 -0.0849 -0.4016  0.2639
   57loPI   C2B  910  12.697  12.540   8.796  0.3213 -0.3175 -0.2293
   57loPI   C3B  911  12.670  12.779   8.471  0.3390 -0.1834 -0.1210
   57loPI   C4B  912  12.608  12.686   8.066  0.2324 -0.2290 -0.0922
   58loPI    C1  913   8.824  16.936  10.195 -0.1143  0.1772  0.1263
   58loPI    C2  914   8.716  16.562  10.285  0.0674  0.0988  0.0244
   58loPI    C3  915   9.079  16.694  10.386  0.1054  0.1574 -0.1858
   58loPI   PO4  916   8.733  16.962   9.985  0.0346  0.1777  0.0958
   58loPI   GL1  917   8.459  16.844   9.714  0.0064 -0.1425  0.2541
   58loPI   GL2  918   8.182  16.999   9.748 -0.1810  0.2278  0.2804
   58loPI   C1A  919   8.559  16.711   9.330  0.2021 -0.1581  0.0125
   58loPI   C2A  920   8.480  16.783   9.003 -0.1964  0.2303  0.1145
   58loPI   C3A  921   8.413  16.562   8.653 -0.1435 -0.2180  0.1213
   58loPI   C4A  922   8.391  16.503   8.272  0.1536  0.2562  0.0614
   58loPI   C5A  923   8.531  16.448   7.815  0.0873  0.1757  0.0513
   58loPI   C6A  924   8.312  16.124   7.481 -0.1078  0.0947 -0.3722
   58loPI   C1B  925   8.052  16.945   9.245  0.2431  0.1614  0.1038
   58loPI   C2B  926   7.990  16.944   8.752 -0.0746  0.0070 -0.1318
   58loPI   C3B  927   8.105  16.950   8.303 -0.1222  0.4002  0.3112
   58loPI   C4B  928   8.292  17.188   7.974 -0.0952 -0.0551  0.0128
   59loPI    C1  929  16.327   4.486  11.112  0.1841  0.1180 -0.1796
   59loPI    C2  930  16.581   4.567  11.410 -0.0461  0.1796  0.0029
   59loPI    C3  931  16.209   4.714  11.419 -0.1090  0.0397 -0.2311
   59loPI   PO4  932  16.459   4.478  10.854 -0.0946  0.3309 -0.1888
   59loPI   GL1  933  16.395   4.686  10.487 -0.0258  0.2835 -0.0992
   59loPI   GL2  934  16.073   4.711  10.608  0.1474 -0.2861  0.2941
   59loPI   C1A  935  16.417   4.717  10.064  0.2907 -0.0908 -0.1140
   59loPI   C2A  936  16.432   4.729   9.614 -0.1624 -0.3599  0.0749
   59loPI   C3A  937  16.570   4.791   9.248  0.1122  0.1422  0.1597
   59loPI   C4A  938  16.500   4.800   8.821  0.0472  0.1878  0.0116
   59loPI   C5A  939  16.374   4.836   8.319 -0.0357 -0.0571  0.0740
   59loPI   C6A  940  16.224   5.180   7.997  0.1599 -0.0435  0.1297
   59loPI   C1B  941  15.953   4.795  10.179  0.0835  0.1011 -0.1328
   59loPI   C2B  942  15.922   4.742   9.694 -0.1396 -0.2652  0.2201
   59loPI   C3B  943  15.993   4.859   9.202  0.3045 -0.0630  0.0035
   59loPI   C4B  944  16.007   4.884   8.792  0.5029 -0.0600 -0.1111
   60loPI    C1  945   8.844  13.375  10.142 -0.3022  0.2330 -0.1249
   60loPI    C2  946   9.013  13.096  10.373 -0.3693  0.0599 -0.2821
   60loPI    C3  947   8.872  13.433  10.537 -0.0009  0.1454 -0.1311
   60loPI   PO4  948   8.740  13.202   9.950 -0.0881 -0.1256  0.1119
   60loPI   GL1  949   8.523  13.152   9.565 -0.1565 -0.2601 -0.0490
   60loPI   GL2  950   8.742  13.409   9.461  0.0894 -0.2901 -0.1189
   60loPI   C1A  951   8.540  12.999   9.120  0.3618  0.1024 -0.1351
   60loPI   C2A  952   8.599  12.867   8.631 -0.1063 -0.0797  0.0619
   60loPI   C3A  953   8.377  12.796   8.361  0.1354  0.2558  0.2683
   60loPI   C4A  954   8.234  13.043   7.963  0.3112  0.1463  0.1548
   60loPI   C5A  955   8.542  13.263   7.581 -0.1593 -0.0883  0.0444
   60loPI   C6A  956   8.840  13.123   7.232 -0.0418  0.1537  0.1194
   60loPI   C1B  957   8.934  13.411   9.123 -0.0215 -0.1851 -0.0149
   60loPI   C2B  958   9.042  13.235   8.665  0.0965 -0.1708 -0.0880
   60loPI   C3B  959   9.241  13.065   8.335 -0.1547 -0.0807 -0.5089
   60loPI   C4B  960   9.638  13.121   8.154 -0.2563  0.1072  0.2856
   61loPI    C1  961  13.931  10.263  10.716  0.2963  0.1017 -0.0247
   61loPI    C2  962  14.192  10.357  11.004  0.2204  0.0325  0.0674
   61loPI    C3  963  13.958  10.035  11.043  0.3265 -0.0725 -0.1470
   61loPI   PO4  964  13.824  10.483  10.573 -0.2454 -0.0144 -0.0079
   61loPI   GL1  965  13.861  10.512  10.044  0.1929  0.1847 -0.0373
   61loPI   GL2  966  13.732  10.686   9.873 -0.4036  0.1563 -0.0856
   61loPI   C1A  967  13.994  10.352   9.626 -0.3330 -0.0554 -0.1556
   61loPI   C2A  968  13.991  10.317   9.204 -0.2675  0.1192  0.0299
   61loPI   C3A  969  14.132  10.294   8.786 -0.2919 -0.1055  0.1580
   61loPI   C4A  970  14.121  10.270   8.342 -0.1213  0.1396 -0.1085
   61loPI   C5A  971  14.192   9.824   8.078 -0.1446 -0.0268 -0.3751
   61loPI   C6A  972  14.470   9.543   8.211  0.0061  0.3497  0.1674
   61loPI   C1B  973  13.780  10.744   9.421 -0.1720  0.0497  0.0215
   61loPI   C2B  974  13.921  10.763   9.005  0.0315  0.3483 -0.0317
   61loPI   C3B  975  13.895  10.679   8.488  0.0285  0.1950 -0.1118
   61loPI   C4B  976  13.604  10.571   8.191 -0.0433  0.1894 -0.0052
   62loPI    C1  977  14.201  16.495  10.279  0.0810  0.0910  0.1611
   62loPI    C2  978  14.114  16.871  10.384  0.1105  0.1196  0.0839
   62loPI    C3  979  14.036  16.570  10.636 -0.1789  0.1473  0.0318
   62loPI   PO4  980  14.384  16.506  10.040 -0.0409  0.0489  0.2710
   62loPI   GL1  981  14.522  16.679   9.796  0.1447 -0.0788 -0.0242
   62loPI   GL2  982  14.522  16.889   9.578 -0.4401  0.3463 -0.1113
   62loPI   C1A  983  14.605  16.345   9.416  0.0962 -0.1225  0.2431
   62loPI   C2A  984  14.770  16.187   9.030 -0.0226  0.1138  0.0099
   62loPI   C3A  985  14.878  16.379   8.676 -0.3851 -0.2054  0.1795
   62loPI   C4A  986  14.932  16.234   8.283 -0.1116 -0.1919  0.0395
   62loPI   C5A  987  14.921  16.168   7.822 -0.0863 -0.0427 -0.0477
   62loPI   C6A  988  14.831  16.171   7.422  0.0510  0.1020  0.0356
   62loPI   C1B  989  14.498  16.801   9.148  0.2448 -0.0072 -0.0554
   62loPI   C2B  990  14.567  16.718   8.814  0.2633 -0.0011 -0.0341
   62loPI   C3B  991  14.705  16.762   8.425 -0.0666  0.0580 -0.1635
   62loPI   C4B  992  14.787  16.642   8.083  0.1224  0.0219  0.1440
   63loPI    C1  993   4.089   1.061  10.195 -0.1232  0.0664  0.0329
   63loPI    C2  994   4.397   0.962  10.431 -0.0920 -0.0617 -0.0602
   63loPI    C3  995   4.033   1.010  10.588 -0.0185  0.1274  0.0562
   63loPI   PO4  996   4.204   1.089   9.999 -0.0087 -0.1587 -0.0728
   63loPI   GL1  997   4.510   1.078   9.730  0.1483 -0.0985  0.0725
   63loPI   GL2  998   4.566   1.306   9.668 -0.2900 -0.0771 -0.1382
   63loPI   C1A  999   4.742   0.772   9.423 -0.1548  0.1222 -0.0394
   63loPI   C2A 1000   4.826   0.697   8.960 -0.1289 -0.1769  0.0813
   63loPI   C3A 1001   4.711   0.739   8.578 -0.4113 -0.1325  0.0760
   63loPI   C4A 1002   4.459   0.709   8.237  0.1776  0.2008 -0.2345
   63loPI   C5A 1003   3.948   0.789   8.167  0.3977 -0.0441  0.0155
   63loPI   C6A 1004   3.622   0.905   8.439  0.1253 -0.1644 -0.1722
   63loPI   C1B 1005   4.354   1.093   9.211 -0.0540  0.1183  0.1516
   63loPI   C2B 1006   3.993   1.273   9.018 -0.1928 -0.1985 -0.1539
   63loPI   C3B 1007   3.922   1.314   8.624  0.1361  0.0759 -0.1167
   63loPI   C4B 1008   3.837   1.299   8.228  0.1281 -0.0296 -0.2471
   64loPI    C1 1009   0.138   0.545  10.867  0.0112  0.1201 -0.0760
   64loPI    C2 1010   0.268   0.274  11.131 -0.1373 -0.0520 -0.1771
   64loPI    C3 1011   0.193   0.648  11.250 -0.3529 -0.1670  0.0613
   64loPI   PO4 1012   0.039   0.363  10.639  0.0579  0.3361  0.3934
   64loPI   GL1 1013  -0.110   0.255  10.272  0.2632 -0.0001  0.0342
   64loPI   GL2 1014   0.219   0.176  10.192 -0.2238  0.3043  0.0020
   64loPI   C1A 1015  -0.084   0.128   9.790 -0.3271  0.1362 -0.0000
   64loPI   C2A 1016  -0.166   0.121   9.349 -0.0730  0.2179  0.1023
   64loPI   C3A 1017  -0.258   0.172   8.891 -0.0914 -0.1386 -0.1981
   64loPI   C4A 1018  -0.280   0.191   8.495 -0.0338 -0.3017  0.2120
   64loPI   C5A 1019  -0.242   0.190   7.945  0.2680  0.0605  0.0626
   64loPI   C6A 1020  -0.217   0.203   7.456 -0.0566  0.1388  0.0974
   64loPI   C1B 1021   0.384   0.065   9.836 -0.3341  0.3119  0.0336
   64loPI   C2B 1022   0.317   0.162   9.402  0.1038 -0.1523  0.1146
   64loPI   C3B 1023   0.332   0.095   9.045 -0.1466 -0.1449 -0.1073
   64loPI   C4B 1024   0.219   0.127   8.620 -0.3323  0.0522 -0.0178
   65loPI    C1 1025   2.963  14.049  10.724  0.1341  0.2965 -0.0144
   65loPI    C2 1026   3.316  14.144  10.887  0.0390  0.1449  0.2882
   65loPI    C3 1027   3.010  14.035  11.121 -0.0160 -0.3692 -0.0067
   65loPI   PO4 1028   2.970  14.114  10.413  0.2999 -0.0157  0.1345
   65loPI   GL1 1029   3.058  14.089   9.944 -0.0592  0.1335 -0.1054
   65loPI   GL2 1030   3.341  13.889   9.795  0.2059  0.1204 -0.0293
   65loPI   C1A 1031   2.886  13.997   9.517  0.1082 -0.1104 -0.0229
   65loPI   C2A 1032   2.918  13.880   9.127 -0.0776 -0.5157 -0.1196
   65loPI   C3A 1033   3.004  13.836   8.687  0.0212  0.2534 -0.3043
   65loPI   C4A 1034   2.947  13.690   8.281 -0.0949 -0.1901 -0.1808
   65loPI   C5A 1035   2.684  13.885   7.912  0.1143 -0.1597  0.0004
   65loPI   C6A 1036   2.473  14.251   7.700 -0.1679 -0.0618  0.0652
   65loPI   C1B 1037   3.509  13.889   9.420  0.1825  0.2361 -0.1744
   65loPI   C2B 1038   3.455  13.865   8.964 -0.0815 -0.1330  0.0846
   65loPI   C3B 1039   3.440  13.725   8.568  0.0779  0.0388 -0.0062
   65loPI   C4B 1040   3.536  13.685   8.079  0.1590 -0.1987  0.0821
   66loPI    C1 1041  12.974  17.063  10.160 -0.1804 -0.2217 -0.0324
   66loPI    C2 1042  13.115  16.936  10.512  0.0836 -0.1075 -0.0943
   66loPI    C3 1043  12.727  17.026  10.472  0.0249 -0.2550  0.1280
   66loPI   PO4 1044  13.085  16.866  10.020 -0.0923 -0.0840 -0.3179
   66loPI   GL1 1045  13.064  16.901   9.656  0.2001 -0.0415 -0.0744
   66loPI   GL2 1046  13.275  16.623   9.594  0.0723 -0.1300  0.0081
   66loPI   C1A 1047  12.946  17.007   9.200  0.2628  0.1705 -0.0886
   66loPI   C2A 1048  12.829  17.105   8.827 -0.1591  0.4657  0.0171
   66loPI   C3A 1049  12.775  17.214   8.442  0.0538 -0.1900 -0.0549
   66loPI   C4A 1050  12.790  17.384   8.057 -0.0310  0.1480 -0.1913
   66loPI   C5A 1051  12.685  17.553   7.676  0.3669 -0.1894 -0.1698
   66loPI   C6A 1052  12.658  18.051   7.618  0.2756  0.1761 -0.0131
   66loPI   C1B 1053  13.139  16.543   9.124 -0.1638  0.2706 -0.2169
   66loPI   C2B 1054  13.071  16.644   8.786 -0.0754  0.0371 -0.0702
   66loPI   C3B 1055  12.947  16.733   8.316 -0.0639  0.0511 -0.0694
   66loPI   C4B 1056  12.640  16.883   8.093  0.1622 -0.0419  0.2579
   67loPI    C1 1057   3.153  10.212  10.288  0.2781  0.1807 -0.0290
   67loPI    C2 1058   3.531  10.106  10.365  0.0986 -0.3022  0.2252
   67loPI    C3 1059   3.261  10.116  10.661 -0.1146 -0.0657  0.0273
   67loPI   PO4 1060   3.194  10.394  10.056 -0.1947  0.2487 -0.2895
   67loPI   GL1 1061   3.197  10.709   9.681 -0.0420 -0.0914 -0.1249
   67loPI   GL2 1062   3.388  10.385   9.642  0.4698  0.1468  0.0192
   67loPI   C1A 1063   3.354  10.615   9.253  0.2923 -0.0732  0.0221
   67loPI   C2A 1064   3.170  10.541   8.880  0.0568  0.0991  0.0330
   67loPI   C3A 1065   3.015  10.521   8.466  0.0036 -0.3403 -0.0439
   67loPI   C4A 1066   2.919  10.469   8.078  0.2501  0.1380  0.0886
   67loPI   C5A 1067   3.100  10.345   7.653 -0.1784  0.2582 -0.1176
   67loPI   C6A 1068   3.420  10.147   7.446 -0.1407  0.1162  0.0524
   67loPI   C1B 1069   3.570  10.169   9.347 -0.0756  0.1911 -0.1031
   67loPI   C2B 1070   3.448  10.078   8.954 -0.0746  0.1029 -0.3973
   67loPI   C3B 1071   3.312  10.167   8.560 -0.0203  0.0602  0.0090
   67loPI   C4B 1072   3.266  10.177   8.107  0.1166  0.2455 -0.0906
   68loPI    C1 1073  17.604   5.391  10.945 -0.0761 -0.0293 -0.0101
   68loPI    C2 1074  17.475   5.769  10.932 -0.2894 -0.1071 -0.2315
   68loPI    C3 1075  17.236   5.472  10.812 -0.0691 -0.2990 -0.2029
   68loPI   PO4 1076  17.893   5.406  10.773 -0.2851  0.2551 -0.1376
   68loPI   GL1 1077  18.015   5.390  10.344  0.1899 -0.2146 -0.1268
   68loPI   GL2 1078  17.985   5.081  10.380  0.1195  0.2430 -0.1490
   68loPI   C1A 1079  17.962   5.501   9.904  0.1929  0.4045 -0.0972
   68loPI   C2A 1080  18.033   5.608   9.498  0.0636  0.0414  0.1937
   68loPI   C3A 1081  18.071   5.627   9.146  0.1776 -0.2002 -0.1728
   68loPI   C4A 1082  18.010   5.589   8.692  0.2712  0.1324  0.1610
   68loPI   C5A 1083  17.972   5.845   8.360 -0.0227  0.4800 -0.2784
   68loPI   C6A 1084  17.708   6.172   8.048 -0.0733 -0.4704 -0.1012
   68loPI   C1B 1085  17.755   5.059  10.036 -0.4988  0.1191  0.0918
   68loPI   C2B 1086  17.838   5.097   9.598 -0.3056 -0.1261 -0.3306
   68loPI   C3B 1087  17.804   5.152   9.108  0.1994  0.0291 -0.3412
   68loPI   C4B 1088  17.766   5.144   8.626 -0.2077  0.1195  0.1152
   69loPI    C1 1089  16.067  10.051  11.156  0.1347  0.0174  0.0169
   69loPI    C2 1090  15.941  10.427  11.214  0.0140  0.0210 -0.2537
   69loPI    C3 1091  16.208  10.264  11.464 -0.0651  0.2256 -0.0330
   69loPI   PO4 1092  16.036  10.019  10.908  0.1562  0.3564 -0.0353
   69loPI   GL1 1093  16.086  10.033  10.561 -0.3227  0.1377  0.2235
   69loPI   GL2 1094  15.965  10.285  10.306  0.2325  0.1529 -0.2559
   69loPI   C1A 1095  16.240   9.877  10.059 -0.1030 -0.1626  0.0618
   69loPI   C2A 1096  16.314   9.860   9.630 -0.1162  0.2190  0.1097
   69loPI   C3A 1097  16.421   9.775   9.201  0.0713  0.1210  0.2035
   69loPI   C4A 1098  16.338   9.689   8.789 -0.0193  0.1969  0.1787
   69loPI   C5A 1099  16.352   9.628   8.376  0.0999  0.0428  0.0416
   69loPI   C6A 1100  16.343   9.197   8.149  0.0229 -0.1086  0.1169
   69loPI   C1B 1101  15.999  10.297   9.870 -0.4834  0.3049 -0.1484
   69loPI   C2B 1102  16.106  10.205   9.350  0.0474 -0.2209 -0.1274
   69loPI   C3B 1103  16.148  10.193   8.844  0.0160 -0.0248  0.3740
   69loPI   C4B 1104  16.406  10.195   8.446 -0.0682 -0.1894 -0.1157
   70loPI    C1 1105   0.994   8.844  10.957  0.0620 -0.1406  0.0576
   70loPI    C2 1106   1.362   8.911  11.100  0.0580 -0.1176  0.0572
   70loPI    C3 1107   1.082   8.751  11.336 -0.0158  0.1393  0.1468
   70loPI   PO4 1108   1.086   8.775  10.649 -0.2509  0.2124  0.0591
   70loPI   GL1 1109   1.006   8.761  10.177 -0.1213  0.0548  0.4689
   70loPI   GL2 1110   0.641   8.851  10.267  0.2899  0.1416 -0.1420
   70loPI   C1A 1111   1.143   8.637   9.693  0.0642 -0.1233  0.0436
   70loPI   C2A 1112   1.106   8.799   9.325  0.2210 -0.0154 -0.1550
   70loPI   C3A 1113   0.878   8.832   8.917  0.0021  0.0706 -0.1567
   70loPI   C4A 1114   0.967   8.904   8.446  0.0584 -0.0501 -0.3441
   70loPI   C5A 1115   0.700   9.003   8.104  0.1624  0.0721 -0.2310
   70loPI   C6A 1116   0.584   8.704   7.801 -0.1338 -0.2466 -0.1166
   70loPI   C1B 1117   0.549   8.840   9.845  0.0616  0.0780  0.2013
   70loPI   C2B 1118   0.495   8.815   9.401 -0.2308  0.1226 -0.0355
   70loPI   C3B 1119   0.450   8.652   8.993 -0.1585 -0.0152 -0.0756
   70loPI   C4B 1120   0.441   8.830   8.590  0.1203  0.0701 -0.3298
   71loPI    C1 1121   7.425  10.916   9.765 -0.0591 -0.1036 -0.0805
   71loPI    C2 1122   7.064  10.867   9.929  0.0222  0.1239  0.1745
   71loPI    C3 1123   7.101  11.056   9.578 -0.1378 -0.2210 -0.0327
   71loPI   PO4 1124   7.505  10.740   9.742  0.1671 -0.0838 -0.3518
   71loPI   GL1 1125   7.884  10.648   9.573 -0.1689 -0.0663 -0.4292
   71loPI   GL2 1126   7.929  10.911   9.434  0.1606  0.0735  0.2197
   71loPI   C1A 1127   7.978  10.309   9.338  0.2303  0.1744 -0.0593
   71loPI   C2A 1128   8.005  10.338   8.836 -0.1607 -0.1420  0.2401
   71loPI   C3A 1129   8.091  10.337   8.440 -0.0981  0.1737 -0.1382
   71loPI   C4A 1130   8.091  10.385   8.047  0.2874 -0.1649  0.3350
   71loPI   C5A 1131   8.110  10.133   7.546  0.3359 -0.1445 -0.1850
   71loPI   C6A 1132   8.031   9.902   7.226  0.1702 -0.2539 -0.0234
   71loPI   C1B 1133   7.839  10.755   8.975 -0.2268 -0.0061 -0.1317
   71loPI   C2B 1134   7.769  10.704   8.562 -0.1153 -0.1364 -0.0180
   71loPI   C3B 1135   7.743  10.728   8.088 -0.2958 -0.4052 -0.1861
   71loPI   C4B 1136   7.595  10.982   7.707  0.1044 -0.2894 -0.2516
   72loPI    C1 1137  15.548  10.244  10.680  0.1223 -0.0229  0.0139
   72loPI    C2 1138  15.178  10.210  10.826  0.1013 -0.1736 -0.0721
   72loPI    C3 1139  15.459  10.404  11.035 -0.0244 -0.0625 -0.0047
   72loPI   PO4 1140  15.569  10.014  10.581  0.0817 -0.0926  0.1389
   72loPI   GL1 1141  15.707   9.883  10.148 -0.3324 -0.1676  0.0144
   72loPI   GL2 1142  15.556   9.648  10.228 -0.0614  0.1045 -0.0016
   72loPI   C1A 1143  15.724   9.921   9.670 -0.2429 -0.0374 -0.2659
   72loPI   C2A 1144  15.839   9.763   9.236 -0.1258 -0.5464 -0.1807
   72loPI   C3A 1145  15.841   9.802   8.854  0.2073 -0.1481 -0.1546
   72loPI   C4A 1146  15.974   9.938   8.424 -0.0432  0.1731 -0.1757
   72loPI   C5A 1147  15.975  10.301   8.179 -0.1587  0.2002  0.0405
   72loPI   C6A 1148  15.933  10.667   7.960  0.0117 -0.0983 -0.1014
   72loPI   C1B 1149  15.573   9.404   9.816  0.0041  0.1111 -0.0818
   72loPI   C2B 1150  15.574   9.380   9.385 -0.3160 -0.0391 -0.4767
   72loPI   C3B 1151  15.631   9.293   8.892 -0.3781  0.3077  0.2426
   72loPI   C4B 1152  15.856   9.440   8.464  0.2518 -0.0326 -0.0902
   73loPI    C1 1153   9.815   3.150  10.307 -0.1753 -0.1142 -0.1649
   73loPI    C2 1154   9.952   2.784  10.393  0.0955  0.0457  0.1059
   73loPI    C3 1155   9.734   2.984  10.662  0.1275  0.1672  0.0425
   73loPI   PO4 1156  10.104   3.186  10.160  0.0774 -0.4581  0.1692
   73loPI   GL1 1157  10.388   3.154   9.771 -0.0160 -0.0541  0.3193
   73loPI   GL2 1158  10.055   3.167   9.611  0.1902 -0.0463  0.0021
   73loPI   C1A 1159  10.642   3.138   9.377 -0.2923  0.1596  0.0309
   73loPI   C2A 1160  10.659   2.921   8.946  0.2499 -0.4183  0.0809
   73loPI   C3A 1161  10.634   3.001   8.569 -0.1111  0.1085  0.1205
   73loPI   C4A 1162  10.314   3.014   8.312  0.1884  0.2364 -0.0925
   73loPI   C5A 1163  10.132   2.888   8.017 -0.1042 -0.0409 -0.0137
   73loPI   C6A 1164   9.848   3.049   7.712  0.3130  0.1118  0.4201
   73loPI   C1B 1165  10.211   3.242   9.177 -0.1268  0.0404  0.2504
   73loPI   C2B 1166  10.107   3.362   8.689  0.1031  0.3071 -0.0003
   73loPI   C3B 1167  10.143   3.453   8.268 -0.0614 -0.0659 -0.0408
   73loPI   C4B 1168  10.315   3.795   8.082  0.1633 -0.2195  0.3863
   74loPI    C1 1169  13.242   7.649  10.884 -0.0957  0.0082 -0.1265
   74loPI    C2 1170  13.508   7.931  10.983 -0.0123 -0.1091 -0.0141
   74loPI    C3 1171  13.141   8.036  10.862  0.0451  0.0495 -0.0528
   74loPI   PO4 1172  13.272   7.534  10.705  0.2415 -0.0701 -0.0058
   74loPI   GL1 1173  13.632   7.599  10.523 -0.1527 -0.1555  0.1667
   74loPI   GL2 1174  13.607   7.902  10.478  0.0160 -0.0672  0.3375
   74loPI   C1A 1175  13.380   7.584  10.141 -0.0575  0.0322 -0.1597
   74loPI   C2A 1176  13.436   7.575   9.689  0.1570  0.1083  0.1245
   74loPI   C3A 1177  13.453   7.533   9.223 -0.3254 -0.1142 -0.2209
   74loPI   C4A 1178  13.633   7.557   8.825 -0.0186 -0.0751 -0.1206
   74loPI   C5A 1179  13.686   7.587   8.376  0.1294 -0.2380  0.0524
   74loPI   C6A 1180  13.427   7.731   8.047 -0.0440 -0.0978  0.2278
   74loPI   C1B 1181  13.583   8.080  10.074 -0.1911  0.1008 -0.1427
   74loPI   C2B 1182  13.715   7.951   9.642  0.0627  0.1813  0.2693
   74loPI   C3B 1183  13.766   7.963   9.189 -0.1642 -0.1398 -0.2402
   74loPI   C4B 1184  13.846   7.969   8.708  0.1479 -0.1196 -0.1061
   75loPI    C1 1185   3.498  11.044  10.196 -0.2295 -0.0218  0.0762
   75loPI    C2 1186   3.279  11.264  10.450 -0.1140  0.0760  0.0920
   75loPI    C3 1187   3.642  11.135  10.558 -0.1858 -0.1344  0.0874
   75loPI   PO4 1188   3.397  11.171   9.958  0.0259 -0.0391  0.1795
   75loPI   GL1 1189   3.414  11.465   9.641  0.0619 -0.3062  0.0071
   75loPI   GL2 1190   3.802  11.424   9.555  0.1777 -0.1180  0.2125
   75loPI   C1A 1191   3.171  11.400   9.392  0.0425 -0.1568 -0.0488
   75loPI   C2A 1192   3.173  11.333   8.946  0.2116 -0.0860 -0.2886
   75loPI   C3A 1193   3.216  11.440   8.574  0.1588  0.0097 -0.0728
   75loPI   C4A 1194   3.161  11.363   8.186  0.0422 -0.0760 -0.0908
   75loPI   C5A 1195   2.937  11.432   7.830 -0.2968  0.0994 -0.1219
   75loPI   C6A 1196   2.649  11.194   7.643  0.2278  0.0175  0.1271
   75loPI   C1B 1197   3.840  11.371   9.040  0.0442  0.1993  0.4263
   75loPI   C2B 1198   3.801  11.319   8.628 -0.0604  0.2543 -0.0329
   75loPI   C3B 1199   3.693  11.473   8.187  0.0029 -0.0162  0.2400
   75loPI   C4B 1200   3.499  11.699   7.891 -0.0936 -0.0349  0.0343
   76loPI    C1 1201   2.924   4.969  10.830 -0.0342  0.0299  0.0028
   76loPI    C2 1202   3.051   5.309  10.997  0.1783 -0.1955  0.3119
   76loPI    C3 1203   3.053   4.970  11.209 -0.1498 -0.3680  0.0476
   76loPI   PO4 1204   2.797   5.014  10.570  0.1456 -0.1057 -0.1225
   76loPI   GL1 1205   2.809   5.115  10.227  0.1293  0.3103 -0.0380
   76loPI   GL2 1206   2.872   4.900  10.105 -0.0346  0.1531  0.0853
   76loPI   C1A 1207   2.809   5.433   9.786 -0.1312  0.2138  0.3088
   76loPI   C2A 1208   2.821   5.493   9.383 -0.0755 -0.1256  0.4204
   76loPI   C3A 1209   2.889   5.580   8.919  0.1679 -0.1859 -0.0290
   76loPI   C4A 1210   2.863   5.652   8.456 -0.0278  0.6074  0.1205
   76loPI   C5A 1211   3.004   5.527   8.079 -0.0214  0.0067 -0.1247
   76loPI   C6A 1212   3.451   5.405   7.824  0.1131 -0.1121 -0.3316
   76loPI   C1B 1213   2.861   4.653   9.751 -0.2618  0.1909 -0.1196
   76loPI   C2B 1214   2.725   4.658   9.254 -0.0675  0.0585  0.0814
   76loPI   C3B 1215   2.616   4.638   8.805  0.3690 -0.0762 -0.1301
   76loPI   C4B 1216   2.647   4.664   8.389  0.0762  0.1094  0.0115
   77loPI    C1 1217  17.407   4.135  11.064 -0.1051  0.0001 -0.0478
   77loPI    C2 1218  17.669   4.030  11.347 -0.0665 -0.4113 -0.2291
   77loPI    C3 1219  17.338   4.231  11.446  0.0130 -0.4310  0.0881
   77loPI   PO4 1220  17.508   4.308  10.823  0.2636 -0.0051  0.4037
   77loPI   GL1 1221  17.304   4.177  10.452  0.0492 -0.0476  0.0002
   77loPI   GL2 1222  17.567   4.186  10.330 -0.3417 -0.0772  0.1282
   77loPI   C1A 1223  17.148   4.144  10.024  0.3589  0.0636 -0.1982
   77loPI   C2A 1224  17.162   4.218   9.640 -0.1086  0.2725  0.2951
   77loPI   C3A 1225  17.202   4.238   9.128 -0.1865 -0.0798  0.0368
   77loPI   C4A 1226  17.201   4.308   8.767 -0.1193 -0.1769  0.0697
   77loPI   C5A 1227  17.443   4.528   8.433  0.3338  0.0147  0.0691
   77loPI   C6A 1228  17.543   4.896   8.269  0.0903 -0.0427 -0.1951
   77loPI   C1B 1229  17.655   4.231   9.897  0.1701 -0.1356 -0.1313
   77loPI   C2B 1230  17.809   4.264   9.375 -0.1305 -0.0029  0.2207
   77loPI   C3B 1231  17.675   4.263   8.921 -0.2904  0.3416 -0.2596
   77loPI   C4B 1232  17.684   4.081   8.508 -0.0965 -0.1220 -0.1462
   78loPI    C1 1233  15.007  14.924  10.598  0.1009  0.2180 -0.2644
   78loPI    C2 1234  14.926  14.784  10.964 -0.0154  0.2209 -0.2886
   78loPI    C3 1235  14.807  15.152  10.859  0.2430  0.3199 -0.2431
   78loPI   PO4 1236  14.997  14.769  10.452 -0.1091 -0.4066 -0.1080
   78loPI   GL1 1237  15.194  14.674  10.134 -0.0949 -0.1687 -0.0354
   78loPI   GL2 1238  15.065  14.394   9.874 -0.1256 -0.1068  0.1240
   78loPI   C1A 1239  15.460  14.738   9.730 -0.0434 -0.0338 -0.0862
   78loPI   C2A 1240  15.546  14.923   9.287  0.0753  0.1981  0.0016
   78loPI   C3A 1241  15.553  14.934   8.892  0.2052  0.2801  0.2554
   78loPI   C4A 1242  15.791  14.925   8.555 -0.0112  0.0502  0.1753
   78loPI   C5A 1243  15.703  14.637   8.244  0.2270 -0.0681 -0.1835
   78loPI   C6A 1244  15.672  14.326   7.977  0.4324  0.1591  0.1779
   78loPI   C1B 1245  15.297  14.346   9.403  0.1142 -0.0205  0.0392
   78loPI   C2B 1246  15.385  14.352   8.986 -0.0692  0.1866  0.2069
   78loPI   C3B 1247  15.413  14.506   8.646 -0.0958 -0.0391  0.0633
   78loPI   C4B 1248  15.217  14.446   8.196 -0.3414 -0.0752 -0.2349
   79loPI    C1 1249  17.470   0.226  10.678 -0.0339  0.1588 -0.1269
   79loPI    C2 1250  17.349   0.045  11.013  0.1046  0.0568 -0.1314
   79loPI    C3 1251  17.112   0.313  10.835  0.0800  0.2007  0.1134
   79loPI   PO4 1252  17.542   0.047  10.568 -0.0871 -0.3164 -0.1874
   79loPI   GL1 1253  17.629   0.009  10.219 -0.0148 -0.3679 -0.2897
   79loPI   GL2 1254  17.854   0.150  10.102  0.3631  0.0622 -0.1403
   79loPI   C1A 1255  17.569  -0.254   9.900 -0.0484  0.0151 -0.2242
   79loPI   C2A 1256  17.526  -0.290   9.509  0.1448 -0.0017  0.0784
   79loPI   C3A 1257  17.503  -0.257   9.043  0.1176  0.5113 -0.1027
   79loPI   C4A 1258  17.544  -0.217   8.531  0.0501 -0.0246 -0.1680
   79loPI   C5A 1259  17.768  -0.190   8.129  0.0900 -0.0788 -0.1250
   79loPI   C6A 1260  18.049  -0.287   7.730 -0.0820  0.1015 -0.2954
   79loPI   C1B 1261  17.872   0.159   9.629 -0.1285 -0.1611  0.0291
   79loPI   C2B 1262  17.774   0.094   9.180  0.1660  0.0815 -0.2446
   79loPI   C3B 1263  17.745   0.194   8.765  0.0017 -0.2821 -0.2337
   79loPI   C4B 1264  17.591   0.375   8.397 -0.1218  0.0987 -0.1026
   80loPI    C1 1265  14.730  13.862  10.199  0.1047  0.1671  0.0759
   80loPI    C2 1266  14.457  13.972  10.471 -0.0621  0.1988 -0.1024
   80loPI    C3 1267  14.822  13.856  10.589 -0.0527  0.4456  0.1197
   80loPI   PO4 1268  14.657  14.063  10.001 -0.0961  0.2312  0.2761
   80loPI   GL1 1269  14.593  13.893   9.673 -0.3467 -0.1879  0.1270
   80loPI   GL2 1270  14.770  13.547   9.805  0.1326  0.2971 -0.0188
   80loPI   C1A 1271  14.558  13.946   9.225 -0.2711  0.1154  0.2746
   80loPI   C2A 1272  14.570  13.927   8.786 -0.0826 -0.0534  0.0388
   80loPI   C3A 1273  14.534  13.820   8.334  0.1454 -0.0116  0.1696
   80loPI   C4A 1274  14.573  13.778   7.863  0.0078 -0.1183  0.0254
   80loPI   C5A 1275  14.601  14.057   7.509 -0.2872 -0.1364  0.2229
   80loPI   C6A 1276  14.525  14.042   7.096  0.1684 -0.0452 -0.0572
   80loPI   C1B 1277  14.734  13.461   9.237 -0.1540  0.1050 -0.1769
   80loPI   C2B 1278  14.810  13.326   8.845  0.1314  0.3012 -0.1197
   80loPI   C3B 1279  14.829  13.321   8.493  0.4328 -0.1239 -0.2605
   80loPI   C4B 1280  14.942  13.301   8.125  0.0984 -0.3400  0.0104
   81loPI    C1 1281  10.484  17.796  10.293 -0.1271  0.4493 -0.0049
   81loPI    C2 1282  10.100  17.702  10.358 -0.0614  0.2311  0.0755
   81loPI    C3 1283  10.302  17.918  10.628 -0.0324  0.0565  0.1955
   81loPI   PO4 1284  10.450  17.891  10.025  0.2737 -0.3488 -0.0267
   81loPI   GL1 1285  10.382  17.782   9.671 -0.1807 -0.0773 -0.1314
   81loPI   GL2 1286  10.801  17.860   9.684  0.0139 -0.1135  0.0192
   81loPI   C1A 1287  10.149  17.864   9.306 -0.1627 -0.0816  0.0346
   81loPI   C2A 1288   9.834  17.863   8.888  0.0899 -0.1372 -0.2162
   81loPI   C3A 1289   9.722  17.873   8.574  0.1156 -0.5337  0.1100
   81loPI   C4A 1290   9.737  17.949   8.073 -0.0098 -0.3522  0.0997
   81loPI   C5A 1291   9.500  17.954   7.718  0.0980 -0.1361  0.0529
   81loPI   C6A 1292   9.496  17.996   7.280 -0.1284  0.0567 -0.1848
   81loPI   C1B 1293  10.718  17.886   9.155  0.3130 -0.2465 -0.0080
   81loPI   C2B 1294  10.769  17.975   8.666  0.0777  0.0952  0.2543
   81loPI   C3B 1295  10.903  18.161   8.358  0.0399 -0.1447 -0.0765
   81loPI   C4B 1296  11.078  18.213   7.924 -0.0318 -0.2621  0.0296
   82loPI    C1 1297   2.986  17.621  10.495 -0.1697  0.1463 -0.1274
   82loPI    C2 1298   2.887  17.856  10.803 -0.0571  0.1594 -0.1005
   82loPI    C3 1299   2.652  17.548  10.702 -0.2648  0.3499 -0.2067
   82loPI   PO4 1300   3.120  17.758  10.249 -0.1005 -0.0485  0.5589
   82loPI   GL1 1301   3.239  17.526   9.860  0.1645  0.3401  0.1517
   82loPI   GL2 1302   3.294  17.219   9.681  0.1307 -0.2352 -0.0861
   82loPI   C1A 1303   3.000  17.484   9.356 -0.0217 -0.2405 -0.0646
   82loPI   C2A 1304   3.046  17.469   8.952 -0.1043 -0.0691 -0.1722
   82loPI   C3A 1305   2.955  17.555   8.539 -0.4283 -0.0756 -0.1837
   82loPI   C4A 1306   2.935  17.476   8.137 -0.3055 -0.1394  0.1660
   82loPI   C5A 1307   3.198  17.297   7.676 -0.0010 -0.1727 -0.0045
   82loPI   C6A 1308   3.442  17.628   7.390  0.0236  0.1395 -0.2067
   82loPI   C1B 1309   3.318  17.015   9.315 -0.1799 -0.2419  0.3652
   82loPI   C2B 1310   3.338  17.012   8.833 -0.3661 -0.0810  0.0665
   82loPI   C3B 1311   3.289  16.985   8.460  0.2005 -0.0810 -0.1574
   82loPI   C4B 1312   3.448  16.677   8.142  0.1849  0.4889 -0.1260
   83loPI    C1 1313   6.914  11.381   9.994 -0.0401  0.1190  0.1593
   83loPI    C2 1314   7.151  11.608   9.766 -0.1701 -0.0428 -0.1422
   83loPI    C3 1315   7.311  11.335  10.011 -0.0307  0.1078 -0.0636
   83loPI   PO4 1316   6.716  11.289   9.819  0.1694 -0.0816 -0.1935
   83loPI   GL1 1317   6.706  11.363   9.424  0.1584 -0.1090 -0.0550
   83loPI   GL2 1318   7.101  11.465   9.286  0.2929 -0.0615 -0.3731
   83loPI   C1A 1319   6.835  11.102   9.121  0.0016  0.0385 -0.2673
   83loPI   C2A 1320   6.747  11.079   8.774 -0.1387  0.0157 -0.0229
   83loPI   C3A 1321   6.421  11.097   8.324  0.1863 -0.1877 -0.0366
   83loPI   C4A 1322   6.325  10.955   7.854 -0.2083 -0.2857  0.1224
   83loPI   C5A 1323   6.121  10.901   7.473  0.1863  0.1276 -0.1025
   83loPI   C6A 1324   5.894  10.629   7.466 -0.1681  0.1926 -0.1554
   83loPI   C1B 1325   7.001  11.512   8.913 -0.0405 -0.0437  0.0922
   83loPI   C2B 1326   6.929  11.649   8.515  0.0997 -0.3171 -0.1016
   83loPI   C3B 1327   7.192  11.628   8.070 -0.5242  0.2146 -0.1403
   83loPI   C4B 1328   7.505  11.441   7.858 -0.0113  0.0386  0.1024
   84loPI    C1 1329   3.335  15.935  10.484  0.0443  0.1305  0.0673
   84loPI    C2 1330   3.512  15.752  10.792  0.0388  0.0716  0.0355
   84loPI    C3 1331   3.272  16.064  10.858 -0.1582 -0.0938  0.1130
   84loPI   PO4 1332   3.327  15.826  10.278 -0.0978 -0.0486  0.3085
   84loPI   GL1 1333   2.994  15.589  10.072  0.0085 -0.2957  0.1783
   84loPI   GL2 1334   2.680  15.461   9.896 -0.0930  0.2378 -0.1908
   84loPI   C1A 1335   3.052  15.609   9.608 -0.1385 -0.0218 -0.0987
   84loPI   C2A 1336   3.060  15.638   9.221 -0.2035 -0.3021 -0.1368
   84loPI   C3A 1337   3.011  15.650   8.746  0.1703 -0.1214 -0.0980
   84loPI   C4A 1338   3.135  15.799   8.327 -0.1549 -0.2299 -0.1701
   84loPI   C5A 1339   3.239  15.736   7.854  0.1051  0.0012  0.5150
   84loPI   C6A 1340   3.296  16.050   7.564  0.1440 -0.5244  0.0017
   84loPI   C1B 1341   2.729  15.264   9.425  0.3452 -0.3251  0.2141
   84loPI   C2B 1342   2.802  15.325   9.012 -0.0271  0.0221 -0.2348
   84loPI   C3B 1343   2.830  15.142   8.603 -0.5187  0.3523 -0.1935
   84loPI   C4B 1344   2.781  15.004   8.127  0.0086 -0.0235 -0.2617
   85loPI    C1 1345  11.291   8.219  10.811 -0.1449 -0.1050 -0.1560
   85loPI    C2 1346  11.648   8.294  10.647 -0.0861  0.0816  0.0521
   85loPI    C3 1347  11.625   8.136  11.014 -0.2155 -0.4819 -0.1870
   85loPI   PO4 1348  11.196   8.446  10.735 -0.1190 -0.1810 -0.0045
   85loPI   GL1 1349  11.037   8.453  10.265 -0.0793  0.1058 -0.0257
   85loPI   GL2 1350  11.445   8.432  10.180  0.2776 -0.0625 -0.1106
   85loPI   C1A 1351  11.071   8.152   9.926  0.0054 -0.2005  0.0621
   85loPI   C2A 1352  11.004   8.171   9.490 -0.0581 -0.3285  0.1734
   85loPI   C3A 1353  11.078   7.991   9.115  0.1326 -0.0381  0.0286
   85loPI   C4A 1354  11.062   8.020   8.585  0.2234  0.0914 -0.0462
   85loPI   C5A 1355  11.017   7.885   8.143 -0.0978 -0.0578 -0.1261
   85loPI   C6A 1356  10.674   7.701   8.001 -0.0999 -0.0029  0.1991
   85loPI   C1B 1357  11.769   8.612   9.853 -0.1616 -0.3802 -0.0032
   85loPI   C2B 1358  11.743   8.530   9.442  0.0120  0.4610 -0.1711
   85loPI   C3B 1359  11.816   8.567   8.999  0.1256  0.2077  0.1220
   85loPI   C4B 1360  11.968   8.544   8.553 -0.0445 -0.0165 -0.0621
   86loPI    C1 1361   2.196   0.883  10.236  0.1664 -0.1463  0.0770
   86loPI    C2 1362   2.049   0.706  10.564  0.0280  0.0033  0.0971
   86loPI    C3 1363   2.311   1.006  10.599  0.0031  0.0282  0.0712
   86loPI   PO4 1364   1.988   0.934  10.094 -0.0279  0.0734  0.0206
   86loPI   GL1 1365   1.938   1.043   9.595 -0.5970 -0.0786 -0.4195
   86loPI   GL2 1366   2.101   0.872   9.425 -0.0115  0.1341 -0.2832
   86loPI   C1A 1367   1.608   1.001   9.258  0.0002  0.1558  0.1340
   86loPI   C2A 1368   1.429   1.087   8.822 -0.0968  0.1567 -0.2117
   86loPI   C3A 1369   1.466   0.980   8.443  0.2439 -0.0747  0.1566
   86loPI   C4A 1370   1.227   0.904   8.077  0.1434  0.4681 -0.1906
   86loPI   C5A 1371   0.963   0.869   7.689 -0.0369  0.2636 -0.4275
   86loPI   C6A 1372   0.997   1.142   7.377 -0.0077 -0.1607  0.0436
   86loPI   C1B 1373   2.018   0.979   8.966 -0.0291  0.2000 -0.0975
   86loPI   C2B 1374   1.956   1.024   8.515  0.0772  0.0531  0.3180
   86loPI   C3B 1375   1.734   0.981   8.074 -0.1875  0.5358  0.0114
   86loPI   C4B 1376   1.477   0.908   7.662 -0.1919 -0.2177 -0.0676
   87loPI    C1 1377  16.887   1.364  11.038 -0.0456  0.1348 -0.1212
   87loPI    C2 1378  16.594   1.594  10.894 -0.0355  0.1955 -0.0458
   87loPI    C3 1379  16.806   1.715  11.211 -0.1310  0.0134  0.0902
   87loPI   PO4 1380  16.734   1.084  10.913 -0.1389 -0.1126  0.0383
   87loPI   GL1 1381  16.614   1.230  10.518  0.2291 -0.1223 -0.1935
   87loPI   GL2 1382  16.430   1.463  10.359  0.0557 -0.1973  0.1386
   87loPI   C1A 1383  16.699   1.181  10.067 -0.0122  0.0033 -0.0665
   87loPI   C2A 1384  16.672   1.059   9.674  0.0613 -0.0452  0.1446
   87loPI   C3A 1385  16.816   1.187   9.178 -0.2441 -0.3711 -0.3900
   87loPI   C4A 1386  16.759   1.175   8.769  0.3053 -0.1336 -0.1636
   87loPI   C5A 1387  16.631   1.153   8.323  0.0300  0.2691 -0.0822
   87loPI   C6A 1388  16.776   0.875   8.015 -0.0086  0.1348  0.1058
   87loPI   C1B 1389  16.400   1.546   9.905  0.1228 -0.2877  0.4485
   87loPI   C2B 1390  16.551   1.527   9.453 -0.1806  0.0534 -0.2484
   87loPI   C3B 1391  16.545   1.578   9.038 -0.3310 -0.0560  0.1050
   87loPI   C4B 1392  16.494   1.716   8.667  0.0464 -0.3510 -0.1100
   88loPI    C1 1393   6.374  14.874  10.251 -0.0000 -0.0066  0.1889
   88loPI    C2 1394   6.004  14.907  10.400  0.0160 -0.0629  0.2418
   88loPI    C3 1395   6.288  15.166  10.510 -0.0433  0.0687  0.0906
   88loPI   PO4 1396   6.283  14.849   9.975 -0.1708  0.3623  0.1519
   88loPI   GL1 1397   6.323  14.804   9.600  0.0144  0.2487 -0.2577
   88loPI   GL2 1398   6.337  14.409   9.401  0.1209  0.2780  0.2815
   88loPI   C1A 1399   6.405  14.862   9.041 -0.0994 -0.1189  0.0329
   88loPI   C2A 1400   6.384  14.928   8.557 -0.0990  0.0318 -0.2070
   88loPI   C3A 1401   6.289  15.097   8.132  0.2009 -0.0234 -0.1807
   88loPI   C4A 1402   6.184  15.261   7.721 -0.2083 -0.2477 -0.3310
   88loPI   C5A 1403   6.130  15.244   7.364  0.1523  0.1430  0.5019
   88loPI   C6A 1404   5.731  15.267   7.159  0.1176  0.1042  0.0089
   88loPI   C1B 1405   6.563  14.317   9.096  0.4259  0.0638  0.2052
   88loPI   C2B 1406   6.540  14.414   8.673  0.2350 -0.1109  0.0194
   88loPI   C3B 1407   6.453  14.524   8.271 -0.1948 -0.0635 -0.2905
   88loPI   C4B 1408   6.523  14.340   7.747 -0.1204  0.0160 -0.1610
   89loPI    C1 1409   7.313   2.110  10.244  0.0395  0.0732 -0.1287
   89loPI    C2 1410   7.678   2.038  10.098  0.0558 -0.0995 -0.0054
   89loPI    C3 1411   7.562   1.866  10.440 -0.0240  0.2096  0.1257
   89loPI   PO4 1412   7.092   2.180  10.056  0.4534  0.1400  0.0860
   89loPI   GL1 1413   6.863   1.962   9.756 -0.5170  0.0694  0.2091
   89loPI   GL2 1414   6.782   1.678   9.601  0.1086 -0.0375 -0.5498
   89loPI   C1A 1415   7.212   1.840   9.421  0.0160 -0.1508  0.2876
   89loPI   C2A 1416   7.261   1.890   9.032  0.0288  0.2856  0.2121
   89loPI   C3A 1417   7.122   2.011   8.544  0.0596  0.0129  0.1745
   89loPI   C4A 1418   7.240   2.268   8.280 -0.0766 -0.0434  0.1266
   89loPI   C5A 1419   7.212   2.549   7.854 -0.2507  0.5288  0.2697
   89loPI   C6A 1420   7.316   2.908   7.549 -0.0719 -0.2416  0.2729
   89loPI   C1B 1421   6.778   1.802   9.148  0.4346 -0.0821  0.0087
   89loPI   C2B 1422   6.662   1.817   8.705  0.1791  0.0611 -0.1766
   89loPI   C3B 1423   6.660   1.854   8.323 -0.0259  0.0437 -0.1572
   89loPI   C4B 1424   6.441   2.265   8.089  0.0744 -0.0244 -0.1401
   90loPI    C1 1425  17.496   7.786  11.114 -0.1837  0.0896 -0.1824
   90loPI    C2 1426  17.436   8.138  11.295 -0.3531  0.0034 -0.0685
   90loPI    C3 1427  17.320   7.799  11.473 -0.1040 -0.1187 -0.1348
   90loPI   PO4 1428  17.367   7.818  10.879  0.1573  0.0571 -0.2776
   90loPI   GL1 1429  17.040   7.939  10.635  0.2365 -0.2467  0.1447
   90loPI   GL2 1430  17.090   8.179  10.501 -0.0029 -0.0198 -0.0652
   90loPI   C1A 1431  16.881   7.587  10.400 -0.2250 -0.1206  0.0803
   90loPI   C2A 1432  17.022   7.537  10.038  0.0118 -0.1614  0.2864
   90loPI   C3A 1433  17.173   7.502   9.717 -0.1959  0.0647 -0.0960
   90loPI   C4A 1434  17.130   7.433   9.295 -0.2003  0.3775  0.1134
   90loPI   C5A 1435  17.118   7.439   8.829  0.1905  0.2879  0.0742
   90loPI   C6A 1436  16.936   7.767   8.568  0.0586 -0.0562  0.1327
   90loPI   C1B 1437  17.087   8.451  10.158  0.0746  0.2425 -0.4080
   90loPI   C2B 1438  17.047   8.508   9.756 -0.0656  0.2111  0.0959
   90loPI   C3B 1439  17.157   8.371   9.295 -0.1173 -0.3104 -0.0439
   90loPI   C4B 1440  17.196   8.282   8.869 -0.0888  0.0276  0.0570
   91loPI    C1 1441   5.195  10.169  10.121 -0.3116 -0.2812  0.0342
   91loPI    C2 1442   5.222  10.395  10.450 -0.1845 -0.3512  0.0724
   91loPI    C3 1443   4.934  10.465  10.182 -0.0137 -0.0007 -0.0252
   91loPI   PO4 1444   5.453  10.240  10.036  0.1903  0.3143  0.0625
   91loPI   GL1 1445   5.543  10.179   9.616  0.0701 -0.3191 -0.1777
   91loPI   GL2 1446   5.742  10.057   9.333 -0.2103  0.0296  0.3244
   91loPI   C1A 1447   5.218  10.164   9.370 -0.2963 -0.0068 -0.0498
   91loPI   C2A 1448   5.140  10.156   8.896 -0.1907 -0.0087 -0.1111
   91loPI   C3A 1449   5.024  10.092   8.408 -0.1903  0.0664  0.0253
   91loPI   C4A 1450   4.981   9.748   8.179 -0.0121  0.2061 -0.1313
   91loPI   C5A 1451   5.116   9.308   7.996 -0.3092  0.0546  0.0078
   91loPI   C6A 1452   5.222   8.917   7.970 -0.0941  0.1497  0.0750
   91loPI   C1B 1453   5.663  10.079   8.930  0.0624 -0.0340  0.1071
   91loPI   C2B 1454   5.485  10.018   8.522  0.2926 -0.2882 -0.0187
   91loPI   C3B 1455   5.411   9.917   8.117 -0.1440  0.1178  0.0029
   91loPI   C4B 1456   5.632   9.770   7.705  0.0504 -0.1582  0.3413
   92loPI    C1 1457  14.586  15.639  10.217  0.3107 -0.0958  0.0259
   92loPI    C2 1458  14.794  15.603  10.557 -0.0591  0.0568  0.2749
   92loPI    C3 1459  14.449  15.406  10.511 -0.0080  0.0307 -0.0184
   92loPI   PO4 1460  14.757  15.654  10.073  0.1352 -0.1443 -0.2419
   92loPI   GL1 1461  15.155  15.525   9.882 -0.0989  0.1407  0.2234
   92loPI   GL2 1462  15.169  15.160   9.934 -0.0326 -0.1154  0.3117
   92loPI   C1A 1463  15.265  15.290   9.413  0.0365 -0.0163 -0.0911
   92loPI   C2A 1464  15.431  15.504   9.097 -0.0109  0.2159  0.2357
   92loPI   C3A 1465  15.481  15.409   8.632 -0.0448  0.0541 -0.3758
   92loPI   C4A 1466  15.388  15.073   8.288  0.3038  0.2331  0.5112
   92loPI   C5A 1467  15.276  14.904   7.949  0.0288  0.3149 -0.1965
   92loPI   C6A 1468  15.216  14.597   7.671 -0.0834  0.2121 -0.0533
   92loPI   C1B 1469  14.924  14.865   9.615 -0.0129 -0.2614 -0.0914
   92loPI   C2B 1470  15.111  14.796   9.246  0.1162 -0.1351 -0.0774
   92loPI   C3B 1471  15.037  14.937   8.832 -0.0693  0.1347  0.1692
   92loPI   C4B 1472  15.016  14.835   8.441  0.3166 -0.1898  0.3171
   93loPI    C1 1473  16.110  16.344  10.426 -0.0657 -0.1296 -0.0826
   93loPI    C2 1474  16.178  16.445  10.807  0.1532 -0.3259 -0.0676
   93loPI    C3 1475  15.895  16.177  10.719 -0.2029  0.0459 -0.0818
   93loPI   PO4 1476  16.397  16.334  10.368 -0.0853 -0.0248  0.3064
   93loPI   GL1 1477  16.764  16.238  10.154 -0.2079 -0.2160 -0.1710
   93loPI   GL2 1478  17.029  16.111  10.011 -0.1854  0.1139  0.0685
   93loPI   C1A 1479  16.511  16.244   9.761  0.1683 -0.1445  0.0745
   93loPI   C2A 1480  16.401  16.237   9.337  0.1646  0.2827  0.0424
   93loPI   C3A 1481  16.403  16.261   8.975 -0.3479 -0.1496  0.0644
   93loPI   C4A 1482  16.589  16.153   8.532 -0.0047 -0.2702  0.1545
   93loPI   C5A 1483  16.603  16.115   8.089 -0.1940 -0.1251 -0.0820
   93loPI   C6A 1484  16.957  15.955   7.892  0.0736  0.1402 -0.1595
   93loPI   C1B 1485  16.956  16.194   9.483  0.0114 -0.2482  0.1001
   93loPI   C2B 1486  17.015  16.253   9.052 -0.1089  0.1973 -0.0340
   93loPI   C3B 1487  17.119  16.140   8.666 -0.0871 -0.3154  0.0152
   93loPI   C4B 1488  17.146  16.261   8.162 -0.0512 -0.2993 -0.1970
   94loPI    C1 1489   6.055   3.145  10.303  0.0224  0.1586 -0.0252
   94loPI    C2 1490   6.419   2.978  10.307 -0.0105  0.0889  0.1167
   94loPI    C3 1491   6.209   3.009  10.646 -0.1506  0.0992  0.0298
   94loPI   PO4 1492   6.021   3.181   9.993  0.2226 -0.1630  0.1380
   94loPI   GL1 1493   6.201   2.994   9.609  0.0701 -0.2405  0.0858
   94loPI   GL2 1494   6.445   2.793   9.452  0.1580 -0.0289 -0.0611
   94loPI   C1A 1495   5.888   2.703   9.289 -0.1425 -0.1722 -0.0902
   94loPI   C2A 1496   5.659   2.729   8.961 -0.2598 -0.1147 -0.6008
   94loPI   C3A 1497   5.651   2.537   8.552  0.3152  0.0384 -0.2545
   94loPI   C4A 1498   5.432   2.343   8.272  0.3041 -0.0933 -0.2093
   94loPI   C5A 1499   5.127   2.559   7.930 -0.1051 -0.1032 -0.3218
   94loPI   C6A 1500   5.166   2.737   7.493  0.1660  0.2212  0.1950
   94loPI   C1B 1501   6.585   2.906   9.049  0.2361  0.5194 -0.0623
   94loPI   C2B 1502   6.672   2.892   8.646  0.0717 -0.1842 -0.1354
   94loPI   C3B 1503   6.928   3.147   8.395 -0.3053 -0.3275  0.1118
   94loPI   C4B 1504   7.049   3.033   7.981 -0.2541  0.1762 -0.0632
   95loPI    C1 1505   2.268  15.369  10.320 -0.1775  0.0111  0.0434
   95loPI    C2 1506   2.338  15.120  10.625 -0.0344  0.0399  0.0347
   95loPI    C3 1507   2.011  15.350  10.625 -0.1239 -0.0863  0.0829
   95loPI   PO4 1508   2.275  15.215  10.096 -0.1252 -0.4080  0.2653
   95loPI   GL1 1509   2.212  15.270   9.638 -0.0814  0.2865 -0.0590
   95loPI   GL2 1510   1.909  15.200   9.764  0.2417  0.2344  0.2680
   95loPI   C1A 1511   2.244  15.257   9.175 -0.1227 -0.0118 -0.1936
   95loPI   C2A 1512   2.208  15.229   8.751 -0.3250  0.1263 -0.0513
   95loPI   C3A 1513   2.278  15.180   8.426  0.0805 -0.0732 -0.0058
   95loPI   C4A 1514   2.259  15.011   8.057  0.2432 -0.2322  0.2928
   95loPI   C5A 1515   2.471  15.190   7.708 -0.1138  0.0873  0.1631
   95loPI   C6A 1516   2.856  15.476   7.758  0.2669 -0.0723 -0.2264
   95loPI   C1B 1517   1.667  15.316   9.296 -0.1645 -0.0586  0.1238
   95loPI   C2B 1518   1.648  15.257   8.892  0.1106  0.0022  0.1212
   95loPI   C3B 1519   1.812  15.256   8.459 -0.2161  0.2588 -0.0499
   95loPI   C4B 1520   1.702  15.271   7.951  0.0349 -0.1256  0.0121
   96loPI    C1 1521   7.273  14.147  10.296  0.2351  0.0670 -0.0900
   96loPI    C2 1522   6.894  14.100  10.417  0.1565  0.1014 -0.3175
   96loPI    C3 1523   7.148  13.790  10.428  0.0978  0.0556 -0.2481
   96loPI   PO4 1524   7.266  14.263  10.055  0.4819  0.1560 -0.3541
   96loPI   GL1 1525   7.339  14.376   9.700  0.1143 -0.1406 -0.2354
   96loPI   GL2 1526   7.687  14.377   9.621 -0.1490  0.2268 -0.2437
   96loPI   C1A 1527   7.279  14.394   9.282 -0.1471  0.1397 -0.2649
   96loPI   C2A 1528   7.056  14.414   8.901 -0.3203 -0.3320 -0.4980
   96loPI   C3A 1529   6.950  14.331   8.486 -0.0455  0.0708 -0.1277
   96loPI   C4A 1530   6.984  14.360   8.033 -0.3079  0.0305  0.0363
   96loPI   C5A 1531   6.974  14.670   7.725 -0.0767 -0.1137 -0.1608
   96loPI   C6A 1532   7.067  14.767   7.284  0.1510 -0.0277 -0.1150
   96loPI   C1B 1533   7.853  14.367   9.159 -0.1161 -0.1616 -0.4027
   96loPI   C2B 1534   7.926  14.254   8.795  0.2512 -0.0872 -0.3211
   96loPI   C3B 1535   7.852  14.301   8.437 -0.1096  0.0811  0.1924
   96loPI   C4B 1536   8.068  14.125   8.025 -0.0007 -0.2480  0.0542
   97loPI    C1 1537  12.030   1.915  10.368 -0.0171 -0.1800 -0.0551
   97loPI    C2 1538  12.418   2.008  10.387 -0.0717  0.0493 -0.0334
   97loPI    C3 1539  12.157   2.190  10.628 -0.1794 -0.1832  0.0283
   97loPI   PO4 1540  11.998   1.953  10.088 -0.2402  0.0392 -0.0806
   97loPI   GL1 1541  12.325   2.095   9.857 -0.1342 -0.0736  0.1750
   97loPI   GL2 1542  12.442   2.013   9.752 -0.2023 -0.2972 -0.0602
   97loPI   C1A 1543  12.158   2.382   9.496 -0.2551  0.0809  0.1149
   97loPI   C2A 1544  12.233   2.493   9.121 -0.2288 -0.1863 -0.1648
   97loPI   C3A 1545  12.413   2.618   8.714  0.2358  0.3911 -0.4113
   97loPI   C4A 1546  12.597   2.636   8.308  0.1694  0.2461 -0.1390
   97loPI   C5A 1547  12.769   2.903   7.949 -0.2370  0.0866  0.0113
   97loPI   C6A 1548  12.780   3.058   7.536 -0.1640  0.2175  0.1358
   97loPI   C1B 1549  12.482   2.010   9.297 -0.1109  0.1681 -0.1377
   97loPI   C2B 1550  12.571   2.144   8.873 -0.0463  0.2397 -0.0883
   97loPI   C3B 1551  12.764   2.156   8.364  0.1348 -0.2696  0.0623
   97loPI   C4B 1552  12.957   2.217   7.928  0.0400  0.1082 -0.0960
   98loPI    C1 1553   4.780   4.871  10.428 -0.1106  0.0105  0.0552
   98loPI    C2 1554   5.156   4.950  10.318 -0.1123 -0.0694 -0.0087
   98loPI    C3 1555   5.082   4.662  10.586 -0.1086  0.1208  0.1993
   98loPI   PO4 1556   4.677   5.024  10.201 -0.1255 -0.0017 -0.0968
   98loPI   GL1 1557   4.626   5.294   9.821 -0.2203  0.3057  0.0262
   98loPI   GL2 1558   4.356   5.424   9.885 -0.0874 -0.1519  0.0597
   98loPI   C1A 1559   4.799   5.247   9.515  0.0534  0.1329 -0.0216
   98loPI   C2A 1560   4.564   5.235   9.115  0.0242 -0.1866  0.0695
   98loPI   C3A 1561   4.353   5.257   8.705  0.0292 -0.4362  0.1218
   98loPI   C4A 1562   4.421   5.422   8.326 -0.0270  0.0656  0.0274
   98loPI   C5A 1563   4.356   5.777   7.983  0.0865  0.1447  0.1841
   98loPI   C6A 1564   4.649   5.988   7.800  0.1518  0.0504 -0.4258
   98loPI   C1B 1565   4.210   5.488   9.411 -0.1517  0.3950  0.1676
   98loPI   C2B 1566   4.262   5.608   9.035  0.1147  0.0725  0.2983
   98loPI   C3B 1567   4.565   5.724   8.713  0.2828  0.3572  0.0120
   98loPI   C4B 1568   4.657   5.827   8.322 -0.1490 -0.0457  0.1032
   99loPI    C1 1569  18.004  13.465  10.828 -0.2035 -0.0650 -0.0220
   99loPI    C2 1570  18.253  13.203  10.999 -0.1757  0.0970  0.1897
   99loPI    C3 1571  17.991  13.406  11.223 -0.3832  0.0530 -0.0088
   99loPI   PO4 1572  18.167  13.638  10.708  0.2592 -0.0164  0.2883
   99loPI   GL1 1573  18.246  13.748  10.344  0.2645  0.2885 -0.4247
   99loPI   GL2 1574  18.424  13.928  10.310  0.0789 -0.3287 -0.0062
   99loPI   C1A 1575  18.118  13.492   9.985 -0.4168  0.1942 -0.1384
   99loPI   C2A 1576  18.121  13.574   9.539  0.2071  0.1108 -0.1912
   99loPI   C3A 1577  17.993  13.464   9.180  0.1063  0.2672  0.2532
   99loPI   C4A 1578  17.920  13.334   8.748 -0.0754  0.2317  0.0906
   99loPI   C5A 1579  17.975  13.266   8.394  0.0262  0.0143  0.3748
   99loPI   C6A 1580  18.132  12.906   8.226 -0.1343  0.3563  0.1475
   99loPI   C1B 1581  18.261  13.981   9.875 -0.1053 -0.2300 -0.3174
   99loPI   C2B 1582  18.307  14.035   9.494  0.1062  0.2553  0.0804
   99loPI   C3B 1583  18.299  13.865   9.042 -0.1304 -0.1278  0.1229
   99loPI   C4B 1584  18.347  13.779   8.610 -0.0055 -0.0358 -0.3080
  100loPI    C1 1585  15.960  12.728  10.840 -0.1594  0.2184  0.0012
  100loPI    C2 1586  16.179  12.512  11.096 -0.1228 -0.0034 -0.2134
  100loPI    C3 1587  16.001  12.848  11.219 -0.1054 -0.1066  0.1016
  100loPI   PO4 1588  16.132  12.787  10.602  0.2648 -0.1217  0.2498
  100loPI   GL1 1589  16.217  12.597  10.153  0.1048 -0.1616 -0.1426
  100loPI   GL2 1590  16.524  12.691  10.231  0.2750  0.2774  0.0640
  100loPI   C1A 1591  16.260  12.532   9.703 -0.3318  0.0995  0.0824
  100loPI   C2A 1592  16.424  12.596   9.186 -0.1254  0.0145  0.2242
  100loPI   C3A 1593  16.475  12.538   8.778  0.0419  0.0800 -0.0207
  100loPI   C4A 1594  16.514  12.600   8.341  0.1396 -0.2828 -0.1211
  100loPI   C5A 1595  16.668  13.007   8.181 -0.2414 -0.1359  0.0463
  100loPI   C6A 1596  16.559  13.296   7.812 -0.0996  0.0813  0.0477
  100loPI   C1B 1597  16.793  12.624   9.795 -0.0808  0.0393  0.1427
  100loPI   C2B 1598  16.975  12.616   9.378  0.0912 -0.0568 -0.2367
  100loPI   C3B 1599  16.981  12.544   8.986 -0.1403  0.0233 -0.2955
  100loPI   C4B 1600  16.960  12.461   8.583  0.1385 -0.4439 -0.0341
  101loPI    C1 1601  12.003   2.766  10.868 -0.0911 -0.2401 -0.0071
  101loPI    C2 1602  11.774   3.090  10.919  0.1555 -0.0418 -0.1342
  101loPI    C3 1603  11.706   2.761  11.135 -0.1499  0.0656 -0.0620
  101loPI   PO4 1604  12.030   2.785  10.584 -0.0464 -0.1909 -0.0627
  101loPI   GL1 1605  12.118   3.033  10.218  0.1050  0.3535 -0.3119
  101loPI   GL2 1606  11.993   3.294  10.083 -0.1636 -0.2855 -0.1292
  101loPI   C1A 1607  11.963   2.852   9.750  0.2032 -0.2352 -0.0744
  101loPI   C2A 1608  12.086   2.931   9.309 -0.0557  0.0222 -0.1230
  101loPI   C3A 1609  12.183   2.994   8.926  0.1239  0.4413 -0.0472
  101loPI   C4A 1610  12.304   3.030   8.501 -0.2281 -0.0372  0.0393
  101loPI   C5A 1611  12.214   3.291   8.132  0.4417  0.4067 -0.2081
  101loPI   C6A 1612  12.449   3.322   7.722  0.2347 -0.1387 -0.1447
  101loPI   C1B 1613  12.240   3.387   9.798  0.0956 -0.1423 -0.2286
  101loPI   C2B 1614  12.392   3.474   9.329  0.0486  0.1214 -0.1462
  101loPI   C3B 1615  12.456   3.462   8.908 -0.1741  0.0132 -0.1317
  101loPI   C4B 1616  12.411   3.583   8.500 -0.3286 -0.2954  0.1616
  102loPI    C1 1617  14.766  12.741  10.305  0.2348 -0.0771 -0.0705
  102loPI    C2 1618  15.161  12.694  10.261  0.3051  0.1485  0.2760
  102loPI    C3 1619  14.981  12.571  10.596  0.0983  0.1489  0.1667
  102loPI   PO4 1620  14.668  12.711  10.044  0.0270  0.1775  0.1648
  102loPI   GL1 1621  14.904  12.498   9.726  0.1144 -0.0658 -0.0026
  102loPI   GL2 1622  15.072  12.564   9.818  0.1361 -0.1876  0.1713
  102loPI   C1A 1623  14.736  12.457   9.333 -0.1131 -0.0794 -0.0037
  102loPI   C2A 1624  14.789  12.471   9.033 -0.3057  0.1384  0.2062
  102loPI   C3A 1625  14.952  12.515   8.632  0.3619 -0.1270 -0.2708
  102loPI   C4A 1626  14.980  12.438   8.195 -0.5192  0.1592 -0.2106
  102loPI   C5A 1627  14.774  12.226   7.849 -0.3299  0.3100  0.0799
  102loPI   C6A 1628  14.336  12.133   7.766 -0.0111 -0.1065 -0.2855
  102loPI   C1B 1629  15.237  12.470   9.368 -0.1949 -0.2546  0.4021
  102loPI   C2B 1630  15.332  12.406   8.928 -0.0800  0.0763  0.1070
  102loPI   C3B 1631  15.480  12.441   8.507 -0.0516  0.1317  0.0736
  102loPI   C4B 1632  15.575  12.516   8.056 -0.2906 -0.4821  0.0481
  103loPI    C1 1633   5.773   8.082  10.426  0.1311  0.2052 -0.0180
  103loPI    C2 1634   6.164   8.130  10.498  0.1454  0.1855 -0.0828
  103loPI    C3 1635   5.896   8.219  10.781  0.2225 -0.2977  0.1524
  103loPI   PO4 1636   5.748   7.813  10.319 -0.5016  0.0727 -0.1051
  103loPI   GL1 1637   5.902   7.674   9.974  0.0193  0.2282  0.1030
  103loPI   GL2 1638   5.847   7.342  10.023  0.1548  0.3938  0.0372
  103loPI   C1A 1639   5.676   7.846   9.619 -0.0354  0.1034  0.0228
  103loPI   C2A 1640   5.538   7.903   9.212  0.0144  0.0818 -0.4055
  103loPI   C3A 1641   5.521   7.948   8.797 -0.1501 -0.1548 -0.2452
  103loPI   C4A 1642   5.455   7.856   8.494 -0.2438 -0.0739  0.5121
  103loPI   C5A 1643   5.337   7.958   8.086  0.1914  0.2637  0.1222
  103loPI   C6A 1644   4.899   8.334   8.024 -0.0407  0.1274 -0.0804
  103loPI   C1B 1645   5.984   7.285   9.618 -0.0055  0.0767  0.1537
  103loPI   C2B 1646   5.994   7.470   9.232  0.0401  0.0532 -0.2804
  103loPI   C3B 1647   5.956   7.687   8.809  0.0433  0.0391 -0.2556
  103loPI   C4B 1648   5.874   7.644   8.346  0.5619 -0.1271  0.1152
  104loPI    C1 1649   1.315  11.965  10.732  0.0150 -0.0846 -0.3259
  104loPI    C2 1650   0.945  11.822  10.684 -0.1134  0.1257  0.0016
  104loPI    C3 1651   1.201  11.637  10.929 -0.1067  0.1591  0.0201
  104loPI   PO4 1652   1.401  12.083  10.515 -0.3291 -0.0108  0.2132
  104loPI   GL1 1653   1.572  11.966  10.179 -0.0826  0.2152  0.2504
  104loPI   GL2 1654   1.239  11.852  10.137  0.0009  0.2912 -0.0995
  104loPI   C1A 1655   1.827  11.961   9.716  0.2454  0.4840 -0.2191
  104loPI   C2A 1656   1.991  11.814   9.371 -0.0018  0.1081 -0.0222
  104loPI   C3A 1657   1.932  11.914   8.992  0.2002 -0.0585 -0.1495
  104loPI   C4A 1658   1.817  11.759   8.522  0.0926  0.1409 -0.1584
  104loPI   C5A 1659   1.749  11.836   8.167 -0.0862  0.3648  0.0269
  104loPI   C6A 1660   1.774  11.565   7.837 -0.0763 -0.0482 -0.0322
  104loPI   C1B 1661   1.340  11.846   9.743 -0.0896 -0.4829  0.1444
  104loPI   C2B 1662   1.402  11.899   9.350 -0.1023 -0.1142  0.2565
  104loPI   C3B 1663   1.279  11.909   8.903 -0.1498  0.2547 -0.1487
  104loPI   C4B 1664   1.340  11.917   8.499 -0.1626  0.4031  0.2602
  105loPI    C1 1665  12.890  17.769  10.225 -0.2213 -0.0628 -0.1885
  105loPI    C2 1666  12.596  17.716  10.490  0.0601  0.1543  0.1777
  105loPI    C3 1667  12.862  18.009  10.544  0.2905  0.0205 -0.1975
  105loPI   PO4 1668  12.778  17.805   9.993 -0.1265 -0.4314  0.0513
  105loPI   GL1 1669  12.724  17.630   9.613 -0.1362 -0.2055 -0.1086
  105loPI   GL2 1670  12.470  17.852   9.630 -0.0267  0.1958 -0.0764
  105loPI   C1A 1671  12.918  17.556   9.277 -0.1333  0.1750  0.3129
  105loPI   C2A 1672  13.066  17.667   8.908  0.1907 -0.0766 -0.0991
  105loPI   C3A 1673  13.158  17.817   8.562 -0.1013  0.2297 -0.1627
  105loPI   C4A 1674  13.114  17.764   8.156  0.0021 -0.1813  0.2292
  105loPI   C5A 1675  13.226  17.627   7.743  0.0364 -0.1540  0.0115
  105loPI   C6A 1676  13.115  17.492   7.330  0.2129  0.0732 -0.0166
  105loPI   C1B 1677  12.408  17.809   9.239 -0.1795  0.3246  0.3333
  105loPI   C2B 1678  12.515  17.682   8.894 -0.0146 -0.0118  0.5499
  105loPI   C3B 1679  12.696  17.729   8.434  0.0258  0.1363  0.0689
  105loPI   C4B 1680  12.624  17.894   8.081 -0.0785 -0.3645  0.0131
  106loPI    C1 1681  13.482   6.679  11.147  0.1780  0.1772  0.0977
  106loPI    C2 1682  13.333   6.311  11.195 -0.2872  0.3031 -0.2960
  106loPI    C3 1683  13.383   6.549  11.512  0.2105 -0.1589 -0.0098
  106loPI   PO4 1684  13.676   6.680  10.911 -0.1630  0.2849  0.1168
  106loPI   GL1 1685  13.722   6.537  10.565 -0.1429 -0.1397  0.0337
  106loPI   GL2 1686  13.428   6.701  10.451  0.0546 -0.0716  0.2282
  106loPI   C1A 1687  13.896   6.594  10.084  0.0017  0.2355  0.2437
  106loPI   C2A 1688  13.917   6.660   9.589  0.0085 -0.0685  0.0862
  106loPI   C3A 1689  13.928   6.694   9.212 -0.0601  0.3760  0.4958
  106loPI   C4A 1690  13.894   6.708   8.733 -0.0725  0.2783  0.0311
  106loPI   C5A 1691  14.141   6.935   8.415  0.2283 -0.0126 -0.0577
  106loPI   C6A 1692  14.236   6.991   8.030  0.3494  0.4321 -0.0209
  106loPI   C1B 1693  13.378   6.696  10.037 -0.0437 -0.0110 -0.0646
  106loPI   C2B 1694  13.428   6.661   9.516  0.2917  0.0317 -0.0534
  106loPI   C3B 1695  13.463   6.609   8.999  0.2003  0.4283 -0.1361
  106loPI   C4B 1696  13.408   6.817   8.507 -0.1138  0.3144 -0.1382
  107loPI    C1 1697   2.009  14.339  10.459  0.1419 -0.2313  0.0436
  107loPI    C2 1698   2.169  14.623  10.691  0.1565 -0.0730 -0.1569
  107loPI    C3 1699   2.100  14.258  10.840  0.0981  0.0465  0.1156
  107loPI   PO4 1700   2.145  14.369  10.203  0.0118  0.1468 -0.1329
  107loPI   GL1 1701   2.269  14.249   9.803  0.0840  0.2169 -0.1799
  107loPI   GL2 1702   2.624  14.348   9.844 -0.0154  0.0417  0.0442
  107loPI   C1A 1703   2.194  14.270   9.334 -0.1030 -0.0398  0.0047
  107loPI   C2A 1704   2.219  14.277   8.906  0.1226  0.0074  0.3117
  107loPI   C3A 1705   2.209  14.250   8.504  0.0397  0.1586 -0.1973
  107loPI   C4A 1706   2.157  14.121   8.123 -0.2828 -0.1614  0.1719
  107loPI   C5A 1707   2.175  13.912   7.913  0.5802 -0.1200 -0.1440
  107loPI   C6A 1708   2.054  13.547   7.924 -0.0235  0.2455 -0.0924
  107loPI   C1B 1709   2.697  14.448   9.554  0.1010 -0.3742 -0.2159
  107loPI   C2B 1710   2.643  14.331   9.150 -0.3173 -0.0341 -0.5348
  107loPI   C3B 1711   2.669  14.246   8.735 -0.0270 -0.1419 -0.0498
  107loPI   C4B 1712   2.675  14.077   8.377  0.0685 -0.3351 -0.0638
  108loPI    C1 1713  15.278   0.841  10.882  0.0020  0.0442 -0.1911
  108loPI    C2 1714  14.921   0.807  11.059  0.0854  0.0590 -0.0182
  108loPI    C3 1715  15.255   0.740  11.268  0.1834  0.0133 -0.1878
  108loPI   PO4 1716  15.244   0.639  10.642 -0.2105  0.1683  0.1484
  108loPI   GL1 1717  15.054   0.585  10.264  0.1449 -0.1373  0.0884
  108loPI   GL2 1718  15.200   0.549  10.056 -0.0455 -0.3763 -0.0582
  108loPI   C1A 1719  15.011   1.022   9.932 -0.1456 -0.0899 -0.1693
  108loPI   C2A 1720  15.158   1.100   9.474 -0.2767 -0.4631 -0.1560
  108loPI   C3A 1721  15.279   1.172   9.053 -0.1914  0.0780  0.0909
  108loPI   C4A 1722  15.271   1.225   8.678 -0.0815  0.0032 -0.1198
  108loPI   C5A 1723  15.211   1.047   8.308 -0.1499 -0.1508  0.0203
  108loPI   C6A 1724  14.996   0.879   8.197 -0.3444 -0.2069  0.3065
  108loPI   C1B 1725  15.369   0.634   9.694  0.0224  0.0505  0.0932
  108loPI   C2B 1726  15.442   0.713   9.292  0.0116  0.1628 -0.1013
  108loPI   C3B 1727  15.529   0.791   8.886 -0.2821  0.0552 -0.0828
  108loPI   C4B 1728  15.534   0.735   8.571 -0.1194 -0.0880 -0.2605
  109loPI    C1 1729   8.519   1.035  10.299 -0.1221 -0.0112  0.0688
  109loPI    C2 1730   8.255   0.798  10.484  0.0503 -0.0258  0.2997
  109loPI    C3 1731   8.625   0.839  10.631  0.3997 -0.5343 -0.3839
  109loPI   PO4 1732   8.407   0.983  10.008  0.0979  0.3216 -0.0465
  109loPI   GL1 1733   8.409   1.056   9.497 -0.0509  0.1221 -0.4439
  109loPI   GL2 1734   8.737   1.170   9.456 -0.1118 -0.1477 -0.2602
  109loPI   C1A 1735   8.452   0.959   9.087 -0.0422 -0.2135  0.1140
  109loPI   C2A 1736   8.364   0.915   8.665  0.0672 -0.1451  0.1558
  109loPI   C3A 1737   8.460   1.219   8.466 -0.3604 -0.0223 -0.2798
  109loPI   C4A 1738   8.719   1.342   8.055 -0.3958 -0.0119 -0.1348
  109loPI   C5A 1739   8.621   1.410   7.685 -0.1239 -0.0674 -0.1031
  109loPI   C6A 1740   8.417   1.626   7.422  0.0612  0.1787  0.1040
  109loPI   C1B 1741   8.930   1.018   9.105  0.1113  0.4903 -0.5871
  109loPI   C2B 1742   8.886   0.929   8.753 -0.1308 -0.2409  0.2311
  109loPI   C3B 1743   8.944   0.794   8.409  0.0804  0.0307  0.1741
  109loPI   C4B 1744   8.920   0.843   8.069 -0.1580 -0.2027  0.2304
  110loPI    C1 1745  10.189  16.172  10.476  0.2598  0.1513  0.0746
  110loPI    C2 1746  10.310  16.341  10.818  0.3051  0.2285  0.0206
  110loPI    C3 1747   9.921  16.333  10.726  0.2892  0.1733  0.0922
  110loPI   PO4 1748  10.413  16.299  10.320 -0.1056  0.0706  0.0374
  110loPI   GL1 1749  10.431  16.440   9.827 -0.1464  0.0321 -0.0297
  110loPI   GL2 1750  10.352  16.080   9.793  0.1888  0.1514 -0.1885
  110loPI   C1A 1751  10.439  16.506   9.452 -0.1077  0.0297 -0.0259
  110loPI   C2A 1752  10.516  16.576   9.080  0.3022 -0.3109  0.3889
  110loPI   C3A 1753  10.412  16.579   8.659  0.1677  0.0907  0.5495
  110loPI   C4A 1754  10.526  16.668   8.294  0.0552  0.0294 -0.3689
  110loPI   C5A 1755  10.296  16.844   8.005 -0.0209 -0.2371  0.3165
  110loPI   C6A 1756  10.233  17.168   7.617 -0.0547 -0.1528 -0.0755
  110loPI   C1B 1757  10.586  15.866   9.384 -0.2366 -0.0493 -0.1812
  110loPI   C2B 1758  10.513  15.652   9.077  0.1888  0.1720  0.1101
  110loPI   C3B 1759  10.469  15.706   8.721 -0.0174 -0.0007  0.1536
  110loPI   C4B 1760  10.446  15.669   8.280  0.0584  0.2518  0.0183
  111loPI    C1 1761   3.211   0.399  10.213 -0.1622 -0.2581 -0.0547
  111loPI    C2 1762   2.891   0.310  10.435 -0.1960  0.2532  0.1165
  111loPI    C3 1763   3.246   0.363  10.610 -0.0623 -0.0782 -0.0459
  111loPI   PO4 1764   3.138   0.286   9.926  0.0787 -0.1643 -0.1810
  111loPI   GL1 1765   2.968   0.354   9.554 -0.1304  0.2555  0.5186
  111loPI   GL2 1766   3.196   0.627   9.542  0.1948  0.5227 -0.0353
  111loPI   C1A 1767   2.804   0.434   9.052 -0.1488 -0.3151 -0.2037
  111loPI   C2A 1768   2.815   0.370   8.677 -0.0329 -0.0023 -0.2145
  111loPI   C3A 1769   2.727   0.379   8.272  0.0290  0.2809 -0.2512
  111loPI   C4A 1770   2.769   0.731   7.992  0.1380 -0.0319  0.2253
  111loPI   C5A 1771   3.052   0.702   7.577  0.1553 -0.2241  0.2412
  111loPI   C6A 1772   3.395   0.602   7.274 -0.4794  0.0849  0.0135
  111loPI   C1B 1773   3.065   0.830   9.130  0.0825 -0.3001 -0.2306
  111loPI   C2B 1774   3.148   0.939   8.661  0.1195  0.3462 -0.1352
  111loPI   C3B 1775   3.073   0.997   8.284 -0.0320 -0.0164  0.0680
  111loPI   C4B 1776   2.993   1.137   7.780 -0.1126  0.1491 -0.0279
  112loPI    C1 1777  14.475  12.375  10.476  0.1200  0.0462 -0.1489
  112loPI    C2 1778  14.337  12.091  10.722  0.1236  0.1180 -0.0638
  112loPI    C3 1779  14.459  12.442  10.870 -0.0042  0.2134 -0.1814
  112loPI   PO4 1780  14.319  12.310  10.243  0.1167  0.1008  0.0642
  112loPI   GL1 1781  14.204  11.984   9.909 -0.1326  0.0407 -0.1243
  112loPI   GL2 1782  14.572  12.148   9.858  0.3887  0.1088 -0.0597
  112loPI   C1A 1783  14.163  11.660   9.480 -0.1863 -0.2686 -0.0978
  112loPI   C2A 1784  14.270  11.704   9.088  0.3807  0.1466  0.1569
  112loPI   C3A 1785  14.330  11.592   8.707  0.2294  0.1557  0.1785
  112loPI   C4A 1786  14.532  11.605   8.412  0.0300  0.1990  0.0549
  112loPI   C5A 1787  14.480  11.500   7.910  0.0105 -0.0182  0.0510
  112loPI   C6A 1788  14.045  11.563   7.704 -0.2888 -0.0992  0.2102
  112loPI   C1B 1789  14.472  12.117   9.501 -0.2433  0.0276 -0.2007
  112loPI   C2B 1790  14.517  12.093   9.051 -0.1068 -0.3891 -0.1260
  112loPI   C3B 1791  14.611  12.015   8.661 -0.1303  0.0249  0.1032
  112loPI   C4B 1792  14.784  11.949   8.276 -0.1004  0.0267 -0.1022
  113loPI    C1 1793  16.085   6.524  11.213  0.3635  0.0821  0.3205
  113loPI    C2 1794  16.462   6.401  11.264  0.2857 -0.2423  0.1372
  113loPI    C3 1795  16.161   6.205  11.441  0.1914 -0.0655  0.1750
  113loPI   PO4 1796  16.099   6.609  10.958  0.1631 -0.0658  0.1268
  113loPI   GL1 1797  16.070   6.533  10.519 -0.0724 -0.0797  0.2296
  113loPI   GL2 1798  15.947   6.313  10.472 -0.2743  0.3382  0.0370
  113loPI   C1A 1799  16.029   6.531  10.060  0.2620  0.2607 -0.0651
  113loPI   C2A 1800  15.925   6.649   9.696  0.0715  0.1929 -0.2181
  113loPI   C3A 1801  16.025   6.536   9.328 -0.5066 -0.2296 -0.4014
  113loPI   C4A 1802  16.034   6.540   8.958 -0.1502  0.3679 -0.2264
  113loPI   C5A 1803  16.275   6.484   8.553 -0.3622  0.2785  0.1179
  113loPI   C6A 1804  16.720   6.435   8.414  0.1054  0.4927  0.0061
  113loPI   C1B 1805  15.756   6.117  10.213 -0.0085 -0.0416  0.1191
  113loPI   C2B 1806  15.726   6.077   9.821  0.0169  0.3030  0.2276
  113loPI   C3B 1807  15.743   6.104   9.335  0.0614  0.0042  0.1793
  113loPI   C4B 1808  15.733   6.099   8.812  0.1801  0.1565  0.3273
  114loPI    C1 1809   3.967   4.126  10.337  0.0937  0.0236 -0.0656
  114loPI    C2 1810   3.588   4.161  10.215  0.1479  0.3136 -0.1559
  114loPI    C3 1811   3.794   3.829  10.132 -0.0704  0.1745 -0.1486
  114loPI   PO4 1812   4.055   4.409  10.233 -0.1977  0.1329 -0.2779
  114loPI   GL1 1813   3.947   4.370   9.785  0.0020  0.2515  0.0322
  114loPI   GL2 1814   3.659   4.231   9.673  0.0469  0.2286 -0.0123
  114loPI   C1A 1815   4.051   4.422   9.405 -0.1002  0.0595 -0.0659
  114loPI   C2A 1816   3.980   4.443   9.013 -0.1757  0.0919  0.0816
  114loPI   C3A 1817   3.854   4.435   8.562 -0.1338  0.3998 -0.2929
  114loPI   C4A 1818   4.018   4.436   8.125 -0.2759 -0.1023  0.0384
  114loPI   C5A 1819   4.276   4.343   7.810 -0.1277 -0.2226  0.1798
  114loPI   C6A 1820   4.311   4.056   7.555 -0.0140  0.0229 -0.3902
  114loPI   C1B 1821   3.568   4.239   9.229  0.0772  0.2294 -0.0979
  114loPI   C2B 1822   3.460   4.245   8.699 -0.2888 -0.0388 -0.1203
  114loPI   C3B 1823   3.454   4.141   8.289  0.3178 -0.0564 -0.0958
  114loPI   C4B 1824   3.484   4.187   7.902 -0.0036 -0.2477  0.1051
  115loPI    C1 1825   0.585   0.623  10.590 -0.2684  0.1396 -0.1734
  115loPI    C2 1826   0.808   0.321  10.727 -0.1438  0.4042  0.2228
  115loPI    C3 1827   0.968   0.590  10.478 -0.2537  0.1525 -0.1271
  115loPI   PO4 1828   0.458   0.531  10.423 -0.0376 -0.0310  0.1254
  115loPI   GL1 1829   0.251   0.719  10.173  0.2206  0.0383 -0.0314
  115loPI   GL2 1830   0.203   0.955  10.077  0.1672  0.2733  0.2135
  115loPI   C1A 1831   0.201   0.575   9.752  0.1301  0.3213  0.2833
  115loPI   C2A 1832   0.146   0.669   9.341 -0.0535  0.1200 -0.3192
  115loPI   C3A 1833   0.096   0.681   8.918  0.1019  0.1057  0.3019
  115loPI   C4A 1834   0.087   0.600   8.546  0.1165  0.1161 -0.0098
  115loPI   C5A 1835   0.104   0.435   8.175 -0.1273  0.3093  0.2338
  115loPI   C6A 1836   0.067   0.558   7.722 -0.1823 -0.0939 -0.1148
  115loPI   C1B 1837   0.564   1.055   9.827  0.2110 -0.1548 -0.0590
  115loPI   C2B 1838   0.430   1.054   9.361 -0.1885  0.0570 -0.1336
  115loPI   C3B 1839   0.413   1.003   8.976 -0.0929  0.4633  0.1245
  115loPI   C4B 1840   0.466   1.086   8.560  0.0039 -0.1487 -0.1336
  116loPI    C1 1841  15.080   3.986  10.663 -0.0702  0.1040 -0.1707
  116loPI    C2 1842  14.689   4.069  10.663 -0.0735  0.0900 -0.0923
  116loPI    C3 1843  14.914   4.169  10.978 -0.0496 -0.0678 -0.0582
  116loPI   PO4 1844  15.084   3.742  10.658 -0.2331  0.0415 -0.0368
  116loPI   GL1 1845  15.042   3.595  10.331  0.0703  0.0756  0.5227
  116loPI   GL2 1846  14.836   3.338  10.327  0.0086  0.0583 -0.3444
  116loPI   C1A 1847  15.234   3.823   9.974 -0.1109 -0.1376 -0.0990
  116loPI   C2A 1848  15.460   3.948   9.508  0.1291  0.1571 -0.0907
  116loPI   C3A 1849  15.461   3.926   8.998 -0.1452  0.0530  0.0177
  116loPI   C4A 1850  15.460   3.899   8.522  0.2186  0.2498  0.0282
  116loPI   C5A 1851  15.315   3.822   8.178  0.3483 -0.0633 -0.1648
  116loPI   C6A 1852  15.486   4.072   7.897  0.0402 -0.4155  0.0348
  116loPI   C1B 1853  15.049   3.339   9.901  0.2685  0.0698  0.0911
  116loPI   C2B 1854  15.051   3.624   9.475  0.0524  0.2006  0.0830
  116loPI   C3B 1855  15.071   3.472   8.994 -0.2783  0.0362  0.2183
  116loPI   C4B 1856  15.187   3.497   8.488 -0.0111  0.1743  0.1261
  117loPI    C1 1857  17.063   9.024  10.988 -0.0562 -0.0429 -0.1690
  117loPI    C2 1858  17.087   9.022  11.387  0.1877  0.0366 -0.1815
  117loPI    C3 1859  16.885   9.312  11.199  0.1512  0.0515 -0.1195
  117loPI   PO4 1860  17.349   8.886  10.885 -0.1129  0.0250 -0.1796
  117loPI   GL1 1861  17.420   8.895  10.499  0.0545  0.0060 -0.2279
  117loPI   GL2 1862  17.565   8.592  10.417 -0.2806 -0.1671 -0.0344
  117loPI   C1A 1863  17.308   8.839  10.008  0.0673  0.0806  0.0819
  117loPI   C2A 1864  17.302   8.854   9.510  0.2788 -0.2742 -0.3373
  117loPI   C3A 1865  17.402   8.866   9.012  0.2296 -0.3519 -0.0689
  117loPI   C4A 1866  17.443   8.661   8.599 -0.2568 -0.2018 -0.1094
  117loPI   C5A 1867  17.340   8.309   8.367  0.0853  0.0591  0.0078
  117loPI   C6A 1868  16.942   8.056   8.129  0.1915  0.1058 -0.0876
  117loPI   C1B 1869  17.727   8.422  10.060  0.3649 -0.2314  0.2485
  117loPI   C2B 1870  17.635   8.444   9.609 -0.2150  0.2433  0.3287
  117loPI   C3B 1871  17.650   8.371   9.148  0.0048 -0.0041 -0.1702
  117loPI   C4B 1872  17.697   8.259   8.796 -0.1541  0.2350 -0.1251
  118loPI    C1 1873  13.639  16.135  10.305 -0.1056 -0.3220  0.3624
  118loPI    C2 1874  13.984  16.110  10.504  0.0657 -0.1386  0.0954
  118loPI    C3 1875  13.651  16.224  10.694  0.2543  0.1712  0.2478
  118loPI   PO4 1876  13.762  16.145  10.064 -0.2174 -0.0213  0.0583
  118loPI   GL1 1877  13.660  16.165   9.640  0.0655 -0.1057 -0.1725
  118loPI   GL2 1878  13.526  15.785   9.434 -0.0382 -0.1663 -0.3186
  118loPI   C1A 1879  13.570  16.261   9.266  0.0127  0.0765 -0.1260
  118loPI   C2A 1880  13.683  16.259   8.867  0.2225  0.0992 -0.0871
  118loPI   C3A 1881  13.873  16.357   8.427  0.2698  0.1792  0.3440
  118loPI   C4A 1882  13.805  16.418   7.998  0.0289  0.3234 -0.2862
  118loPI   C5A 1883  13.857  16.418   7.668  0.1003  0.2064  0.0958
  118loPI   C6A 1884  13.752  16.621   7.361 -0.0001  0.3292  0.1626
  118loPI   C1B 1885  13.522  15.799   8.926 -0.0838 -0.2722 -0.1014
  118loPI   C2B 1886  13.567  15.879   8.529  0.0430  0.0332 -0.1008
  118loPI   C3B 1887  13.556  16.007   8.118  0.0581  0.0021 -0.0117
  118loPI   C4B 1888  13.523  15.872   7.735 -0.2608  0.1281  0.1092
  119loPI    C1 1889  18.272   2.326  10.940  0.1475  0.0203 -0.1228
  119loPI    C2 1890  18.234   2.014  11.187 -0.1303 -0.0208 -0.2139
  119loPI    C3 1891  18.367   2.365  11.326  0.1140 -0.1576 -0.0961
  119loPI   PO4 1892  18.222   2.188  10.719 -0.1194 -0.0653  0.2823
  119loPI   GL1 1893  17.962   2.080  10.370 -0.2116  0.0773 -0.1058
  119loPI   GL2 1894  17.864   1.915  10.137 -0.2001 -0.1363 -0.1915
  119loPI   C1A 1895  18.311   2.311  10.025  0.4291 -0.1826  0.2710
  119loPI   C2A 1896  18.222   2.402   9.633  0.1657  0.1062  0.0113
  119loPI   C3A 1897  18.136   2.434   9.182  0.0790 -0.3375  0.0568
  119loPI   C4A 1898  18.177   2.475   8.765 -0.1988  0.2021  0.0098
  119loPI   C5A 1899  18.081   2.513   8.376 -0.0536  0.3004  0.2093
  119loPI   C6A 1900  18.167   2.316   8.022  0.1770 -0.1740 -0.1090
  119loPI   C1B 1901  17.907   1.984   9.711 -0.2155  0.1477  0.0461
  119loPI   C2B 1902  17.859   2.014   9.205  0.2661  0.0436  0.0498
  119loPI   C3B 1903  17.831   1.997   8.755  0.3519 -0.1084  0.2115
  119loPI   C4B 1904  17.764   1.997   8.409 -0.1327 -0.0119  0.0316
  120loPI    C1 1905  11.183  10.352  10.351  0.0726  0.4521 -0.0280
  120loPI    C2 1906  11.508  10.233  10.151 -0.1074 -0.0949 -0.0106
  120loPI    C3 1907  11.532  10.309  10.543  0.0166 -0.0549 -0.0254
  120loPI   PO4 1908  11.037  10.116  10.256  0.0487  0.1861  0.2357
  120loPI   GL1 1909  11.070   9.922   9.849 -0.2300  0.3322  0.1827
  120loPI   GL2 1910  11.090   9.688   9.738 -0.1916  0.0464  0.1187
  120loPI   C1A 1911  11.437  10.021   9.655  0.0905  0.0384  0.0945
  120loPI   C2A 1912  11.603  10.042   9.228 -0.0158 -0.0652  0.1348
  120loPI   C3A 1913  11.680   9.872   8.849 -0.2530 -0.0858  0.1475
  120loPI   C4A 1914  11.632   9.749   8.466  0.0207 -0.2353 -0.0510
  120loPI   C5A 1915  11.801   9.482   8.284  0.2857  0.0119 -0.4965
  120loPI   C6A 1916  12.042   9.189   8.060 -0.0772 -0.1340  0.0683
  120loPI   C1B 1917  11.169   9.739   9.311  0.4035  0.1362 -0.7240
  120loPI   C2B 1918  11.329   9.501   8.989 -0.0365 -0.0521  0.2281
  120loPI   C3B 1919  11.400   9.336   8.569 -0.2079 -0.0323 -0.0356
  120loPI   C4B 1920  11.290   9.411   8.121 -0.1003  0.1823  0.0152
  121loPI    C1 1921  12.458  14.270  10.410 -0.1697  0.1034  0.0281
  121loPI    C2 1922  12.137  14.139  10.610  0.0140  0.0556  0.2963
  121loPI    C3 1923  12.437  13.888  10.527  0.0405  0.1311  0.1609
  121loPI   PO4 1924  12.324  14.405  10.185  0.0434  0.0791 -0.1620
  121loPI   GL1 1925  12.203  14.371   9.844  0.0175 -0.2233 -0.0879
  121loPI   GL2 1926  12.496  14.513   9.687  0.3242 -0.0883 -0.1520
  121loPI   C1A 1927  12.119  14.162   9.426 -0.0887 -0.3677 -0.0856
  121loPI   C2A 1928  12.268  14.192   8.991  0.0928  0.2355 -0.0652
  121loPI   C3A 1929  12.166  14.180   8.512  0.1067  0.1735 -0.3445
  121loPI   C4A 1930  12.255  14.116   8.178 -0.0730 -0.0284  0.0318
  121loPI   C5A 1931  12.165  14.187   7.761  0.0306  0.0315  0.0359
  121loPI   C6A 1932  12.173  14.138   7.266  0.1043 -0.0939  0.0189
  121loPI   C1B 1933  12.591  14.568   9.263  0.0483 -0.4529  0.0817
  121loPI   C2B 1934  12.572  14.616   8.855  0.3286 -0.1290 -0.0956
  121loPI   C3B 1935  12.492  14.601   8.485 -0.1336  0.0032 -0.1232
  121loPI   C4B 1936  12.458  14.552   8.022  0.0257 -0.2870 -0.1442
  122loPI    C1 1937  17.883   6.103  11.083 -0.1069  0.1007  0.1305
  122loPI    C2 1938  18.074   6.108  11.435 -0.0580 -0.1770  0.1107
  122loPI    C3 1939  17.776   6.366  11.364 -0.0230 -0.0744  0.3296
  122loPI   PO4 1940  18.062   6.144  10.870  0.0511  0.0723  0.1348
  122loPI   GL1 1941  18.199   6.307  10.363  0.2083 -0.3194  0.3428
  122loPI   GL2 1942  18.348   6.094  10.290 -0.2796 -0.0316 -0.1094
  122loPI   C1A 1943  18.174   6.427   9.967  0.1914  0.0551  0.5624
  122loPI   C2A 1944  18.122   6.481   9.600 -0.1199 -0.0001  0.2933
  122loPI   C3A 1945  18.124   6.491   9.120 -0.0204  0.0506  0.2642
  122loPI   C4A 1946  17.984   6.446   8.664 -0.1319  0.3961 -0.2305
  122loPI   C5A 1947  17.745   6.632   8.333  0.0467 -0.3322 -0.0415
  122loPI   C6A 1948  17.552   7.027   8.164 -0.0618 -0.0926  0.2324
  122loPI   C1B 1949  18.679   6.131   9.934  0.4774 -0.0336  0.1247
  122loPI   C2B 1950  18.665   6.430   9.688  0.1303  0.3166  0.0015
  122loPI   C3B 1951  18.669   6.441   9.242  0.0464 -0.3884  0.1579
  122loPI   C4B 1952  18.466   6.511   8.793 -0.0485  0.4579  0.0607
  123loPI    C1 1953   2.244   5.571  10.649 -0.0432  0.0293 -0.2238
  123loPI    C2 1954   2.528   5.566  10.368 -0.0021 -0.0231 -0.1814
  123loPI    C3 1955   2.626   5.514  10.752 -0.0691 -0.0417 -0.1668
  123loPI   PO4 1956   2.085   5.782  10.534 -0.3559 -0.3997 -0.3377
  123loPI   GL1 1957   2.123   6.126  10.309 -0.1102  0.1580  0.2381
  123loPI   GL2 1958   2.449   6.023  10.131  0.1433  0.3721  0.1311
  123loPI   C1A 1959   2.046   6.056   9.896  0.1109  0.1148  0.1611
  123loPI   C2A 1960   2.129   6.050   9.472  0.2278 -0.0273 -0.1743
  123loPI   C3A 1961   2.243   5.979   9.033 -0.3870  0.1321  0.4573
  123loPI   C4A 1962   1.978   5.910   8.643 -0.0838  0.0160  0.1273
  123loPI   C5A 1963   1.625   5.946   8.458  0.0528  0.0096 -0.0064
  123loPI   C6A 1964   1.438   6.014   8.013 -0.3129  0.1957  0.3395
  123loPI   C1B 1965   2.649   6.037   9.721 -0.0861 -0.2933  0.1189
  123loPI   C2B 1966   2.648   5.984   9.319 -0.0792 -0.3808  0.0326
  123loPI   C3B 1967   2.668   6.014   8.762 -0.0631 -0.1641  0.0956
  123loPI   C4B 1968   2.470   5.945   8.383 -0.0082 -0.0158 -0.2506
  124loPI    C1 1969   1.998  11.041  10.655  0.0192 -0.3852 -0.1534
  124loPI    C2 1970   1.783  10.877  10.951  0.0734  0.0255  0.1223
  124loPI    C3 1971   2.153  11.012  11.023  0.0636  0.1867 -0.1175
  124loPI   PO4 1972   1.828  11.212  10.558 -0.0867  0.1257  0.1360
  124loPI   GL1 1973   1.722  11.073  10.119 -0.0531  0.0088 -0.4822
  124loPI   GL2 1974   1.331  11.102  10.183  0.1072 -0.2032  0.2010
  124loPI   C1A 1975   1.665  10.683   9.967 -0.1824  0.2375 -0.2624
  124loPI   C2A 1976   1.620  10.541   9.599 -0.1603 -0.1409  0.0725
  124loPI   C3A 1977   1.540  10.544   9.173 -0.0496 -0.0574 -0.0761
  124loPI   C4A 1978   1.461  10.615   8.745  0.0760  0.0597  0.2399
  124loPI   C5A 1979   1.456  10.583   8.357 -0.1586  0.1920  0.0655
  124loPI   C6A 1980   1.311  10.519   8.041 -0.4900 -0.1417  0.1395
  124loPI   C1B 1981   1.384  11.035   9.702 -0.1573 -0.3968 -0.1546
  124loPI   C2B 1982   1.305  10.967   9.288  0.2604  0.0594  0.0969
  124loPI   C3B 1983   1.250  11.093   8.837 -0.1539  0.0878  0.0982
  124loPI   C4B 1984   1.179  10.991   8.436  0.3716  0.2076 -0.5591
  125loPI    C1 1985   2.829   2.326  10.135 -0.0540 -0.0252  0.0074
  125loPI    C2 1986   2.954   2.110  10.448 -0.0485 -0.2276 -0.1327
  125loPI    C3 1987   2.581   2.254  10.441 -0.0612 -0.2559 -0.0514
  125loPI   PO4 1988   2.845   2.186   9.943  0.1833 -0.0385 -0.0545
  125loPI   GL1 1989   2.820   2.164   9.598  0.1021  0.0205 -0.1901
  125loPI   GL2 1990   2.476   2.192   9.526 -0.0945  0.0180  0.0895
  125loPI   C1A 1991   2.850   2.325   9.212  0.0279 -0.2573 -0.2232
  125loPI   C2A 1992   2.794   2.337   8.742 -0.1503 -0.2277  0.2924
  125loPI   C3A 1993   2.953   2.282   8.318 -0.3389  0.0342 -0.2433
  125loPI   C4A 1994   3.089   2.321   7.874  0.1849  0.2136  0.1168
  125loPI   C5A 1995   3.455   2.005   7.761 -0.1519 -0.0746 -0.0119
  125loPI   C6A 1996   3.816   1.765   7.628 -0.0056 -0.1157 -0.1116
  125loPI   C1B 1997   2.369   2.344   9.127 -0.4071 -0.1975 -0.1870
  125loPI   C2B 1998   2.308   2.320   8.704  0.2058  0.2111 -0.2823
  125loPI   C3B 1999   2.324   2.300   8.301 -0.0305 -0.0138 -0.0982
  125loPI   C4B 2000   2.569   2.097   7.904 -0.1431 -0.0566 -0.2931
  126loPI    C1 2001   7.670  16.084  10.212  0.2598  0.3878  0.1562
  126loPI    C2 2002   7.808  15.754  10.391  0.2820  0.4072  0.1748
  126loPI    C3 2003   7.587  16.016  10.597 -0.2303  0.1187  0.0129
  126loPI   PO4 2004   7.888  16.133  10.069  0.2064  0.2119 -0.1125
  126loPI   GL1 2005   7.838  16.044   9.698 -0.1885  0.0381  0.2191
  126loPI   GL2 2006   7.783  15.667   9.882 -0.0325 -0.0758 -0.1106
  126loPI   C1A 2007   7.672  16.161   9.300  0.0156  0.1576  0.3006
  126loPI   C2A 2008   7.674  15.921   8.973  0.0448 -0.0096  0.3392
  126loPI   C3A 2009   7.642  16.029   8.630  0.4211  0.1248  0.1289
  126loPI   C4A 2010   7.511  16.242   8.193  0.1666  0.1585  0.3218
  126loPI   C5A 2011   7.518  15.976   7.826  0.0125 -0.0502  0.0535
  126loPI   C6A 2012   7.377  15.831   7.495 -0.1938  0.3901  0.4748
  126loPI   C1B 2013   7.585  15.635   9.383  0.1434  0.0599  0.0982
  126loPI   C2B 2014   7.579  15.454   9.007 -0.3992  0.2186  0.1600
  126loPI   C3B 2015   7.611  15.493   8.612  0.3695 -0.0789  0.0486
  126loPI   C4B 2016   7.732  15.662   8.249  0.0202 -0.1120  0.1885
  127loPI    C1 2017   0.352  12.153  10.789  0.1862 -0.2620 -0.1864
  127loPI    C2 2018   0.624  12.038  11.059  0.0665 -0.0328  0.0369
  127loPI    C3 2019   0.257  11.877  11.063  0.1659 -0.2732 -0.2046
  127loPI   PO4 2020   0.493  12.146  10.598 -0.1289  0.0728  0.3408
  127loPI   GL1 2021   0.600  12.389  10.180  0.1276  0.0737  0.0854
  127loPI   GL2 2022   0.671  12.048  10.175 -0.1769 -0.1902  0.1193
  127loPI   C1A 2023   0.647  12.401   9.675 -0.0556  0.0135  0.3152
  127loPI   C2A 2024   0.577  12.343   9.216  0.2360 -0.1563 -0.1772
  127loPI   C3A 2025   0.540  12.427   8.835  0.0414  0.1541 -0.0027
  127loPI   C4A 2026   0.482  12.570   8.355  0.0901  0.2398  0.4049
  127loPI   C5A 2027   0.551  12.267   8.034 -0.1642 -0.0622  0.5055
  127loPI   C6A 2028   0.383  11.914   7.779 -0.0682 -0.1509  0.0673
  127loPI   C1B 2029   0.821  11.944   9.737 -0.0627  0.3873 -0.5217
  127loPI   C2B 2030   0.843  11.959   9.287 -0.1842  0.1001  0.1115
  127loPI   C3B 2031   0.734  11.936   8.841  0.1667  0.3372 -0.3510
  127loPI   C4B 2032   0.842  12.072   8.460  0.1544 -0.1169  0.0570
  128loPI    C1 2033  11.672  13.462  10.176  0.0516 -0.2526 -0.0873
  128loPI    C2 2034  11.909  13.583  10.474 -0.0887 -0.0821 -0.0431
  128loPI    C3 2035  11.726  13.228  10.496  0.0151 -0.1330  0.0071
  128loPI   PO4 2036  11.820  13.535   9.959 -0.1851  0.0450 -0.3392
  128loPI   GL1 2037  11.855  13.811   9.649 -0.0265  0.0884 -0.1722
  128loPI   GL2 2038  12.176  13.754   9.648  0.0202  0.0492 -0.0150
  128loPI   C1A 2039  11.791  13.841   9.253 -0.2431 -0.1185  0.1417
  128loPI   C2A 2040  11.863  13.908   8.764  0.0251 -0.1008 -0.0066
  128loPI   C3A 2041  11.880  13.783   8.328 -0.1112  0.0154 -0.0097
  128loPI   C4A 2042  11.931  13.307   8.156  0.3818 -0.1045 -0.2149
  128loPI   C5A 2043  11.899  13.059   7.819  0.1552  0.0938  0.0339
  128loPI   C6A 2044  11.788  13.144   7.456 -0.0223  0.2084 -0.0572
  128loPI   C1B 2045  12.242  13.652   9.223  0.2155 -0.0662  0.2852
  128loPI   C2B 2046  12.400  13.725   8.812  0.2618  0.2381 -0.3273
  128loPI   C3B 2047  12.488  13.598   8.499  0.0514  0.0141  0.0544
  128loPI   C4B 2048  12.557  13.661   8.063  0.3176  0.0608 -0.3361
  129loPI    C1 2049   7.597  14.718  10.358 -0.3663  0.1293  0.1071
  129loPI    C2 2050   7.776  14.507  10.647 -0.0200 -0.0340 -0.2172
  129loPI    C3 2051   7.573  14.839  10.739  0.0597 -0.0977  0.2132
  129loPI   PO4 2052   7.710  14.860  10.166 -0.1403 -0.0973  0.4807
  129loPI   GL1 2053   7.821  14.889   9.747  0.0220  0.2337  0.0749
  129loPI   GL2 2054   7.753  15.082   9.662 -0.0781  0.0680 -0.0953
  129loPI   C1A 2055   7.601  14.768   9.304 -0.2163 -0.0062 -0.1463
  129loPI   C2A 2056   7.426  14.736   8.871  0.3207  0.4576 -0.3085
  129loPI   C3A 2057   7.367  14.635   8.519  0.4364  0.1128  0.0400
  129loPI   C4A 2058   7.265  14.750   8.132  0.0151  0.0027  0.1071
  129loPI   C5A 2059   7.506  14.876   7.727  0.0179 -0.0057  0.0635
  129loPI   C6A 2060   7.918  14.878   7.662 -0.1280 -0.0682 -0.1153
  129loPI   C1B 2061   7.939  15.248   9.298  0.0386 -0.2016 -0.0647
  129loPI   C2B 2062   8.064  15.225   8.863 -0.1238 -0.2564  0.0313
  129loPI   C3B 2063   8.037  15.278   8.407  0.1026 -0.0983  0.0459
  129loPI   C4B 2064   8.175  15.176   7.988 -0.4622 -0.1748 -0.1279
  130loPI    C1 2065  11.281   4.539  10.537 -0.0184 -0.1977  0.0589
  130loPI    C2 2066  11.656   4.397  10.531 -0.0236 -0.2092 -0.0006
  130loPI    C3 2067  11.464   4.441  10.879  0.1854  0.1996  0.0689
  130loPI   PO4 2068  11.331   4.783  10.309  0.1482  0.3693 -0.2425
  130loPI   GL1 2069  11.102   4.792   9.817  0.2659 -0.1990 -0.1433
  130loPI   GL2 2070  10.899   5.051   9.748 -0.1843  0.2652 -0.1322
  130loPI   C1A 2071  11.011   4.776   9.385 -0.1169  0.1161  0.0000
  130loPI   C2A 2072  11.014   4.891   8.996 -0.1400  0.2531  0.1553
  130loPI   C3A 2073  11.260   4.951   8.616 -0.0699  0.1839  0.0567
  130loPI   C4A 2074  11.307   5.066   8.259 -0.1082  0.0440 -0.2684
  130loPI   C5A 2075  11.596   5.363   8.045 -0.2613  0.0151  0.0767
  130loPI   C6A 2076  11.991   5.474   7.891  0.0930 -0.0109  0.0142
  130loPI   C1B 2077  10.861   5.253   9.348  0.0014  0.1222 -0.0037
  130loPI   C2B 2078  11.030   5.371   8.960  0.0229  0.2278  0.1397
  130loPI   C3B 2079  11.006   5.356   8.563 -0.1351  0.1147  0.2104
  130loPI   C4B 2080  11.134   5.539   8.191  0.2682  0.1603  0.0159
  131loPI    C1 2081   3.164  13.243  10.542  0.0783  0.0287  0.2738
  131loPI    C2 2082   3.385  12.933  10.664  0.1722 -0.0642 -0.1191
  131loPI    C3 2083   3.528  13.305  10.697  0.2654 -0.1013 -0.0999
  131loPI   PO4 2084   3.111  13.168  10.329 -0.2261 -0.1806  0.2305
  131loPI   GL1 2085   2.801  13.290  10.039 -0.3109  0.0734  0.1082
  131loPI   GL2 2086   2.724  13.661   9.891  0.0965  0.0261  0.1698
  131loPI   C1A 2087   2.723  13.090   9.678 -0.3406 -0.1065 -0.0684
  131loPI   C2A 2088   2.602  13.021   9.213 -0.0003  0.2149 -0.1901
  131loPI   C3A 2089   2.461  12.839   8.821  0.5210  0.1700  0.0385
  131loPI   C4A 2090   2.388  12.772   8.407 -0.0822 -0.0572 -0.1099
  131loPI   C5A 2091   2.478  12.574   8.059 -0.0174  0.2157  0.6598
  131loPI   C6A 2092   2.261  12.570   7.663  0.1109  0.0983  0.1031
  131loPI   C1B 2093   2.734  13.490   9.394 -0.0888 -0.0541 -0.1415
  131loPI   C2B 2094   2.652  13.409   8.933  0.0157  0.1458 -0.2955
  131loPI   C3B 2095   2.735  13.275   8.532 -0.2402  0.1472 -0.2283
  131loPI   C4B 2096   2.691  13.216   8.073 -0.1263  0.0372 -0.2413
  132loPI    C1 2097   4.129   9.567  10.655  0.0352 -0.1416  0.1615
  132loPI    C2 2098   4.141   9.398  11.018  0.3345 -0.2156  0.1199
  132loPI    C3 2099   4.179   9.795  10.980 -0.0413 -0.1691  0.1926
  132loPI   PO4 2100   3.931   9.402  10.577 -0.2553 -0.2179  0.4234
  132loPI   GL1 2101   3.804   9.366  10.064  0.0094 -0.3338  0.3295
  132loPI   GL2 2102   3.785   9.717  10.254  0.0510  0.2120 -0.0673
  132loPI   C1A 2103   4.003   9.478   9.591 -0.2547 -0.0057 -0.0302
  132loPI   C2A 2104   3.717   9.682   9.235  0.0964  0.2087 -0.1053
  132loPI   C3A 2105   3.622   9.607   8.703 -0.0298  0.0294 -0.0272
  132loPI   C4A 2106   3.601   9.857   8.253 -0.0524  0.0036 -0.0550
  132loPI   C5A 2107   3.762  10.080   7.979  0.0849  0.1132 -0.4558
  132loPI   C6A 2108   3.932  10.265   7.536 -0.2547 -0.0086 -0.0317
  132loPI   C1B 2109   3.643   9.854   9.754  0.1195  0.0642  0.0646
  132loPI   C2B 2110   3.282   9.743   9.485  0.0110 -0.1299 -0.1696
  132loPI   C3B 2111   3.204   9.634   9.000  0.0458  0.1822  0.1934
  132loPI   C4B 2112   3.047   9.676   8.615 -0.2109 -0.1199 -0.1520
  133loPI    C1 2113   2.196  10.072  10.624  0.2801 -0.0954 -0.1048
  133loPI    C2 2114   2.373  10.197  10.960  0.0695 -0.0049 -0.0257
  133loPI    C3 2115   2.294   9.808  10.909  0.0241 -0.0083  0.0678
  133loPI   PO4 2116   2.341  10.166  10.431  0.1923  0.0815 -0.1687
  133loPI   GL1 2117   2.571  10.210  10.170  0.1705  0.3602 -0.3711
  133loPI   GL2 2118   2.738  10.380   9.989  0.1153  0.1740  0.0319
  133loPI   C1A 2119   2.496  10.067   9.703 -0.0139  0.1731  0.1910
  133loPI   C2A 2120   2.549  10.084   9.289 -0.3258  0.0946 -0.1006
  133loPI   C3A 2121   2.406  10.033   8.819  0.0223  0.1057  0.0093
  133loPI   C4A 2122   2.153  10.067   8.614  0.1821 -0.2225  0.0034
  133loPI   C5A 2123   2.056  10.171   8.119 -0.1255  0.2015  0.0923
  133loPI   C6A 2124   2.070  10.275   7.685  0.1271 -0.2120 -0.2272
  133loPI   C1B 2125   2.679  10.591   9.617  0.2820 -0.0171 -0.2976
  133loPI   C2B 2126   2.656  10.545   9.161  0.3011 -0.1325  0.0992
  133loPI   C3B 2127   2.561  10.490   8.726  0.3925  0.2712 -0.0094
  133loPI   C4B 2128   2.444  10.477   8.296  0.0054 -0.1354  0.1134
  134loPI    C1 2129   5.441   9.147  10.319  0.1294  0.2610 -0.0180
  134loPI    C2 2130   5.223   9.335  10.597 -0.0719  0.2086 -0.1382
  134loPI    C3 2131   5.512   9.082  10.707  0.0035  0.3627  0.0228
  134loPI   PO4 2132   5.396   9.276  10.109 -0.1050  0.0977 -0.1200
  134loPI   GL1 2133   5.344   9.168   9.662 -0.0408 -0.2280 -0.1524
  134loPI   GL2 2134   5.025   9.344   9.700  0.1907 -0.4435  0.0395
  134loPI   C1A 2135   5.296   9.171   9.298  0.1856  0.1374  0.0677
  134loPI   C2A 2136   5.178   9.252   8.951  0.0081 -0.2198  0.2056
  134loPI   C3A 2137   5.045   9.191   8.557 -0.0902 -0.0478  0.1485
  134loPI   C4A 2138   4.654   9.194   8.266 -0.0213 -0.2102  0.1317
  134loPI   C5A 2139   4.269   9.226   8.158 -0.0760  0.3349  0.3005
  134loPI   C6A 2140   3.822   9.313   8.286  0.3739  0.0324 -0.0520
  134loPI   C1B 2141   4.933   8.934   9.522 -0.2052 -0.2379 -0.0608
  134loPI   C2B 2142   5.000   8.735   9.187 -0.0745  0.0368 -0.1320
  134loPI   C3B 2143   4.891   8.792   8.819  0.2915 -0.1971 -0.1252
  134loPI   C4B 2144   4.948   8.664   8.420  0.3287  0.1142  0.1879
  135loPI    C1 2145   1.231   3.486  10.700  0.1243  0.0939 -0.0584
  135loPI    C2 2146   1.149   3.724  10.389 -0.1426 -0.0066 -0.0679
  135loPI    C3 2147   1.223   3.882  10.749 -0.1015  0.0988 -0.1222
  135loPI   PO4 2148   1.299   3.273  10.544 -0.0650  0.2058 -0.1812
  135loPI   GL1 2149   1.260   3.310  10.166 -0.0648 -0.1566  0.1669
  135loPI   GL2 2150   1.650   3.278  10.101  0.0641 -0.1516  0.0336
  135loPI   C1A 2151   1.213   3.593   9.852  0.0342  0.1458 -0.0468
  135loPI   C2A 2152   1.217   3.786   9.508  0.2183  0.1970 -0.0808
  135loPI   C3A 2153   1.042   3.799   9.068  0.0241  0.0463 -0.0802
  135loPI   C4A 2154   0.999   3.705   8.692 -0.2271 -0.1065 -0.2328
  135loPI   C5A 2155   1.010   3.588   8.270  0.3612 -0.1634  0.1867
  135loPI   C6A 2156   0.842   3.835   7.879 -0.0820  0.4019 -0.0799
  135loPI   C1B 2157   1.639   3.281   9.656  0.0463  0.1929  0.3180
  135loPI   C2B 2158   1.411   3.233   9.342 -0.0055  0.2490 -0.0210
  135loPI   C3B 2159   1.436   3.249   8.791 -0.0272 -0.0526 -0.2892
  135loPI   C4B 2160   1.285   3.179   8.433  0.1833 -0.0418  0.0019
  136loPI    C1 2161   0.724   1.696  10.551 -0.2165 -0.0884  0.1623
  136loPI    C2 2162   0.753   2.008  10.800  0.1854  0.1625 -0.1858
  136loPI    C3 2163   0.915   1.657  10.899 -0.1474  0.0969  0.1466
  136loPI   PO4 2164   0.895   1.907  10.303  0.1913 -0.0881 -0.1578
  136loPI   GL1 2165   1.238   1.932  10.004 -0.2253 -0.1958 -0.2569
  136loPI   GL2 2166   1.209   1.630   9.974  0.2856  0.1215 -0.0401
  136loPI   C1A 2167   1.208   2.000   9.606  0.1836 -0.0795 -0.1830
  136loPI   C2A 2168   1.117   1.864   9.265  0.1806  0.1565 -0.0982
  136loPI   C3A 2169   1.071   1.987   8.856  0.0964 -0.0588  0.1017
  136loPI   C4A 2170   0.927   1.931   8.465  0.2534  0.3034  0.1195
  136loPI   C5A 2171   0.993   1.791   8.052 -0.2343 -0.0932  0.2646
  136loPI   C6A 2172   0.787   1.690   7.632 -0.3083  0.2026 -0.1498
  136loPI   C1B 2173   0.915   1.487   9.642 -0.1300 -0.2594 -0.1950
  136loPI   C2B 2174   0.709   1.468   9.145  0.1249 -0.0327  0.0361
  136loPI   C3B 2175   0.657   1.590   8.669  0.1053  0.2014  0.1960
  136loPI   C4B 2176   0.620   1.543   8.197  0.1168  0.1672 -0.1652
  137loPI    C1 2177  11.856   0.216  10.421 -0.2491  0.0370 -0.0556
  137loPI    C2 2178  11.884   0.413  10.768 -0.0063 -0.2094  0.0682
  137loPI    C3 2179  12.017   0.037  10.740  0.0297 -0.1724 -0.3084
  137loPI   PO4 2180  11.851   0.486  10.243 -0.0680  0.0692 -0.2174
  137loPI   GL1 2181  11.613   0.629  10.005 -0.0592 -0.0907 -0.1945
  137loPI   GL2 2182  11.504   0.272   9.993  0.0146  0.2121 -0.2571
  137loPI   C1A 2183  11.751   0.472   9.524  0.0321  0.0127 -0.0979
  137loPI   C2A 2184  11.650   0.515   9.213  0.5764 -0.1869  0.4737
  137loPI   C3A 2185  11.757   0.531   8.848 -0.0818 -0.2176  0.0295
  137loPI   C4A 2186  11.767   0.809   8.376  0.2338 -0.2086  0.3769
  137loPI   C5A 2187  11.702   1.251   8.100 -0.2650  0.3139  0.0604
  137loPI   C6A 2188  11.822   1.344   7.729  0.1922  0.1726  0.1805
  137loPI   C1B 2189  11.286   0.309   9.634 -0.0681  0.2135  0.0589
  137loPI   C2B 2190  11.163   0.517   9.314 -0.1497 -0.1741 -0.0295
  137loPI   C3B 2191  11.225   0.520   8.894  0.0131  0.1718 -0.1645
  137loPI   C4B 2192  11.353   0.540   8.461 -0.0153  0.2053 -0.2577
  138loPI    C1 2193   9.125  15.151  10.238  0.2685  0.0971  0.0464
  138loPI    C2 2194   9.402  14.894  10.370  0.0583 -0.2175 -0.1137
  138loPI    C3 2195   9.124  15.036  10.621  0.1101 -0.2309 -0.0487
  138loPI   PO4 2196   9.011  15.026   9.999 -0.2487 -0.1552 -0.0088
  138loPI   GL1 2197   8.807  15.189   9.618 -0.1009  0.0029  0.1504
  138loPI   GL2 2198   8.762  14.860   9.561 -0.1816  0.0666  0.0725
  138loPI   C1A 2199   8.738  15.624   9.302 -0.1788  0.0918  0.0694
  138loPI   C2A 2200   8.854  15.727   8.872 -0.2479  0.1587  0.4588
  138loPI   C3A 2201   8.939  15.657   8.460  0.0187 -0.1121  0.1042
  138loPI   C4A 2202   8.707  15.274   8.149  0.0038 -0.0071 -0.0528
  138loPI   C5A 2203   8.580  14.818   8.163 -0.4399 -0.1345 -0.3093
  138loPI   C6A 2204   8.433  14.580   7.803 -0.0591  0.0728  0.1576
  138loPI   C1B 2205   8.811  14.812   9.104  0.2104  0.1446 -0.0982
  138loPI   C2B 2206   8.895  14.604   8.627  0.2135  0.2967  0.2245
  138loPI   C3B 2207   8.976  14.503   8.098 -0.0739 -0.1375  0.0709
  138loPI   C4B 2208   9.029  14.370   7.681 -0.2313  0.1160 -0.1998
  139loPI    C1 2209  14.296   6.012  11.248  0.0885 -0.0837  0.2230
  139loPI    C2 2210  14.277   5.700  11.497 -0.1244 -0.0382  0.2650
  139loPI    C3 2211  14.156   6.061  11.619 -0.1158  0.0090  0.1351
  139loPI   PO4 2212  14.162   5.933  11.049  0.1712 -0.0404  0.1330
  139loPI   GL1 2213  14.249   5.891  10.648  0.0482 -0.0780  0.0530
  139loPI   GL2 2214  14.024   6.122  10.549 -0.1667 -0.2479  0.1241
  139loPI   C1A 2215  14.348   5.704  10.185 -0.1546  0.0951 -0.0856
  139loPI   C2A 2216  14.281   5.781   9.799  0.5623  0.2564 -0.1038
  139loPI   C3A 2217  14.392   5.754   9.385 -0.0432 -0.2861  0.0667
  139loPI   C4A 2218  14.419   5.789   9.039 -0.1853 -0.0609  0.0300
  139loPI   C5A 2219  14.426   5.745   8.638  0.1279  0.2164 -0.2704
  139loPI   C6A 2220  14.254   5.601   8.221 -0.2002 -0.1219  0.1981
  139loPI   C1B 2221  14.127   6.136  10.112 -0.0001 -0.1188  0.0275
  139loPI   C2B 2222  14.124   6.257   9.722  0.1745  0.3189  0.2976
  139loPI   C3B 2223  14.189   6.195   9.299 -0.1725 -0.0827  0.3071
  139loPI   C4B 2224  14.160   6.331   8.932 -0.0806  0.1574  0.1620
  140loPI    C1 2225   8.253  13.763  10.477  0.1632 -0.1336  0.2107
  140loPI    C2 2226   8.579  13.791  10.247  0.0684 -0.0229  0.0888
  140loPI    C3 2227   8.603  13.873  10.637  0.1774  0.0262  0.0725
  140loPI   PO4 2228   8.056  13.819  10.280  0.1051  0.3688  0.0959
  140loPI   GL1 2229   7.860  13.757   9.777 -0.0072  0.0874  0.2738
  140loPI   GL2 2230   7.659  13.880   9.775  0.1476  0.2325 -0.1127
  140loPI   C1A 2231   7.838  13.629   9.350  0.0746 -0.0088  0.1407
  140loPI   C2A 2232   7.848  13.671   8.928 -0.2153 -0.0543 -0.3052
  140loPI   C3A 2233   7.688  13.786   8.547 -0.3531 -0.1867  0.1373
  140loPI   C4A 2234   7.629  13.811   8.148  0.2508  0.0645 -0.0256
  140loPI   C5A 2235   7.593  14.021   7.840  0.0243  0.2222  0.0741
  140loPI   C6A 2236   7.651  14.451   7.898  0.0635  0.2469 -0.0782
  140loPI   C1B 2237   7.481  13.917   9.416 -0.0999  0.2237 -0.1875
  140loPI   C2B 2238   7.475  13.990   9.084 -0.1702 -0.3809 -0.1738
  140loPI   C3B 2239   7.413  14.163   8.711 -0.0895  0.2439  0.5195
  140loPI   C4B 2240   7.376  14.199   8.198  0.1420  0.1130 -0.0864
  141loPI    C1 2241  10.982  16.830  10.106 -0.0309  0.1835 -0.0220
  141loPI    C2 2242  10.588  16.790  10.159 -0.0316  0.1792 -0.0304
  141loPI    C3 2243  10.781  17.102  10.319 -0.0648  0.2663 -0.1584
  141loPI   PO4 2244  11.032  16.734   9.902  0.1579 -0.0706 -0.1362
  141loPI   GL1 2245  11.161  16.630   9.464 -0.1656  0.5024 -0.0059
  141loPI   GL2 2246  10.911  16.334   9.557 -0.1797 -0.2240  0.1153
  141loPI   C1A 2247  11.063  16.623   9.037  0.3393  0.2103 -0.0696
  141loPI   C2A 2248  10.940  16.697   8.744 -0.0310  0.1608  0.2264
  141loPI   C3A 2249  10.965  16.868   8.319 -0.0764 -0.0728 -0.1046
  141loPI   C4A 2250  10.888  16.922   7.897  0.3885 -0.1143  0.3722
  141loPI   C5A 2251  10.592  16.818   7.562  0.1035  0.2744 -0.0101
  141loPI   C6A 2252  10.405  16.567   7.202  0.2089 -0.1017  0.1553
  141loPI   C1B 2253  10.854  16.208   9.100 -0.0677 -0.0879  0.2193
  141loPI   C2B 2254  10.774  16.211   8.726  0.2095 -0.1837 -0.2366
  141loPI   C3B 2255  10.633  16.094   8.391  0.1210  0.0957 -0.0153
  141loPI   C4B 2256  10.716  15.953   7.888  0.1968 -0.0392  0.1353
  142loPI    C1 2257   3.323  18.222  10.540 -0.3101 -0.1028  0.2350
  142loPI    C2 2258   3.707  18.120  10.585 -0.2228  0.0667 -0.0950
  142loPI    C3 2259   3.419  17.874  10.714 -0.0062 -0.0558  0.1664
  142loPI   PO4 2260   3.393  18.341  10.227  0.4384  0.0354  0.1100
  142loPI   GL1 2261   3.244  18.117   9.907 -0.1203  0.2835  0.2623
  142loPI   GL2 2262   2.993  18.320   9.720 -0.1304  0.1254 -0.3277
  142loPI   C1A 2263   3.304  17.941   9.490  0.1345  0.2681 -0.1746
  142loPI   C2A 2264   3.248  17.890   8.998 -0.0059 -0.3352 -0.2737
  142loPI   C3A 2265   3.229  17.956   8.593 -0.1855 -0.1002  0.2077
  142loPI   C4A 2266   3.200  17.946   8.236  0.2391 -0.1394 -0.0528
  142loPI   C5A 2267   3.146  17.767   7.807  0.3381 -0.0231  0.1752
  142loPI   C6A 2268   3.131  17.985   7.498 -0.2439 -0.0351 -0.0347
  142loPI   C1B 2269   3.181  18.461   9.272  0.4771  0.4093 -0.2036
  142loPI   C2B 2270   3.029  18.354   8.867 -0.2099 -0.1661  0.0424
  142loPI   C3B 2271   2.943  18.390   8.418 -0.2727  0.0197  0.1068
  142loPI   C4B 2272   2.895  18.286   7.963  0.0611  0.0566 -0.2487
  143loPI    C1 2273  10.126  16.663  10.419 -0.0145  0.1711 -0.2860
  143loPI    C2 2274  10.146  16.827  10.783  0.0853 -0.1055 -0.1636
  143loPI    C3 2275  10.481  16.716  10.595  0.0269 -0.0573 -0.2973
  143loPI   PO4 2276  10.022  16.802  10.287  0.0343  0.0544 -0.1389
  143loPI   GL1 2277  10.134  16.836   9.893 -0.0932 -0.2204 -0.2383
  143loPI   GL2 2278   9.881  17.032   9.844 -0.0842 -0.0150 -0.2888
  143loPI   C1A 2279  10.165  16.957   9.378 -0.1917 -0.4487  0.1287
  143loPI   C2A 2280  10.214  17.026   8.884  0.1775 -0.0476 -0.0835
  143loPI   C3A 2281  10.347  17.076   8.523 -0.3316  0.4597 -0.0054
  143loPI   C4A 2282  10.373  17.319   8.093  0.3230 -0.0077 -0.2851
  143loPI   C5A 2283  10.321  17.629   7.780 -0.0121 -0.3908  0.2074
  143loPI   C6A 2284  10.777  17.830   7.689  0.2346  0.4228  0.1384
  143loPI   C1B 2285   9.650  16.933   9.473 -0.1119  0.1291  0.2072
  143loPI   C2B 2286   9.699  16.948   9.061  0.1010 -0.2942  0.5770
  143loPI   C3B 2287   9.715  16.976   8.631  0.0701 -0.2292  0.0140
  143loPI   C4B 2288   9.853  17.039   8.200 -0.2838  0.0939 -0.3107
  144loPI    C1 2289  13.313   9.882  10.531 -0.3452 -0.0737  0.1428
  144loPI    C2 2290  13.403  10.248  10.665 -0.1357 -0.0942  0.0615
  144loPI    C3 2291  13.364   9.945  10.922  0.0226 -0.0828  0.0999
  144loPI   PO4 2292  13.242   9.884  10.315 -0.2498 -0.0702 -0.2568
  144loPI   GL1 2293  13.442   9.541  10.077 -0.1998  0.1157 -0.0154
  144loPI   GL2 2294  13.807   9.517  10.176  0.0682  0.1795  0.1914
  144loPI   C1A 2295  13.542   9.462   9.619  0.0785 -0.2477 -0.0240
  144loPI   C2A 2296  13.608   9.416   9.144 -0.0665 -0.0748  0.0961
  144loPI   C3A 2297  13.548   9.418   8.683 -0.2611 -0.2443 -0.0285
  144loPI   C4A 2298  13.342   9.291   8.274  0.2916  0.0734  0.2242
  144loPI   C5A 2299  12.974   9.158   8.255  0.1354 -0.0326 -0.0150
  144loPI   C6A 2300  12.830   8.800   8.101  0.2952 -0.0785  0.1446
  144loPI   C1B 2301  14.003   9.305   9.954 -0.2877  0.3448 -0.1060
  144loPI   C2B 2302  14.029   9.403   9.515 -0.3422  0.0895 -0.1752
  144loPI   C3B 2303  14.157   9.313   9.176 -0.0581 -0.2005 -0.2734
  144loPI   C4B 2304  14.079   9.344   8.714  0.0478  0.1336 -0.0456
  145loPI    C1 2305  12.253   8.049  10.953 -0.0626 -0.3589  0.0115
  145loPI    C2 2306  12.021   7.906  11.246 -0.1131  0.1696  0.2408
  145loPI    C3 2307  12.345   8.122  11.335  0.1843 -0.1264 -0.0897
  145loPI   PO4 2308  12.137   8.167  10.793  0.0724 -0.1468 -0.1625
  145loPI   GL1 2309  12.327   8.425  10.427  0.4175 -0.0725 -0.2687
  145loPI   GL2 2310  12.035   8.326  10.347  0.3531  0.3159  0.3138
  145loPI   C1A 2311  12.409   8.499   9.987 -0.0715  0.0331  0.1325
  145loPI   C2A 2312  12.209   8.564   9.603 -0.1524 -0.1507 -0.4583
  145loPI   C3A 2313  12.279   8.516   9.230 -0.1575 -0.0972 -0.1227
  145loPI   C4A 2314  12.491   8.555   8.839  0.1548  0.0754  0.0144
  145loPI   C5A 2315  12.454   8.497   8.357  0.2041  0.0416 -0.2040
  145loPI   C6A 2316  12.184   8.243   8.103  0.0277  0.1602  0.2380
  145loPI   C1B 2317  12.059   8.187   9.919  0.0102  0.1826 -0.0105
  145loPI   C2B 2318  12.056   8.112   9.401 -0.1651 -0.0647 -0.1762
  145loPI   C3B 2319  12.207   8.053   8.982  0.1211  0.1767 -0.3311
  145loPI   C4B 2320  12.306   8.019   8.528  0.0235  0.2865  0.1940
  146loPI    C1 2321  17.204  11.358  10.874  0.0617 -0.0034  0.0255
  146loPI    C2 2322  17.350  11.475  11.228  0.0206 -0.0743  0.0663
  146loPI    C3 2323  16.966  11.540  11.139  0.0457 -0.0011  0.0096
  146loPI   PO4 2324  17.228  11.140  10.826 -0.3507 -0.2371 -0.1592
  146loPI   GL1 2325  17.092  11.132  10.430 -0.0134 -0.0442  0.0265
  146loPI   GL2 2326  17.457  11.150  10.383 -0.1174  0.0656 -0.0391
  146loPI   C1A 2327  17.081  11.196  10.042  0.1239 -0.1574  0.3084
  146loPI   C2A 2328  17.060  11.113   9.529 -0.3007  0.0406  0.1929
  146loPI   C3A 2329  17.208  11.182   9.130  0.1989 -0.2500 -0.3221
  146loPI   C4A 2330  17.162  11.088   8.655  0.3995  0.0870  0.1022
  146loPI   C5A 2331  16.978  10.911   8.242  0.0386  0.2192 -0.0256
  146loPI   C6A 2332  17.207  10.820   7.867 -0.0702 -0.0527 -0.0391
  146loPI   C1B 2333  17.605  11.246   9.968 -0.2612 -0.0222 -0.2033
  146loPI   C2B 2334  17.617  11.213   9.453 -0.0917 -0.1506  0.2287
  146loPI   C3B 2335  17.731  11.160   9.115  0.2798 -0.3100  0.1029
  146loPI   C4B 2336  17.683  10.945   8.672 -0.0893  0.1452  0.0664
  147loPI    C1 2337   2.856   8.228  10.684 -0.1046 -0.0595  0.0337
  147loPI    C2 2338   3.137   8.011  10.868  0.0488  0.1387  0.0365
  147loPI    C3 2339   2.753   7.906  10.897  0.1140 -0.0869  0.1010
  147loPI   PO4 2340   2.878   8.268  10.459 -0.0760 -0.2245 -0.2195
  147loPI   GL1 2341   2.772   8.232  10.099 -0.1664  0.1871 -0.0560
  147loPI   GL2 2342   2.599   7.944  10.029  0.1078 -0.1881  0.0642
  147loPI   C1A 2343   3.038   8.125   9.762  0.0697  0.0520  0.0434
  147loPI   C2A 2344   2.939   8.177   9.308 -0.1533  0.2653  0.1758
  147loPI   C3A 2345   2.925   8.289   8.878 -0.1915  0.2919 -0.1073
  147loPI   C4A 2346   2.842   8.177   8.457  0.1962  0.2114  0.0156
  147loPI   C5A 2347   2.623   8.340   8.151 -0.0639  0.3466 -0.1172
  147loPI   C6A 2348   2.503   8.249   7.716  0.2065  0.2555 -0.1127
  147loPI   C1B 2349   2.696   7.801   9.654  0.0849 -0.4101  0.1128
  147loPI   C2B 2350   2.599   7.740   9.220 -0.4198  0.0036  0.0709
  147loPI   C3B 2351   2.642   7.837   8.821  0.2793  0.3558  0.1323
  147loPI   C4B 2352   2.470   7.798   8.330 -0.0620  0.0321 -0.2044
  148loPI    C1 2353  18.144  17.181  10.792  0.1720  0.2730  0.0948
  148loPI    C2 2354  17.789  17.331  10.898  0.2275  0.4496  0.0342
  148loPI    C3 2355  18.053  17.223  11.179  0.0019  0.0104  0.0856
  148loPI   PO4 2356  18.204  17.327  10.629  0.2527  0.0797  0.1501
  148loPI   GL1 2357  18.402  17.275  10.322 -0.2190 -0.1425  0.0399
  148loPI   GL2 2358  18.121  17.407  10.109  0.2559 -0.0942  0.0083
  148loPI   C1A 2359  18.552  17.305   9.825 -0.1131 -0.0806 -0.0603
  148loPI   C2A 2360  18.454  17.282   9.498  0.0560 -0.0511 -0.1400
  148loPI   C3A 2361  18.481  17.270   9.013 -0.0122  0.3276  0.3572
  148loPI   C4A 2362  18.494  16.983   8.578 -0.0801  0.3284 -0.4009
  148loPI   C5A 2363  18.481  17.148   8.144 -0.2417 -0.0820 -0.0343
  148loPI   C6A 2364  18.533  17.131   7.639 -0.1113  0.2473 -0.1735
  148loPI   C1B 2365  17.971  17.283   9.746  0.0722 -0.1628  0.0424
  148loPI   C2B 2366  17.991  17.334   9.295 -0.3547 -0.3208  0.1107
  148loPI   C3B 2367  17.923  17.251   8.837 -0.1888  0.1285 -0.1031
  148loPI   C4B 2368  18.008  17.152   8.361  0.2267 -0.0764 -0.0703
  149loPI    C1 2369   5.682   8.676  10.424 -0.1619  0.1216  0.3484
  149loPI    C2 2370   6.064   8.610  10.325 -0.2685 -0.1339  0.0933
  149loPI    C3 2371   5.953   8.966  10.470  0.0618 -0.0531  0.1542
  149loPI   PO4 2372   5.609   8.512  10.226  0.3675 -0.0118 -0.0794
  149loPI   GL1 2373   5.495   8.372   9.828 -0.0182 -0.2382 -0.1369
  149loPI   GL2 2374   5.324   8.672   9.740 -0.1159  0.2235  0.0778
  149loPI   C1A 2375   5.579   8.313   9.427  0.3921  0.0956  0.0392
  149loPI   C2A 2376   5.270   8.348   9.158  0.1010  0.0479 -0.2845
  149loPI   C3A 2377   4.974   8.329   8.843 -0.1645 -0.0646 -0.2678
  149loPI   C4A 2378   4.932   8.124   8.440  0.0156  0.1026  0.0153
  149loPI   C5A 2379   4.875   7.835   8.169  0.1269  0.2675  0.0303
  149loPI   C6A 2380   4.465   7.541   8.122 -0.2891  0.2516 -0.0008
  149loPI   C1B 2381   5.059   8.451   9.587 -0.0251  0.0934  0.0643
  149loPI   C2B 2382   4.799   8.273   9.343  0.1773  0.0467 -0.2834
  149loPI   C3B 2383   4.547   8.018   8.906  0.1268 -0.1373 -0.0848
  149loPI   C4B 2384   4.528   7.804   8.579  0.1141  0.0530  0.1251
  150loPI    C1 2385  12.352   7.623  10.901 -0.0621  0.1569 -0.0745
  150loPI    C2 2386  12.737   7.733  10.893 -0.0640  0.1557 -0.2096
  150loPI    C3 2387  12.553   7.672  11.243  0.0859  0.0607 -0.1467
  150loPI   PO4 2388  12.352   7.379  10.678  0.0326 -0.0133 -0.1836
  150loPI   GL1 2389  12.345   7.442  10.219  0.0807  0.1654 -0.0816
  150loPI   GL2 2390  12.485   7.177  10.202  0.0140 -0.2957  0.2492
  150loPI   C1A 2391  12.191   7.721   9.886  0.0395  0.0845  0.0912
  150loPI   C2A 2392  12.270   7.673   9.517  0.1098  0.0504  0.0981
  150loPI   C3A 2393  12.370   7.570   9.049  0.0657  0.0762 -0.0253
  150loPI   C4A 2394  12.433   7.497   8.595 -0.0772 -0.1701 -0.2539
  150loPI   C5A 2395  12.762   7.631   8.386  0.1666 -0.0238  0.0492
  150loPI   C6A 2396  13.160   7.403   8.349  0.1181 -0.0652 -0.1616
  150loPI   C1B 2397  12.525   7.271   9.804 -0.0703  0.0895  0.1850
  150loPI   C2B 2398  12.602   7.283   9.490  0.3393 -0.0567  0.2153
  150loPI   C3B 2399  12.706   7.132   8.994  0.2654  0.1390  0.1172
  150loPI   C4B 2400  12.781   7.196   8.576  0.0554 -0.3744  0.4547
  151loPI    C1 2401   8.298  14.237  10.130 -0.0459  0.0062 -0.0430
  151loPI    C2 2402   8.141  14.493   9.865  0.0841  0.0402 -0.0883
  151loPI    C3 2403   8.176  14.599  10.250 -0.1472 -0.0262 -0.0473
  151loPI   PO4 2404   8.443  14.074   9.872 -0.1519 -0.0429 -0.1578
  151loPI   GL1 2405   8.573  13.937   9.432 -0.2710  0.0639  0.1531
  151loPI   GL2 2406   8.360  13.744   9.455 -0.1255  0.1504  0.1133
  151loPI   C1A 2407   8.738  13.873   9.105 -0.3602  0.4600 -0.1113
  151loPI   C2A 2408   8.710  13.836   8.734  0.1304 -0.1055  0.0273
  151loPI   C3A 2409   8.755  13.833   8.382  0.0563  0.1957 -0.1868
  151loPI   C4A 2410   8.777  13.579   7.951 -0.2651  0.1378  0.1181
  151loPI   C5A 2411   8.846  13.848   7.606 -0.1658  0.2689  0.1656
  151loPI   C6A 2412   9.036  14.068   7.246 -0.1524 -0.3074 -0.3006
  151loPI   C1B 2413   8.280  13.858   9.037  0.1301  0.3505  0.0927
  151loPI   C2B 2414   8.231  13.765   8.587 -0.1283 -0.1680  0.0979
  151loPI   C3B 2415   8.302  13.638   8.158 -0.0402 -0.0452 -0.0551
  151loPI   C4B 2416   8.319  13.760   7.735 -0.1089 -0.5832 -0.0594
  152loPI    C1 2417   6.183   2.128  10.202  0.0263  0.3515  0.0862
  152loPI    C2 2418   5.805   2.218  10.107 -0.0460 -0.0416 -0.0163
  152loPI    C3 2419   5.882   1.924  10.367  0.1916  0.0129 -0.0225
  152loPI   PO4 2420   6.301   2.050   9.937  0.1166  0.0892  0.0496
  152loPI   GL1 2421   6.358   2.083   9.521 -0.1547  0.1903  0.2935
  152loPI   GL2 2422   6.314   1.832   9.387  0.1245 -0.0977  0.0506
  152loPI   C1A 2423   6.274   2.399   9.227 -0.0068  0.2887  0.0080
  152loPI   C2A 2424   6.182   2.593   8.811  0.2854  0.2917  0.0182
  152loPI   C3A 2425   6.181   2.648   8.417  0.1073  0.2610  0.1331
  152loPI   C4A 2426   5.908   2.405   8.146  0.0756 -0.1145  0.0981
  152loPI   C5A 2427   5.788   2.065   7.776  0.1953  0.2183 -0.2594
  152loPI   C6A 2428   5.411   1.916   7.857  0.1040  0.0908  0.1183
  152loPI   C1B 2429   6.225   1.929   8.909 -0.0100 -0.2148  0.0400
  152loPI   C2B 2430   6.124   2.042   8.507  0.0137  0.1825 -0.2932
  152loPI   C3B 2431   6.165   1.838   8.163  0.0422  0.0104 -0.2658
  152loPI   C4B 2432   6.522   1.748   7.831 -0.0069 -0.2409  0.0402
  153loPI    C1 2433  14.988   8.265  11.312 -0.0603 -0.0900 -0.1704
  153loPI    C2 2434  14.720   7.969  11.342  0.0793 -0.2083 -0.0777
  153loPI    C3 2435  15.047   7.967  11.573 -0.0958  0.2069  0.1859
  153loPI   PO4 2436  14.945   8.343  11.014  0.1147  0.1179  0.0564
  153loPI   GL1 2437  15.066   8.229  10.570  0.2309  0.0664 -0.1918
  153loPI   GL2 2438  15.205   8.537  10.619  0.0513  0.3367 -0.0357
  153loPI   C1A 2439  14.820   8.150  10.346 -0.1304 -0.0718 -0.2474
  153loPI   C2A 2440  14.678   7.994   9.910  0.0600  0.0506 -0.3902
  153loPI   C3A 2441  14.702   7.975   9.419 -0.0226 -0.0124  0.1707
  153loPI   C4A 2442  14.773   7.994   8.942  0.1220  0.0362  0.3604
  153loPI   C5A 2443  15.025   7.877   8.507 -0.4006 -0.1492 -0.0302
  153loPI   C6A 2444  15.144   7.977   8.052  0.2153  0.4729  0.0177
  153loPI   C1B 2445  15.537   8.514  10.209 -0.0980 -0.1602 -0.1735
  153loPI   C2B 2446  15.463   8.568   9.813  0.0952  0.1765 -0.0437
  153loPI   C3B 2447  15.497   8.458   9.383  0.1090  0.3625 -0.2454
  153loPI   C4B 2448  15.591   8.337   9.015  0.2464  0.1826  0.5442
  154loPI    C1 2449  10.501   3.231  10.370 -0.2273 -0.0934 -0.1968
  154loPI    C2 2450  10.760   3.202  10.674 -0.1373 -0.3100 -0.2919
  154loPI    C3 2451  10.520   3.520  10.645 -0.0956 -0.2530 -0.0349
  154loPI   PO4 2452  10.657   3.165  10.172 -0.3241  0.2355  0.0628
  154loPI   GL1 2453  10.979   3.310   9.967 -0.0503 -0.2023 -0.0606
  154loPI   GL2 2454  10.759   3.547   9.755 -0.0703  0.1829 -0.2075
  154loPI   C1A 2455  11.111   3.227   9.592  0.2161  0.0622  0.1268
  154loPI   C2A 2456  11.098   3.183   9.179  0.2200 -0.2075  0.3374
  154loPI   C3A 2457  11.061   3.284   8.753 -0.1528 -0.3183  0.0268
  154loPI   C4A 2458  11.212   3.274   8.258  0.2219 -0.0670  0.4009
  154loPI   C5A 2459  11.411   3.072   7.787 -0.1321 -0.1623 -0.0409
  154loPI   C6A 2460  11.749   2.848   7.749  0.1043 -0.0260  0.1623
  154loPI   C1B 2461  10.779   3.547   9.256 -0.4294 -0.1030  0.0910
  154loPI   C2B 2462  10.621   3.436   8.827 -0.0117 -0.2674 -0.0284
  154loPI   C3B 2463  10.706   3.507   8.443  0.1300  0.0800 -0.0742
  154loPI   C4B 2464  10.608   3.367   8.040  0.0342  0.3639  0.0018
  155loPI    C1 2465  15.893  12.234  10.767  0.0945  0.1134  0.0289
  155loPI    C2 2466  15.970  11.923  11.007 -0.2466 -0.2486 -0.3161
  155loPI    C3 2467  15.701  12.198  11.116  0.0309 -0.0853 -0.0255
  155loPI   PO4 2468  15.809  12.088  10.554  0.1679 -0.2708  0.1955
  155loPI   GL1 2469  15.976  12.113  10.061  0.0516 -0.0958 -0.1942
  155loPI   GL2 2470  15.736  11.913  10.037  0.1463 -0.2138  0.0470
  155loPI   C1A 2471  16.099  12.060   9.694  0.1018  0.0985  0.1515
  155loPI   C2A 2472  16.170  12.166   9.286 -0.1609 -0.0373  0.0212
  155loPI   C3A 2473  16.261  12.092   8.796  0.0180 -0.0919  0.1301
  155loPI   C4A 2474  16.322  12.054   8.343 -0.1405 -0.0547  0.0230
  155loPI   C5A 2475  16.709  12.154   8.140 -0.0944 -0.0791  0.0262
  155loPI   C6A 2476  17.008  12.551   7.996  0.0916  0.1431 -0.0417
  155loPI   C1B 2477  15.886  11.674   9.855 -0.1441 -0.0488  0.1006
  155loPI   C2B 2478  15.947  11.633   9.395 -0.0106  0.2274 -0.2202
  155loPI   C3B 2479  15.854  11.594   8.965 -0.0044  0.3506  0.1785
  155loPI   C4B 2480  16.056  11.685   8.543  0.0372  0.1472  0.2989
  156loPI    C1 2481   7.522  17.536  10.430  0.3111 -0.2263 -0.0963
  156loPI    C2 2482   7.756  17.736  10.685  0.2122 -0.0617 -0.1330
  156loPI    C3 2483   7.437  17.535  10.821  0.1956 -0.0263 -0.1194
  156loPI   PO4 2484   7.648  17.618  10.246  0.2436 -0.0166 -0.0643
  156loPI   GL1 2485   7.621  17.722   9.918  0.3549 -0.2351 -0.0470
  156loPI   GL2 2486   7.923  17.559   9.786  0.2523 -0.0158  0.2805
  156loPI   C1A 2487   7.597  17.692   9.410 -0.0641 -0.2576  0.2044
  156loPI   C2A 2488   7.596  17.722   9.005  0.0127  0.0532 -0.1347
  156loPI   C3A 2489   7.539  17.756   8.568 -0.4701  0.3161  0.3159
  156loPI   C4A 2490   7.372  17.513   8.309 -0.0789  0.1479  0.1596
  156loPI   C5A 2491   6.919  17.427   8.239 -0.3739 -0.1831  0.0439
  156loPI   C6A 2492   6.547  17.436   7.973 -0.1215 -0.0205 -0.1413
  156loPI   C1B 2493   8.010  17.484   9.353 -0.2249  0.1987  0.0284
  156loPI   C2B 2494   7.996  17.417   8.935 -0.2128  0.0514  0.0570
  156loPI   C3B 2495   7.968  17.425   8.473 -0.3010 -0.1894  0.0263
  156loPI   C4B 2496   7.876  17.489   8.069  0.1364 -0.1196  0.2669
  157loPI    C1 2497   8.405   1.500  10.075 -0.0915 -0.0016 -0.0135
  157loPI    C2 2498   8.530   1.872  10.151  0.0068 -0.0272 -0.0480
  157loPI    C3 2499   8.549   1.592  10.436 -0.0360 -0.0143 -0.0323
  157loPI   PO4 2500   8.188   1.479   9.909  0.1526  0.0207 -0.3593
  157loPI   GL1 2501   8.166   1.578   9.500  0.4065  0.0252 -0.1359
  157loPI   GL2 2502   7.828   1.632   9.584 -0.3439 -0.1379  0.2184
  157loPI   C1A 2503   8.203   1.497   9.096 -0.1765 -0.0433  0.0705
  157loPI   C2A 2504   8.005   1.597   8.719 -0.0059  0.2040 -0.2701
  157loPI   C3A 2505   8.005   1.491   8.335 -0.2396  0.1662  0.1449
  157loPI   C4A 2506   7.950   1.653   7.957 -0.0092  0.0544  0.2187
  157loPI   C5A 2507   7.909   1.731   7.520 -0.0851  0.1551  0.2170
  157loPI   C6A 2508   8.021   1.866   7.115  0.0525  0.1627 -0.2470
  157loPI   C1B 2509   7.869   1.847   9.200  0.0483  0.0176  0.1009
  157loPI   C2B 2510   7.791   2.016   8.835  0.1100  0.1168  0.0554
  157loPI   C3B 2511   8.047   1.961   8.354 -0.1938  0.2755 -0.3533
  157loPI   C4B 2512   8.226   2.151   8.078  0.4680 -0.0304  0.0654
  158loPI    C1 2513  13.357  14.262  10.502  0.2067  0.0850  0.1141
  158loPI    C2 2514  13.030  14.476  10.588 -0.1063 -0.1706 -0.3922
  158loPI    C3 2515  13.184  14.227  10.861 -0.0604  0.2812  0.0076
  158loPI   PO4 2516  13.308  14.279  10.204  0.5302  0.1999 -0.1515
  158loPI   GL1 2517  13.206  14.549   9.791 -0.0413 -0.0068 -0.0069
  158loPI   GL2 2518  13.401  14.798   9.723  0.0390 -0.0242 -0.2315
  158loPI   C1A 2519  13.096  14.516   9.404 -0.1770  0.0133  0.0885
  158loPI   C2A 2520  13.099  14.602   8.940 -0.2187 -0.0266 -0.1039
  158loPI   C3A 2521  13.009  14.466   8.585  0.0468 -0.0621  0.1563
  158loPI   C4A 2522  13.244  14.364   8.267  0.5636  0.0837 -0.0558
  158loPI   C5A 2523  13.318  14.312   7.840 -0.0729  0.2385  0.0917
  158loPI   C6A 2524  13.443  14.587   7.568 -0.1125  0.2474 -0.2556
  158loPI   C1B 2525  13.396  14.941   9.280  0.0511 -0.1765  0.0294
  158loPI   C2B 2526  13.439  14.907   8.912 -0.0002  0.3292  0.3251
  158loPI   C3B 2527  13.628  14.843   8.529  0.0635 -0.0848  0.2330
  158loPI   C4B 2528  13.463  14.803   8.075 -0.0779  0.3507 -0.2715
  159loPI    C1 2529   4.904   6.663  10.728  0.2312  0.0378  0.0796
  159loPI    C2 2530   4.876   6.269  10.789 -0.0471  0.0288 -0.0910
  159loPI    C3 2531   4.886   6.520  11.101  0.1566 -0.1134  0.0189
  159loPI   PO4 2532   4.831   6.643  10.457 -0.0664  0.0320  0.0312
  159loPI   GL1 2533   4.928   6.533  10.056 -0.1296  0.0112  0.1180
  159loPI   GL2 2534   4.722   6.786  10.006 -0.4724 -0.0744 -0.2114
  159loPI   C1A 2535   5.180   6.477   9.731  0.1113 -0.2750 -0.1295
  159loPI   C2A 2536   5.422   6.532   9.423 -0.3268 -0.4327 -0.1055
  159loPI   C3A 2537   5.555   6.605   9.005  0.1989  0.0158  0.2894
  159loPI   C4A 2538   5.627   6.779   8.607 -0.0857  0.2425 -0.3015
  159loPI   C5A 2539   5.578   6.553   8.234 -0.1723 -0.4130 -0.1480
  159loPI   C6A 2540   5.713   6.104   8.101 -0.0827  0.4063  0.0258
  159loPI   C1B 2541   4.653   6.985   9.571  0.1901  0.1243  0.2176
  159loPI   C2B 2542   4.729   6.916   9.101 -0.2577  0.0725  0.1172
  159loPI   C3B 2543   4.754   6.829   8.666  0.0527  0.0632 -0.0641
  159loPI   C4B 2544   4.556   6.866   8.183  0.2673  0.0584  0.0153
  160loPI    C1 2545   1.285  16.481  10.410  0.0092 -0.1361  0.0703
  160loPI    C2 2546   0.895  16.395  10.417 -0.0393  0.0579 -0.1355
  160loPI    C3 2547   1.027  16.739  10.574  0.0478 -0.0017 -0.0773
  160loPI   PO4 2548   1.396  16.259  10.516  0.0984  0.2230  0.1746
  160loPI   GL1 2549   1.659  16.008  10.223 -0.3730 -0.0307  0.1420
  160loPI   GL2 2550   1.402  15.789  10.063  0.0846 -0.0266 -0.0928
  160loPI   C1A 2551   1.610  16.213   9.844  0.1240 -0.0371 -0.2554
  160loPI   C2A 2552   1.727  16.185   9.452  0.0408  0.0085 -0.1854
  160loPI   C3A 2553   1.787  16.211   9.013 -0.3087 -0.3130 -0.3539
  160loPI   C4A 2554   1.695  16.133   8.670 -0.2560  0.0102 -0.1898
  160loPI   C5A 2555   1.538  16.262   8.213 -0.1820  0.2241 -0.1787
  160loPI   C6A 2556   1.332  16.600   8.025  0.2221 -0.0589  0.1416
  160loPI   C1B 2557   1.410  15.861   9.632  0.1815 -0.0210 -0.0104
  160loPI   C2B 2558   1.466  15.810   9.201  0.4527 -0.1358 -0.4054
  160loPI   C3B 2559   1.474  15.707   8.771 -0.0039 -0.2077 -0.2348
  160loPI   C4B 2560   1.472  15.716   8.330  0.1161 -0.2060 -0.0585
  161loPI    C1 2561   8.785   7.469  10.631 -0.2845  0.1724 -0.0903
  161loPI    C2 2562   8.525   7.178  10.542 -0.0431 -0.0466 -0.0893
  161loPI    C3 2563   8.872   7.089  10.721  0.0582  0.2357 -0.1409
  161loPI   PO4 2564   8.934   7.607  10.436  0.0268  0.0195 -0.2943
  161loPI   GL1 2565   8.937   7.584   9.978 -0.2219  0.0656  0.1060
  161loPI   GL2 2566   9.303   7.444   9.850 -0.2863 -0.2256 -0.3642
  161loPI   C1A 2567   8.893   7.714   9.551  0.2767 -0.2025  0.1633
  161loPI   C2A 2568   8.886   7.796   9.174  0.1472 -0.2585 -0.2078
  161loPI   C3A 2569   9.164   7.733   8.869  0.0511  0.0877 -0.4240
  161loPI   C4A 2570   9.330   7.677   8.381 -0.0524  0.4374 -0.1673
  161loPI   C5A 2571   9.170   7.583   8.001  0.0189 -0.1607  0.0107
  161loPI   C6A 2572   9.047   7.469   7.656 -0.1349  0.0824 -0.2757
  161loPI   C1B 2573   9.307   7.456   9.394 -0.0775  0.2465  0.0552
  161loPI   C2B 2574   9.420   7.315   8.948 -0.0002  0.2304  0.1993
  161loPI   C3B 2575   9.445   7.192   8.601 -0.2893  0.2230 -0.5157
  161loPI   C4B 2576   9.428   7.182   8.162  0.0876 -0.1337 -0.1215
  162loPI    C1 2577  17.975   8.127  11.118  0.0006  0.0572 -0.0418
  162loPI    C2 2578  17.912   8.274  11.484 -0.0063  0.0073 -0.0228
  162loPI    C3 2579  18.004   7.888  11.437 -0.2652 -0.0481 -0.0934
  162loPI   PO4 2580  17.801   8.166  10.985 -0.0941  0.0239  0.0307
  162loPI   GL1 2581  17.850   8.127  10.557  0.0107  0.1081  0.1771
  162loPI   GL2 2582  17.585   8.043  10.499 -0.0215 -0.1964  0.1820
  162loPI   C1A 2583  17.908   7.921  10.225 -0.1702 -0.0336  0.1141
  162loPI   C2A 2584  17.934   7.889   9.796 -0.1549 -0.0495  0.3716
  162loPI   C3A 2585  17.821   7.940   9.378 -0.0288  0.2374 -0.0100
  162loPI   C4A 2586  17.922   7.807   9.006 -0.0731  0.2614  0.2257
  162loPI   C5A 2587  17.945   7.644   8.638  0.2326  0.1842 -0.0324
  162loPI   C6A 2588  17.779   7.431   8.284  0.1478  0.0860  0.0534
  162loPI   C1B 2589  17.443   8.027  10.154 -0.3857 -0.0346 -0.1275
  162loPI   C2B 2590  17.473   8.012   9.783  0.2348  0.2198 -0.0507
  162loPI   C3B 2591  17.338   7.956   9.455  0.0507  0.2414  0.1204
  162loPI   C4B 2592  17.418   7.805   9.087  0.2149  0.0401 -0.3299
  163loPI    C1 2593  14.119   4.409  11.396  0.0852 -0.3199 -0.0818
  163loPI    C2 2594  14.336   4.745  11.411 -0.0944 -0.1998 -0.1366
  163loPI    C3 2595  14.444   4.427  11.628  0.0583 -0.0961 -0.0585
  163loPI   PO4 2596  14.067   4.446  11.044  0.0133 -0.0451 -0.2809
  163loPI   GL1 2597  13.961   4.588  10.614 -0.2089  0.4430  0.2862
  163loPI   GL2 2598  13.884   4.315  10.420  0.2774 -0.0425  0.1501
  163loPI   C1A 2599  14.206   4.794  10.170 -0.0087 -0.2441 -0.1382
  163loPI   C2A 2600  14.361   4.891   9.815  0.2240  0.1135 -0.0456
  163loPI   C3A 2601  14.352   4.837   9.395 -0.0136 -0.1134 -0.1320
  163loPI   C4A 2602  14.370   4.824   8.953 -0.0829 -0.0886 -0.0462
  163loPI   C5A 2603  14.509   4.828   8.586  0.1693  0.2083  0.1604
  163loPI   C6A 2604  14.686   4.657   8.224  0.3594  0.0962 -0.1191
  163loPI   C1B 2605  13.984   4.414  10.046 -0.0658  0.1739 -0.1249
  163loPI   C2B 2606  14.039   4.498   9.623 -0.0444 -0.0587 -0.1783
  163loPI   C3B 2607  14.110   4.414   9.204 -0.3328  0.2013  0.0437
  163loPI   C4B 2608  14.153   4.443   8.747  0.1216 -0.1284 -0.2139
  164loPI    C1 2609   6.559  10.099  10.098  0.0544  0.0023  0.2190
  164loPI    C2 2610   6.352  10.436  10.038  0.1007  0.0015  0.0512
  164loPI    C3 2611   6.413  10.303  10.410  0.0560  0.1617  0.1168
  164loPI   PO4 2612   6.790  10.090   9.952  0.1222 -0.1283 -0.1249
  164loPI   GL1 2613   6.920  10.193   9.435 -0.3049 -0.0135 -0.1219
  164loPI   GL2 2614   7.117  10.004   9.570 -0.2884  0.0592 -0.2132
  164loPI   C1A 2615   6.836  10.130   9.116  0.3923  0.0869 -0.2436
  164loPI   C2A 2616   6.807  10.048   8.758  0.0995 -0.0652 -0.1483
  164loPI   C3A 2617   6.879  10.231   8.334  0.1452  0.1106 -0.0381
  164loPI   C4A 2618   6.927  10.267   7.897  0.0896 -0.1432  0.0743
  164loPI   C5A 2619   6.999  10.174   7.474  0.2391 -0.2506 -0.2821
  164loPI   C6A 2620   7.151  10.172   7.077 -0.0206 -0.1447  0.0074
  164loPI   C1B 2621   7.382   9.889   9.303 -0.0544  0.1529 -0.3073
  164loPI   C2B 2622   7.196   9.737   8.928  0.3191 -0.1820  0.3136
  164loPI   C3B 2623   7.350   9.718   8.536  0.1173 -0.0658  0.0041
  164loPI   C4B 2624   7.327   9.860   8.077 -0.0292  0.2263  0.0815
  165loPI    C1 2625   3.924  18.417  10.201 -0.1755  0.1356  0.0077
  165loPI    C2 2626   3.690  18.728  10.108 -0.2317  0.1166  0.0851
  165loPI    C3 2627   3.714  18.602  10.487 -0.1835  0.0473  0.0591
  165loPI   PO4 2628   3.846  18.300  10.000 -0.0394 -0.0638  0.1083
  165loPI   GL1 2629   3.761  18.029   9.636  0.1891  0.2705  0.0496
  165loPI   GL2 2630   4.019  17.843   9.702 -0.0161 -0.2105  0.0964
  165loPI   C1A 2631   3.703  17.972   9.168  0.1916  0.0194 -0.0383
  165loPI   C2A 2632   3.516  18.256   8.859 -0.0615 -0.0263 -0.1908
  165loPI   C3A 2633   3.531  18.499   8.492  0.1344 -0.0585 -0.3897
  165loPI   C4A 2634   3.382  18.483   8.042 -0.0673 -0.2346 -0.0767
  165loPI   C5A 2635   3.232  18.457   7.665  0.1834  0.0856  0.0114
  165loPI   C6A 2636   3.099  18.681   7.411 -0.0047 -0.1556  0.0048
  165loPI   C1B 2637   4.190  17.962   9.320  0.1056 -0.0399 -0.1103
  165loPI   C2B 2638   4.169  18.181   8.938 -0.0114  0.1830 -0.0716
  165loPI   C3B 2639   4.023  18.364   8.521 -0.1469  0.0733 -0.0727
  165loPI   C4B 2640   3.852  18.217   8.115  0.1762  0.3069  0.1975
  166loPI    C1 2641   5.501  12.091  10.553 -0.1310 -0.2780 -0.0507
  166loPI    C2 2642   5.270  12.359  10.367 -0.0388  0.0867  0.3426
  166loPI    C3 2643   5.132  11.991  10.438 -0.2465  0.0908 -0.0141
  166loPI   PO4 2644   5.699  12.081  10.359  0.1717 -0.0742  0.3305
  166loPI   GL1 2645   5.856  12.126   9.876  0.0287  0.0678 -0.2343
  166loPI   GL2 2646   6.154  12.102   9.623 -0.6052  0.1311  0.2220
  166loPI   C1A 2647   5.848  12.435   9.434 -0.1344  0.0246  0.1018
  166loPI   C2A 2648   5.796  12.376   9.027 -0.0725  0.1460 -0.2672
  166loPI   C3A 2649   5.828  12.280   8.631 -0.0739 -0.1380  0.1072
  166loPI   C4A 2650   5.742  12.364   8.237  0.0880 -0.4013  0.0078
  166loPI   C5A 2651   5.696  12.806   7.918  0.2254  0.3613  0.0765
  166loPI   C6A 2652   5.813  13.228   7.699 -0.0527  0.0242  0.2418
  166loPI   C1B 2653   6.051  12.011   9.195  0.0902  0.0634  0.1266
  166loPI   C2B 2654   6.172  11.960   8.837  0.0195 -0.1353  0.0055
  166loPI   C3B 2655   6.066  11.803   8.428 -0.0179 -0.0544 -0.3388
  166loPI   C4B 2656   6.003  11.869   8.025  0.1525 -0.0956 -0.0842
  167loPI    C1 2657  18.308   7.344  10.795  0.1222  0.0275  0.0936
  167loPI    C2 2658  18.349   6.958  10.890 -0.0229  0.0225  0.1385
  167loPI    C3 2659  18.385   7.238  11.173  0.1297  0.0455  0.0971
  167loPI   PO4 2660  18.553   7.412  10.651 -0.1315 -0.1855  0.0061
  167loPI   GL1 2661  18.657   7.558  10.267  0.3232 -0.0979 -0.2826
  167loPI   GL2 2662  18.666   7.238  10.245 -0.3182  0.0934  0.1154
  167loPI   C1A 2663  18.390   7.861   9.987 -0.0722  0.1435 -0.0734
  167loPI   C2A 2664  18.403   7.899   9.533  0.0986  0.0618 -0.0946
  167loPI   C3A 2665  18.493   7.806   9.144  0.2741 -0.2337 -0.0447
  167loPI   C4A 2666  18.410   7.884   8.786  0.0161 -0.0274 -0.2941
  167loPI   C5A 2667  18.287   7.804   8.318 -0.0566 -0.0500  0.0553
  167loPI   C6A 2668  18.260   7.482   8.153 -0.3952 -0.1282  0.0611
  167loPI   C1B 2669  18.700   7.356   9.823  0.1895 -0.1298  0.0409
  167loPI   C2B 2670  18.693   7.332   9.332  0.3523 -0.1527 -0.0568
  167loPI   C3B 2671  18.774   7.439   8.994  0.4050  0.0279 -0.0612
  167loPI   C4B 2672  18.690   7.505   8.554 -0.3270  0.1107 -0.2200
  168loPI    C1 2673   1.006  13.496  10.591 -0.0233  0.0318 -0.0632
  168loPI    C2 2674   0.883  13.117  10.550  0.2397 -0.1123  0.4025
  168loPI    C3 2675   0.690  13.364  10.799 -0.0188  0.1098 -0.0064
  168loPI   PO4 2676   1.014  13.611  10.317  0.0895 -0.3425  0.1731
  168loPI   GL1 2677   0.814  13.353  10.061  0.2006 -0.3236  0.2770
  168loPI   GL2 2678   1.114  13.394   9.901 -0.3382 -0.0497  0.2260
  168loPI   C1A 2679   0.637  13.520   9.741  0.0442  0.1300 -0.2599
  168loPI   C2A 2680   0.521  13.405   9.323  0.1517 -0.0574 -0.1861
  168loPI   C3A 2681   0.585  13.353   8.936 -0.0333 -0.0003 -0.0363
  168loPI   C4A 2682   0.600  13.257   8.554 -0.3375  0.3125  0.1561
  168loPI   C5A 2683   0.636  13.258   8.114  0.1764  0.2873  0.1899
  168loPI   C6A 2684   0.840  13.656   7.812  0.0830 -0.0747 -0.0560
  168loPI   C1B 2685   1.080  13.292   9.487 -0.2798 -0.0829  0.0153
  168loPI   C2B 2686   1.093  13.268   9.078  0.0973 -0.2624 -0.3618
  168loPI   C3B 2687   1.045  13.355   8.743 -0.0926  0.1981  0.1570
  168loPI   C4B 2688   1.075  13.362   8.249  0.3245  0.1369 -0.3658
  169loPI    C1 2689   9.782  11.747  10.495 -0.0417 -0.0296  0.1110
  169loPI    C2 2690   9.395  11.662  10.436 -0.0458  0.0108  0.0780
  169loPI    C3 2691   9.514  11.819  10.784 -0.1000  0.2462 -0.0077
  169loPI   PO4 2692   9.871  11.804  10.259 -0.0508  0.0483 -0.2247
  169loPI   GL1 2693  10.092  11.903   9.807 -0.3957  0.0233 -0.2014
  169loPI   GL2 2694   9.949  11.560   9.815  0.1691  0.1103 -0.1666
  169loPI   C1A 2695  10.059  11.921   9.319 -0.2041 -0.0607 -0.1089
  169loPI   C2A 2696  10.065  11.800   8.866  0.0244 -0.1094  0.0110
  169loPI   C3A 2697  10.245  11.647   8.340 -0.1318 -0.0655 -0.0277
  169loPI   C4A 2698  10.516  11.569   7.987 -0.2483 -0.0758 -0.0063
  169loPI   C5A 2699  10.657  11.511   7.604 -0.0123  0.0716 -0.1181
  169loPI   C6A 2700  10.809  11.937   7.511 -0.0425 -0.1120  0.1756
  169loPI   C1B 2701  10.272  11.323   9.599  0.2564  0.0247  0.0335
  169loPI   C2B 2702  10.349  11.429   9.170 -0.1276  0.1155 -0.1542
  169loPI   C3B 2703  10.295  11.399   8.727 -0.0289 -0.0158  0.0904
  169loPI   C4B 2704  10.397  11.137   8.454 -0.1389  0.1888  0.1066
  170loPI    C1 2705  15.234   9.342  11.173 -0.3883 -0.1396 -0.1412
  170loPI    C2 2706  15.442   9.140  11.448 -0.1744  0.1395 -0.0931
  170loPI    C3 2707  15.095   9.312  11.547 -0.2854 -0.0777 -0.0976
  170loPI   PO4 2708  15.458   9.299  10.909 -0.0723 -0.4023 -0.1818
  170loPI   GL1 2709  15.533   9.245  10.513  0.0170  0.1024  0.1071
  170loPI   GL2 2710  15.346   8.939  10.424  0.1358 -0.0075  0.0174
  170loPI   C1A 2711  15.781   8.989  10.226  0.1771  0.0289  0.0684
  170loPI   C2A 2712  15.805   8.911   9.792  0.4316 -0.0127 -0.0870
  170loPI   C3A 2713  15.896   8.930   9.340  0.2109 -0.1682 -0.0781
  170loPI   C4A 2714  15.896   8.813   8.927  0.2351  0.2707 -0.2427
  170loPI   C5A 2715  15.785   8.496   8.564 -0.2326 -0.0991 -0.1466
  170loPI   C6A 2716  15.681   8.602   8.136  0.1530  0.2718 -0.0458
  170loPI   C1B 2717  15.333   9.002  10.041  0.2024 -0.2267 -0.0139
  170loPI   C2B 2718  15.365   9.000   9.597 -0.0118 -0.0394 -0.0288
  170loPI   C3B 2719  15.410   8.915   9.129 -0.0866  0.5377 -0.1523
  170loPI   C4B 2720  15.366   8.712   8.682  0.1912 -0.0995  0.0353
  171loPI    C1 2721  14.783  17.484  10.476 -0.0020  0.0909 -0.1086
  171loPI    C2 2722  15.168  17.567  10.406  0.0413 -0.0626 -0.0562
  171loPI    C3 2723  14.987  17.718  10.729  0.0371  0.0682 -0.1191
  171loPI   PO4 2724  14.661  17.538  10.192  0.2142 -0.2108  0.0345
  171loPI   GL1 2725  14.396  17.624   9.836  0.2968  0.1086 -0.2962
  171loPI   GL2 2726  14.402  17.388   9.760 -0.0098  0.2039  0.1289
  171loPI   C1A 2727  14.674  17.768   9.533 -0.2023 -0.3023 -0.2312
  171loPI   C2A 2728  14.658  17.705   9.146  0.1002  0.1618  0.1400
  171loPI   C3A 2729  14.660  17.702   8.729  0.2582 -0.0493 -0.1731
  171loPI   C4A 2730  14.804  17.878   8.352  0.0139 -0.0876  0.2328
  171loPI   C5A 2731  14.793  18.246   8.009 -0.2611  0.0862 -0.2320
  171loPI   C6A 2732  14.418  18.567   7.973 -0.1747  0.0072 -0.0851
  171loPI   C1B 2733  14.328  17.274   9.347 -0.3663 -0.0382 -0.3593
  171loPI   C2B 2734  14.416  17.283   8.889  0.0632  0.1253 -0.0140
  171loPI   C3B 2735  14.414  17.238   8.520  0.2530  0.1681  0.2541
  171loPI   C4B 2736  14.504  17.081   8.044 -0.0098  0.0573 -0.5209
  172loPI    C1 2737  14.683  10.317  10.867  0.1629  0.1327  0.1586
  172loPI    C2 2738  14.915  10.640  10.822  0.1062  0.1693  0.1294
  172loPI    C3 2739  14.573  10.666  11.029 -0.0150  0.1851 -0.0696
  172loPI   PO4 2740  14.745  10.226  10.565  0.1044 -0.6404  0.0576
  172loPI   GL1 2741  14.758  10.271  10.143  0.2552 -0.3493  0.1708
  172loPI   GL2 2742  14.617   9.990  10.178  0.1412 -0.0910  0.0434
  172loPI   C1A 2743  15.044  10.271   9.813 -0.1687 -0.1439  0.0345
  172loPI   C2A 2744  15.086  10.356   9.405  0.1214  0.1286  0.0331
  172loPI   C3A 2745  15.083  10.192   9.005 -0.0652 -0.1436 -0.1627
  172loPI   C4A 2746  15.115  10.179   8.513  0.1281 -0.0259  0.1027
  172loPI   C5A 2747  15.196   9.900   8.125  0.4164 -0.0050  0.0674
  172loPI   C6A 2748  15.481   9.584   7.974 -0.0886  0.2094  0.2108
  172loPI   C1B 2749  14.822   9.851   9.734 -0.0181 -0.1798 -0.0853
  172loPI   C2B 2750  14.864   9.864   9.307  0.1542  0.1034 -0.1354
  172loPI   C3B 2751  14.863   9.811   8.853 -0.0520  0.1905  0.1492
  172loPI   C4B 2752  14.884   9.699   8.445  0.1209 -0.0798  0.0969
  173loPI    C1 2753  17.713   1.401  10.843  0.0989 -0.2883  0.1675
  173loPI    C2 2754  17.725   1.065  11.059  0.1592 -0.4012 -0.0094
  173loPI    C3 2755  18.001   1.349  11.116 -0.1085 -0.2143  0.4044
  173loPI   PO4 2756  17.422   1.271  10.707 -0.0389  0.1147  0.2937
  173loPI   GL1 2757  17.464   1.217  10.370 -0.1864  0.0106 -0.0380
  173loPI   GL2 2758  17.229   0.992  10.294  0.5338  0.0534  0.0686
  173loPI   C1A 2759  17.522   1.548  10.011  0.2791 -0.0092 -0.0784
  173loPI   C2A 2760  17.634   1.577   9.557 -0.2055  0.4149  0.2236
  173loPI   C3A 2761  17.537   1.572   9.091  0.3921  0.0563  0.1437
  173loPI   C4A 2762  17.492   1.542   8.587  0.0334  0.0868  0.0912
  173loPI   C5A 2763  17.463   1.680   8.196  0.3250 -0.0455 -0.1106
  173loPI   C6A 2764  17.618   1.716   7.752 -0.1492 -0.2344 -0.0433
  173loPI   C1B 2765  17.213   1.040   9.883  0.0492  0.2694  0.1408
  173loPI   C2B 2766  17.339   1.154   9.439  0.0758  0.0054 -0.1642
  173loPI   C3B 2767  17.298   1.088   8.965  0.1974 -0.0152 -0.2270
  173loPI   C4B 2768  17.257   1.033   8.544 -0.0241 -0.3755 -0.1994
  174loPI    C1 2769  10.737   8.069  10.710 -0.0747 -0.1875  0.0224
  174loPI    C2 2770  10.580   7.874  11.022 -0.3083  0.0351  0.0468
  174loPI    C3 2771  10.793   8.207  11.081 -0.1687 -0.0420 -0.0169
  174loPI   PO4 2772  10.929   7.898  10.533  0.0837 -0.0994 -0.0455
  174loPI   GL1 2773  10.897   7.763  10.177 -0.0087  0.1519 -0.1940
  174loPI   GL2 2774  11.197   7.698  10.128  0.4978 -0.1883  0.0154
  174loPI   C1A 2775  10.790   7.679   9.780  0.2021 -0.0908 -0.1270
  174loPI   C2A 2776  10.803   7.660   9.380 -0.3294 -0.2001  0.0968
  174loPI   C3A 2777  10.822   7.574   8.893 -0.2214  0.0763  0.2250
  174loPI   C4A 2778  10.657   7.697   8.514 -0.1186 -0.3871 -0.2663
  174loPI   C5A 2779  10.612   8.085   8.342 -0.2071 -0.0598  0.0353
  174loPI   C6A 2780  10.546   8.562   8.192 -0.0605 -0.2213 -0.2312
  174loPI   C1B 2781  11.231   7.737   9.707  0.0952 -0.0561 -0.0735
  174loPI   C2B 2782  11.315   7.578   9.265  0.1036 -0.0026  0.1211
  174loPI   C3B 2783  11.313   7.633   8.850  0.0216  0.1187 -0.1717
  174loPI   C4B 2784  11.508   7.805   8.431 -0.4621 -0.0000 -0.2161
  175loPI    C1 2785  13.789   3.960  10.944 -0.2325  0.0846  0.0108
  175loPI    C2 2786  14.026   3.701  11.137 -0.2154 -0.1025 -0.2561
  175loPI    C3 2787  13.741   3.898  11.336 -0.3103 -0.4199 -0.0714
  175loPI   PO4 2788  13.687   3.851  10.715  0.0414 -0.1542 -0.2072
  175loPI   GL1 2789  13.404   3.995  10.304 -0.1365 -0.0371 -0.2407
  175loPI   GL2 2790  13.407   4.268  10.194  0.0915 -0.1826 -0.2582
  175loPI   C1A 2791  13.139   3.842   9.874 -0.0610 -0.2379  0.1197
  175loPI   C2A 2792  13.196   3.856   9.314  0.0795 -0.0339 -0.1640
  175loPI   C3A 2793  13.302   4.028   8.917  0.0499 -0.1888 -0.0345
  175loPI   C4A 2794  13.251   4.093   8.425  0.0045 -0.1565 -0.0457
  175loPI   C5A 2795  13.283   4.485   8.194 -0.0939 -0.1896 -0.1511
  175loPI   C6A 2796  13.056   4.858   8.209  0.0908  0.0569 -0.2507
  175loPI   C1B 2797  13.638   4.130   9.794  0.1920 -0.1882  0.0640
  175loPI   C2B 2798  13.561   4.272   9.387 -0.0643 -0.1100 -0.0638
  175loPI   C3B 2799  13.603   4.445   8.975 -0.1028 -0.3197 -0.0558
  175loPI   C4B 2800  13.690   4.480   8.572 -0.1509  0.0702  0.3052
  176loPI    C1 2801   1.083  15.516  10.773  0.1745  0.0602 -0.1399
  176loPI    C2 2802   1.053  15.879  10.607 -0.0164  0.1300  0.0422
  176loPI    C3 2803   1.181  15.842  10.984  0.3459 -0.0219 -0.0902
  176loPI   PO4 2804   1.231  15.333  10.689 -0.0363 -0.3004 -0.3412
  176loPI   GL1 2805   1.235  15.335  10.184 -0.2361 -0.1963  0.1727
  176loPI   GL2 2806   1.360  15.383   9.794  0.0280 -0.2553  0.0971
  176loPI   C1A 2807   1.038  15.019   9.917 -0.0277  0.1828  0.1028
  176loPI   C2A 2808   0.893  14.890   9.568 -0.1553  0.1632  0.1415
  176loPI   C3A 2809   0.832  14.772   9.138  0.4146 -0.0920  0.1077
  176loPI   C4A 2810   0.941  14.814   8.663  0.1311  0.0113 -0.0733
  176loPI   C5A 2811   0.853  14.714   8.203 -0.1268 -0.0374  0.2674
  176loPI   C6A 2812   0.801  14.848   7.763 -0.0142 -0.4215  0.2100
  176loPI   C1B 2813   1.155  15.261   9.453 -0.0543  0.2486 -0.1305
  176loPI   C2B 2814   1.152  15.235   8.976  0.0581 -0.0942 -0.0610
  176loPI   C3B 2815   1.318  15.280   8.513 -0.0987  0.1697 -0.2423
  176loPI   C4B 2816   1.189  15.214   8.083  0.1529  0.0498 -0.0594
  177loPI    C1 2817  14.793   7.238  11.136 -0.0283 -0.2417 -0.0146
  177loPI    C2 2818  14.781   7.500  11.439  0.0688 -0.1895 -0.0554
  177loPI    C3 2819  14.927   7.132  11.498  0.0837 -0.1808 -0.0377
  177loPI   PO4 2820  14.791   7.470  10.933 -0.0399  0.1700 -0.0652
  177loPI   GL1 2821  14.492   7.432  10.522  0.1682  0.0372 -0.1597
  177loPI   GL2 2822  14.762   7.673  10.437  0.1016 -0.1278 -0.0917
  177loPI   C1A 2823  14.406   7.518  10.082  0.0613 -0.0104 -0.0517
  177loPI   C2A 2824  14.519   7.590   9.626  0.2053 -0.3085  0.1480
  177loPI   C3A 2825  14.588   7.452   9.242 -0.0066  0.1145  0.3243
  177loPI   C4A 2826  14.634   7.532   8.830 -0.1970  0.1821  0.1191
  177loPI   C5A 2827  14.624   7.236   8.440 -0.0671 -0.2418  0.1866
  177loPI   C6A 2828  14.408   7.451   8.076  0.2469 -0.0418  0.1834
  177loPI   C1B 2829  14.941   7.549  10.011  0.4472 -0.2907 -0.0572
  177loPI   C2B 2830  15.012   7.518   9.464  0.0645  0.0481  0.5371
  177loPI   C3B 2831  15.087   7.561   9.152 -0.2366 -0.0669  0.0859
  177loPI   C4B 2832  15.124   7.403   8.749  0.3925  0.3564  0.2374
  178loPI    C1 2833  15.365  12.987  10.628  0.0411 -0.2269 -0.0149
  178loPI    C2 2834  15.565  13.048  10.969 -0.0910 -0.0339  0.0299
  178loPI    C3 2835  15.170  12.990  10.978 -0.1632  0.3971 -0.1217
  178loPI   PO4 2836  15.481  13.112  10.502  0.3783  0.2577  0.0120
  178loPI   GL1 2837  15.948  13.162  10.279  0.0929 -0.0682 -0.0079
  178loPI   GL2 2838  16.302  13.115  10.187  0.2113 -0.0553 -0.2091
  178loPI   C1A 2839  15.944  12.934   9.824  0.0112 -0.0131  0.1276
  178loPI   C2A 2840  16.135  12.998   9.390  0.1385 -0.0329  0.7085
  178loPI   C3A 2841  16.216  13.025   9.006  0.1622  0.1248 -0.1524
  178loPI   C4A 2842  16.178  13.045   8.554 -0.1642 -0.0018  0.2100
  178loPI   C5A 2843  16.203  13.056   8.144  0.1205  0.0891  0.2684
  178loPI   C6A 2844  16.348  12.853   7.800 -0.0548 -0.2567 -0.0456
  178loPI   C1B 2845  16.437  12.980   9.818 -0.2520  0.0374  0.1537
  178loPI   C2B 2846  16.604  12.989   9.455 -0.5689  0.0013 -0.0938
  178loPI   C3B 2847  16.726  13.020   9.115  0.1912 -0.1769 -0.0007
  178loPI   C4B 2848  16.699  12.929   8.718  0.1092  0.0425  0.4225
  179loPI    C1 2849  11.757  11.203   9.916  0.0575 -0.2025  0.0029
  179loPI    C2 2850  12.132  11.316   9.835 -0.0320  0.0117 -0.1197
  179loPI    C3 2851  12.040  11.175  10.198  0.1934 -0.1627 -0.1285
  179loPI   PO4 2852  11.652  11.157   9.681 -0.0197  0.3018  0.1106
  179loPI   GL1 2853  11.800  11.204   9.438 -0.4170  0.1708 -0.0412
  179loPI   GL2 2854  11.662  11.069   9.205  0.1191  0.1360 -0.0667
  179loPI   C1A 2855  11.921  11.453   9.022 -0.3116 -0.0400 -0.2908
  179loPI   C2A 2856  12.185  11.319   8.613 -0.0209 -0.1769 -0.2218
  179loPI   C3A 2857  12.296  11.005   8.156  0.1700 -0.0849  0.1182
  179loPI   C4A 2858  12.611  10.841   7.873  0.0930  0.1152  0.1424
  179loPI   C5A 2859  12.674  10.636   7.502 -0.4150 -0.4212  0.0036
  179loPI   C6A 2860  12.658  10.303   7.308 -0.0566 -0.1558 -0.0278
  179loPI   C1B 2861  11.582  11.103   8.720  0.0733  0.0424  0.3612
  179loPI   C2B 2862  11.768  11.187   8.255 -0.3082  0.0467 -0.0309
  179loPI   C3B 2863  11.900  11.141   7.841  0.1496 -0.2919  0.2875
  179loPI   C4B 2864  12.144  10.746   7.709  0.0253 -0.0584 -0.0773
  180loPI    C1 2865  13.651   7.458  11.057 -0.1211  0.0924 -0.3003
  180loPI    C2 2866  13.445   7.215  11.300 -0.0573  0.0108 -0.3271
  180loPI    C3 2867  13.405   7.612  11.332  0.0867  0.0065 -0.0616
  180loPI   PO4 2868  13.837   7.379  10.955 -0.0004  0.4900 -0.2812
  180loPI   GL1 2869  13.776   7.052  10.539 -0.3370 -0.1617 -0.0123
  180loPI   GL2 2870  14.003   7.248  10.489  0.0587  0.1092  0.3718
  180loPI   C1A 2871  13.503   7.121  10.220  0.0218  0.1793 -0.1942
  180loPI   C2A 2872  13.614   7.060   9.796  0.0459  0.2275  0.1363
  180loPI   C3A 2873  13.651   7.111   9.422 -0.0089 -0.2264  0.3846
  180loPI   C4A 2874  13.775   7.124   9.000  0.0696 -0.1633 -0.0937
  180loPI   C5A 2875  13.725   7.157   8.496 -0.0654 -0.0220 -0.4259
  180loPI   C6A 2876  13.676   7.122   8.045 -0.0026  0.1182  0.0131
  180loPI   C1B 2877  14.033   7.093  10.049  0.4030  0.1000  0.0075
  180loPI   C2B 2878  14.176   7.113   9.640 -0.4792  0.0256 -0.0394
  180loPI   C3B 2879  14.219   7.095   9.314 -0.0268  0.3111 -0.3190
  180loPI   C4B 2880  14.280   7.124   8.896  0.1688  0.1946 -0.2261
  181loPI    C1 2881   7.742   0.505  10.279  0.0026  0.0509 -0.0622
  181loPI    C2 2882   7.890   0.134  10.260 -0.0815  0.0234 -0.1951
  181loPI    C3 2883   7.974   0.368  10.574  0.4384  0.0923 -0.3754
  181loPI   PO4 2884   7.717   0.527  10.066  0.0154  0.3496  0.0067
  181loPI   GL1 2885   7.917   0.585   9.705 -0.1294 -0.1973 -0.2839
  181loPI   GL2 2886   7.707   0.701   9.560 -0.3918 -0.5288  0.0749
  181loPI   C1A 2887   8.100   0.561   9.286  0.0148 -0.1181 -0.4060
  181loPI   C2A 2888   8.234   0.536   8.871 -0.2408  0.0483 -0.1177
  181loPI   C3A 2889   8.013   0.536   8.491  0.2015 -0.1468 -0.2278
  181loPI   C4A 2890   7.999   0.967   8.266 -0.1987  0.1461  0.1743
  181loPI   C5A 2891   7.761   1.000   7.878 -0.1127  0.1336 -0.2375
  181loPI   C6A 2892   7.609   0.987   7.484  0.0524  0.2362 -0.0490
  181loPI   C1B 2893   7.608   0.703   9.202 -0.2806  0.2025  0.0557
  181loPI   C2B 2894   7.631   0.637   8.807  0.0161 -0.1041  0.2614
  181loPI   C3B 2895   7.517   0.748   8.416  0.2028 -0.0704  0.0551
  181loPI   C4B 2896   7.366   0.676   7.955 -0.1052 -0.0623 -0.0328
  182loPI    C1 2897   9.965   6.297  10.334 -0.1694 -0.0401  0.0253
  182loPI    C2 2898   9.834   6.364  10.706  0.2220  0.1175  0.1404
  182loPI    C3 2899   9.807   5.998  10.547 -0.0636  0.0776  0.2735
  182loPI   PO4 2900   9.946   6.609  10.291  0.2353  0.0356  0.1277
  182loPI   GL1 2901   9.997   6.770   9.920  0.1825 -0.2431 -0.2401
  182loPI   GL2 2902  10.262   6.882   9.775  0.2734  0.0552 -0.2543
  182loPI   C1A 2903   9.764   6.712   9.538 -0.0032 -0.0296 -0.1532
  182loPI   C2A 2904   9.773   6.723   9.050 -0.2790 -0.0965 -0.1665
  182loPI   C3A 2905   9.737   6.733   8.660  0.2072 -0.2006 -0.0890
  182loPI   C4A 2906   9.805   6.824   8.301  0.1790 -0.0881 -0.1328
  182loPI   C5A 2907   9.702   6.709   7.932 -0.0010  0.3005  0.0220
  182loPI   C6A 2908   9.880   6.370   7.643 -0.0529  0.0384 -0.1402
  182loPI   C1B 2909  10.214   6.726   9.342 -0.5300  0.0849  0.0295
  182loPI   C2B 2910  10.298   6.815   8.888  0.0649 -0.1013  0.0487
  182loPI   C3B 2911  10.320   6.810   8.491  0.1630  0.2452 -0.0652
  182loPI   C4B 2912  10.470   6.826   8.098 -0.2267 -0.3338  0.0019
  183loPI    C1 2913   9.513   3.402   9.992 -0.1385  0.0772 -0.0947
  183loPI    C2 2914   9.444   3.790   9.920 -0.0997  0.0546 -0.2559
  183loPI    C3 2915   9.625   3.679  10.259 -0.3728  0.1543 -0.0740
  183loPI   PO4 2916   9.616   3.308   9.763  0.0039  0.1103  0.0889
  183loPI   GL1 2917   9.559   3.490   9.408 -0.5208 -0.0195  0.0212
  183loPI   GL2 2918   9.315   3.654   9.371  0.1195 -0.2840 -0.0413
  183loPI   C1A 2919   9.802   3.553   9.053 -0.3286  0.0890 -0.2734
  183loPI   C2A 2920   9.790   3.829   8.561  0.1548 -0.0960 -0.3651
  183loPI   C3A 2921   9.791   3.782   8.191  0.3136  0.0080  0.0090
  183loPI   C4A 2922   9.558   3.839   7.799  0.0645  0.1841 -0.0425
  183loPI   C5A 2923   9.512   3.450   7.448 -0.2709  0.3051  0.0488
  183loPI   C6A 2924   9.313   3.271   7.109 -0.2692  0.0918  0.2095
  183loPI   C1B 2925   9.270   3.685   8.918  0.1011 -0.1955  0.2474
  183loPI   C2B 2926   9.340   3.666   8.455  0.1932 -0.2707  0.3182
  183loPI   C3B 2927   9.194   3.772   8.154 -0.2522  0.0586 -0.4891
  183loPI   C4B 2928   8.973   3.969   7.795  0.0860 -0.0674  0.2598
  184loPI    C1 2929   2.068   8.331  10.745 -0.0728 -0.0395  0.1156
  184loPI    C2 2930   2.435   8.320  10.903 -0.1565  0.3430  0.3515
  184loPI    C3 2931   2.375   8.495  10.548 -0.0557 -0.0466  0.1363
  184loPI   PO4 2932   1.997   8.133  10.698  0.2165 -0.0365 -0.1662
  184loPI   GL1 2933   1.924   7.975  10.260 -0.3551  0.4633 -0.2101
  184loPI   GL2 2934   2.140   8.261  10.186 -0.0557  0.1695  0.0910
  184loPI   C1A 2935   1.770   8.220   9.937 -0.0035 -0.1673  0.0291
  184loPI   C2A 2936   1.883   8.241   9.528  0.2342  0.2835  0.1325
  184loPI   C3A 2937   1.824   8.355   9.104 -0.3016 -0.1103  0.0506
  184loPI   C4A 2938   1.666   8.413   8.687  0.0395 -0.0409  0.0613
  184loPI   C5A 2939   1.333   8.365   8.371 -0.3062  0.3366  0.1597
  184loPI   C6A 2940   1.244   8.077   7.944 -0.0301 -0.0036 -0.0712
  184loPI   C1B 2941   2.310   8.268   9.805  0.1637  0.0165 -0.1336
  184loPI   C2B 2942   2.410   8.203   9.316 -0.2850  0.0125  0.0307
  184loPI   C3B 2943   2.384   8.268   8.885 -0.2506 -0.2484 -0.2193
  184loPI   C4B 2944   2.259   8.348   8.519  0.0991 -0.1009  0.0870
  185loPI    C1 2945   3.143   4.074  10.549  0.1310 -0.1322  0.1866
  185loPI    C2 2946   3.130   3.675  10.525  0.0828 -0.1187 -0.0303
  185loPI    C3 2947   3.476   3.859  10.606  0.1042 -0.2040  0.0744
  185loPI   PO4 2948   2.930   4.137  10.335 -0.2416 -0.1176  0.0059
  185loPI   GL1 2949   3.140   3.924  10.057  0.3689  0.0417  0.0815
  185loPI   GL2 2950   3.344   3.721   9.883 -0.1721  0.1886 -0.2300
  185loPI   C1A 2951   3.120   4.094   9.565  0.0423  0.2442 -0.0939
  185loPI   C2A 2952   2.985   4.147   9.201  0.0329 -0.0509  0.0761
  185loPI   C3A 2953   2.972   4.153   8.738  0.1753 -0.1967 -0.1557
  185loPI   C4A 2954   2.803   4.125   8.343  0.0547 -0.2025 -0.2693
  185loPI   C5A 2955   2.942   3.819   8.010  0.0199 -0.4191  0.0145
  185loPI   C6A 2956   2.604   3.400   7.856  0.1601  0.0592  0.1094
  185loPI   C1B 2957   3.475   3.778   9.482 -0.1662 -0.0144  0.1209
  185loPI   C2B 2958   3.411   3.865   8.972 -0.1449 -0.0180  0.2101
  185loPI   C3B 2959   3.278   3.808   8.633  0.1864 -0.0125 -0.1713
  185loPI   C4B 2960   3.161   3.538   8.295 -0.2025 -0.1287 -0.0354
  186loPI    C1 2961  14.698  11.855  10.377  0.0718  0.3709  0.0801
  186loPI    C2 2962  14.671  11.695  10.742  0.3343  0.1907  0.0238
  186loPI    C3 2963  14.820  12.063  10.695  0.1153  0.2932  0.1144
  186loPI   PO4 2964  14.522  11.755  10.188  0.0917  0.2420  0.0500
  186loPI   GL1 2965  14.700  11.610   9.777  0.0797  0.2624 -0.0369
  186loPI   GL2 2966  14.440  11.440   9.805 -0.0334  0.2007  0.0624
  186loPI   C1A 2967  14.736  11.648   9.320  0.0774 -0.0987 -0.0286
  186loPI   C2A 2968  14.757  11.616   8.973 -0.0874  0.1751 -0.0342
  186loPI   C3A 2969  14.930  11.539   8.645  0.1069  0.2411 -0.0518
  186loPI   C4A 2970  14.966  11.520   8.151  0.3154 -0.2250  0.0766
  186loPI   C5A 2971  15.039  11.499   7.692 -0.1149  0.0043  0.0200
  186loPI   C6A 2972  15.070  11.344   7.248 -0.1158 -0.3045 -0.1894
  186loPI   C1B 2973  14.564  11.168   9.486 -0.1009 -0.1602 -0.0339
  186loPI   C2B 2974  14.617  11.138   8.998  0.3486  0.0858 -0.0168
  186loPI   C3B 2975  14.673  11.103   8.554  0.1126 -0.0079  0.2974
  186loPI   C4B 2976  14.729  11.078   8.097  0.0170  0.0716 -0.2571
  187loPI    C1 2977   8.010   7.214  10.340  0.3203  0.2694 -0.0650
  187loPI    C2 2978   7.723   7.336  10.589  0.0795 -0.2542 -0.0715
  187loPI    C3 2979   8.106   7.417  10.670 -0.0454  0.2229  0.0743
  187loPI   PO4 2980   8.002   7.340  10.113  0.1385 -0.1977 -0.0312
  187loPI   GL1 2981   7.871   7.310   9.746 -0.2639 -0.1717 -0.0348
  187loPI   GL2 2982   7.627   7.266   9.685  0.2098  0.0227  0.1319
  187loPI   C1A 2983   8.023   6.949   9.420 -0.1393  0.0116 -0.3511
  187loPI   C2A 2984   8.184   6.811   9.015  0.2718  0.0986 -0.0942
  187loPI   C3A 2985   8.166   6.865   8.566  0.0451  0.0122  0.1567
  187loPI   C4A 2986   8.039   6.635   8.196  0.1790  0.2022 -0.0531
  187loPI   C5A 2987   8.040   6.296   7.864  0.3097 -0.0147  0.2761
  187loPI   C6A 2988   7.743   6.006   7.663 -0.1800 -0.2878  0.2257
  187loPI   C1B 2989   7.714   7.267   9.233 -0.0506 -0.0597 -0.1167
  187loPI   C2B 2990   7.817   7.163   8.867 -0.3106  0.3237  0.1397
  187loPI   C3B 2991   7.626   6.886   8.526  0.0359  0.0524  0.1731
  187loPI   C4B 2992   7.683   6.991   8.122  0.2143 -0.2085 -0.1001
  188loPI    C1 2993  17.837   7.083  11.039 -0.0676 -0.2300  0.2368
  188loPI    C2 2994  17.919   7.396  11.274  0.4621 -0.0266 -0.1966
  188loPI    C3 2995  18.021   7.027  11.389  0.0405 -0.0239  0.2144
  188loPI   PO4 2996  17.781   7.193  10.842 -0.0661  0.1348  0.3456
  188loPI   GL1 2997  17.561   7.203  10.507  0.2248 -0.1390 -0.2287
  188loPI   GL2 2998  17.428   7.533  10.418  0.4887 -0.1807 -0.0771
  188loPI   C1A 2999  17.737   7.063  10.061  0.1542 -0.0610 -0.1974
  188loPI   C2A 3000  17.888   6.913   9.756 -0.0111  0.0583  0.3296
  188loPI   C3A 3001  17.912   6.879   9.308 -0.0525 -0.0336 -0.2750
  188loPI   C4A 3002  17.998   6.981   8.881 -0.0843  0.0668  0.1802
  188loPI   C5A 3003  18.124   7.073   8.455 -0.1891  0.2886 -0.2794
  188loPI   C6A 3004  18.052   6.962   8.010 -0.1529  0.0404  0.0081
  188loPI   C1B 3005  17.604   7.541   9.974  0.0644  0.1152  0.1032
  188loPI   C2B 3006  17.658   7.462   9.488  0.1040 -0.0513 -0.3539
  188loPI   C3B 3007  17.656   7.363   9.033 -0.4114 -0.0769  0.2119
  188loPI   C4B 3008  17.603   7.168   8.646 -0.1975 -0.2844 -0.2666
  189loPI    C1 3009   7.549  18.236  10.403  0.1637  0.1758  0.1565
  189loPI    C2 3010   7.291  17.955  10.524  0.0053  0.2726  0.0464
  189loPI    C3 3011   7.447  18.212  10.789  0.0548  0.1601  0.1270
  189loPI   PO4 3012   7.534  18.184  10.137 -0.2629  0.1709  0.2553
  189loPI   GL1 3013   7.465  18.284   9.744  0.2667 -0.0624 -0.1417
  189loPI   GL2 3014   7.671  18.479   9.740  0.0545 -0.2032 -0.1177
  189loPI   C1A 3015   7.442  18.298   9.327 -0.3225  0.1223 -0.3053
  189loPI   C2A 3016   7.386  18.305   8.882 -0.1031 -0.0398  0.1321
  189loPI   C3A 3017   7.359  18.276   8.557 -0.2749 -0.0604  0.3327
  189loPI   C4A 3018   7.553  18.123   8.110  0.1631  0.2180 -0.1505
  189loPI   C5A 3019   7.442  17.817   7.853  0.2197  0.4460  0.0132
  189loPI   C6A 3020   7.031  17.515   7.694 -0.2072 -0.2710  0.2079
  189loPI   C1B 3021   7.836  18.654   9.464  0.2736 -0.0227 -0.2802
  189loPI   C2B 3022   7.850  18.680   9.017  0.0087 -0.0938  0.2902
  189loPI   C3B 3023   7.821  18.416   8.593  0.4199 -0.4381  0.1072
  189loPI   C4B 3024   7.890  18.446   8.082  0.3598  0.0072  0.2985
  190loPI    C1 3025   2.190  11.751  10.468  0.0378 -0.2065  0.0284
  190loPI    C2 3026   2.266  12.098  10.653  0.0699 -0.2548  0.1062
  190loPI    C3 3027   2.471  11.769  10.753  0.3932 -0.1897 -0.3141
  190loPI   PO4 3028   2.012  11.686  10.457 -0.2435 -0.1874 -0.1345
  190loPI   GL1 3029   1.846  11.514  10.118 -0.1457 -0.2215  0.0920
  190loPI   GL2 3030   2.109  11.313   9.914 -0.0958  0.0727 -0.1109
  190loPI   C1A 3031   1.646  11.450   9.663 -0.0867  0.0946  0.0663
  190loPI   C2A 3032   1.554  11.389   9.240 -0.0903  0.2148  0.2043
  190loPI   C3A 3033   1.582  11.522   8.898 -0.0696  0.2790  0.0336
  190loPI   C4A 3034   1.456  11.409   8.549 -0.3213 -0.0591 -0.0741
  190loPI   C5A 3035   1.375  11.496   8.132  0.0371 -0.2863 -0.1852
  190loPI   C6A 3036   1.217  11.710   7.713  0.2109  0.2167 -0.2804
  190loPI   C1B 3037   2.229  11.423   9.547  0.0099 -0.0894  0.0519
  190loPI   C2B 3038   2.272  11.523   9.057 -0.2326 -0.2356  0.0956
  190loPI   C3B 3039   2.217  11.409   8.622 -0.2090  0.0207 -0.0725
  190loPI   C4B 3040   2.020  11.332   8.261 -0.5123  0.4496  0.0459
  191loPI    C1 3041  11.636   6.934  10.926 -0.1492 -0.0724  0.0323
  191loPI    C2 3042  11.372   6.738  11.153 -0.1461 -0.0470  0.0579
  191loPI    C3 3043  11.762   6.659  11.188 -0.1423 -0.0135  0.0909
  191loPI   PO4 3044  11.615   6.911  10.731  0.0003  0.0033 -0.0637
  191loPI   GL1 3045  12.003   6.815  10.409  0.3209  0.3724 -0.1546
  191loPI   GL2 3046  12.024   7.069  10.441 -0.2902  0.3008 -0.1773
  191loPI   C1A 3047  12.254   6.756  10.049 -0.2512  0.3127  0.0062
  191loPI   C2A 3048  12.353   6.811   9.637 -0.1257 -0.2229 -0.0782
  191loPI   C3A 3049  12.424   6.742   9.190 -0.1445  0.1547 -0.1248
  191loPI   C4A 3050  12.350   6.809   8.758  0.1291  0.0908 -0.4098
  191loPI   C5A 3051  12.392   6.946   8.259  0.1492  0.2298 -0.2382
  191loPI   C6A 3052  12.546   7.264   8.095 -0.2394 -0.1909 -0.1593
  191loPI   C1B 3053  11.915   7.277  10.078 -0.0558  0.2338 -0.2253
  191loPI   C2B 3054  12.055   7.197   9.666  0.1342  0.0248 -0.2593
  191loPI   C3B 3055  12.183   7.165   9.296  0.1068  0.1545 -0.1966
  191loPI   C4B 3056  12.040   7.176   8.852 -0.1296  0.1672 -0.3053
  192loPI    C1 3057   3.976  11.827  10.143 -0.0261 -0.0597 -0.0168
  192loPI    C2 3058   3.857  12.072  10.436 -0.0212 -0.3197  0.2069
  192loPI    C3 3059   4.232  11.935  10.431  0.0698 -0.0696 -0.0981
  192loPI   PO4 3060   3.834  11.888   9.923  0.0732 -0.0551 -0.2315
  192loPI   GL1 3061   4.026  12.043   9.559 -0.0241  0.4028  0.2374
  192loPI   GL2 3062   3.795  12.353   9.730 -0.0259 -0.0592 -0.1615
  192loPI   C1A 3063   4.020  11.897   9.122 -0.2723  0.1753  0.0490
  192loPI   C2A 3064   4.016  11.832   8.746  0.0457  0.0262 -0.0047
  192loPI   C3A 3065   3.912  11.868   8.404 -0.0748 -0.3104  0.0595
  192loPI   C4A 3066   4.025  11.793   7.962 -0.1872 -0.1799  0.1597
  192loPI   C5A 3067   4.183  11.809   7.576 -0.0297 -0.0885  0.0989
  192loPI   C6A 3068   3.987  11.719   7.187 -0.1184  0.0761 -0.0925
  192loPI   C1B 3069   3.756  12.366   9.217 -0.4529  0.0100 -0.1380
  192loPI   C2B 3070   3.790  12.329   8.811  0.0809  0.0644  0.0904
  192loPI   C3B 3071   3.656  12.282   8.482  0.1194 -0.3007 -0.0284
  192loPI   C4B 3072   3.604  12.156   7.990 -0.1045 -0.0453 -0.1041
  193loPI    C1 3073   2.638   0.220   9.950 -0.0795 -0.0825 -0.1622
  193loPI    C2 3074   2.472   0.045  10.269 -0.3504  0.0439 -0.2301
  193loPI    C3 3075   2.451   0.442  10.225  0.1144  0.0823 -0.1607
  193loPI   PO4 3076   2.518   0.043   9.745  0.0546 -0.1656  0.0938
  193loPI   GL1 3077   2.244   0.215   9.514  0.0003 -0.0758  0.1247
  193loPI   GL2 3078   2.455   0.423   9.399 -0.0327  0.0245 -0.0266
  193loPI   C1A 3079   1.971   0.095   9.168 -0.2288  0.1570  0.0497
  193loPI   C2A 3080   1.971  -0.123   8.850  0.1726  0.0666  0.2204
  193loPI   C3A 3081   1.942   0.099   8.479  0.0174  0.0377 -0.0192
  193loPI   C4A 3082   1.845   0.073   8.055 -0.4123 -0.1030 -0.2503
  193loPI   C5A 3083   1.823  -0.025   7.704  0.1284  0.1450 -0.1041
  193loPI   C6A 3084   1.860  -0.374   7.556 -0.2473 -0.2899 -0.1098
  193loPI   C1B 3085   2.292   0.522   9.128  0.5351  0.1299 -0.2694
  193loPI   C2B 3086   2.141   0.438   8.808  0.2243 -0.1646  0.1717
  193loPI   C3B 3087   2.158   0.603   8.397 -0.2103  0.0767 -0.1169
  193loPI   C4B 3088   2.251   0.356   8.126 -0.0817  0.2167 -0.2214
  194loPI    C1 3089  14.335   9.349  10.645  0.2301 -0.1955 -0.0327
  194loPI    C2 3090  14.101   9.234  10.948  0.1085 -0.1796 -0.1198
  194loPI    C3 3091  14.264   9.599  10.949 -0.2985  0.0088 -0.3123
  194loPI   PO4 3092  14.508   9.195  10.592 -0.3393  0.1672  0.2466
  194loPI   GL1 3093  14.694   9.167  10.269 -0.1097  0.1673 -0.0674
  194loPI   GL2 3094  14.891   8.903  10.342 -0.0616 -0.0097 -0.3433
  194loPI   C1A 3095  14.821   8.963   9.862 -0.2192 -0.3380 -0.1609
  194loPI   C2A 3096  14.908   8.925   9.391  0.1573 -0.1311  0.0067
  194loPI   C3A 3097  14.710   8.882   8.991  0.0845  0.3286  0.1552
  194loPI   C4A 3098  14.893   8.876   8.580  0.2663  0.1358  0.0483
  194loPI   C5A 3099  14.868   9.056   8.109 -0.1756 -0.0215 -0.2808
  194loPI   C6A 3100  15.194   9.148   7.861 -0.1013  0.1841 -0.2567
  194loPI   C1B 3101  14.959   8.519  10.096 -0.1160  0.0562  0.1039
  194loPI   C2B 3102  14.957   8.517   9.637 -0.1751  0.1135  0.4542
  194loPI   C3B 3103  15.016   8.457   9.155  0.2231  0.2826  0.0786
  194loPI   C4B 3104  15.014   8.397   8.732  0.3060  0.1448  0.1048
  195loPI    C1 3105   5.062   7.804  10.508 -0.3205 -0.1483 -0.1311
  195loPI    C2 3106   5.179   7.504  10.747  0.0957  0.0381 -0.0918
  195loPI    C3 3107   4.888   7.752  10.864  0.1146 -0.0320  0.1068
  195loPI   PO4 3108   5.088   7.691  10.236  0.2391 -0.2653  0.1752
  195loPI   GL1 3109   5.248   7.793   9.888 -0.0265  0.2176 -0.2070
  195loPI   GL2 3110   5.401   7.598   9.851 -0.0504 -0.0421 -0.1346
  195loPI   C1A 3111   5.144   7.926   9.534 -0.1541 -0.4431 -0.2437
  195loPI   C2A 3112   5.055   7.885   9.109 -0.0864 -0.2348 -0.0511
  195loPI   C3A 3113   5.027   7.653   8.655 -0.0505  0.0361  0.0823
  195loPI   C4A 3114   5.242   7.488   8.304  0.4368  0.0318 -0.2864
  195loPI   C5A 3115   5.556   7.577   7.959  0.0389 -0.1421  0.0806
  195loPI   C6A 3116   5.649   7.872   7.759  0.0861 -0.1464 -0.1061
  195loPI   C1B 3117   5.459   7.402   9.480 -0.0140 -0.2124 -0.0562
  195loPI   C2B 3118   5.450   7.440   9.048  0.1477 -0.0302 -0.3356
  195loPI   C3B 3119   5.594   7.279   8.592 -0.0468 -0.3188  0.3155
  195loPI   C4B 3120   5.650   7.195   8.219 -0.3196 -0.1472  0.0414
  196loPI    C1 3121  14.541   6.792  11.151 -0.0093  0.0855 -0.0754
  196loPI    C2 3122  14.308   6.546  11.364  0.1595 -0.2647 -0.2862
  196loPI    C3 3123  14.586   6.766  11.548 -0.1426 -0.0564 -0.0681
  196loPI   PO4 3124  14.493   6.795  10.913  0.1564 -0.2609 -0.0294
  196loPI   GL1 3125  14.605   6.920  10.594  0.1993  0.0084  0.1345
  196loPI   GL2 3126  14.232   6.676  10.501  0.1379  0.0876  0.0749
  196loPI   C1A 3127  14.486   7.056  10.161 -0.0524 -0.1069 -0.1482
  196loPI   C2A 3128  14.683   7.161   9.797  0.1759  0.1037  0.1839
  196loPI   C3A 3129  14.824   7.024   9.396 -0.0184 -0.1548 -0.0041
  196loPI   C4A 3130  14.779   7.014   8.932  0.3326  0.0674 -0.3603
  196loPI   C5A 3131  14.902   6.836   8.624 -0.2968 -0.1118 -0.1126
  196loPI   C6A 3132  14.980   6.953   8.244  0.1510  0.2092  0.1280
  196loPI   C1B 3133  14.390   6.579  10.033  0.0770  0.1780  0.0677
  196loPI   C2B 3134  14.403   6.595   9.577  0.1544  0.0390 -0.3634
  196loPI   C3B 3135  14.516   6.657   9.128  0.0763 -0.0937  0.1177
  196loPI   C4B 3136  14.462   6.676   8.745 -0.1772  0.0753  0.0380
  197loPI    C1 3137   4.729   5.710  10.795 -0.0353  0.1700  0.0306
  197loPI    C2 3138   4.638   5.895  11.138  0.0587 -0.1560  0.2357
  197loPI    C3 3139   5.021   5.829  11.043  0.0342 -0.0335  0.0486
  197loPI   PO4 3140   4.652   5.853  10.578 -0.0452 -0.2618  0.0539
  197loPI   GL1 3141   4.495   5.853  10.139  0.3881 -0.1387 -0.2094
  197loPI   GL2 3142   4.646   6.129  10.042 -0.3349 -0.0284  0.3706
  197loPI   C1A 3143   4.305   5.925   9.779  0.0007 -0.1799  0.0177
  197loPI   C2A 3144   4.305   6.019   9.350  0.1067 -0.1095  0.0073
  197loPI   C3A 3145   4.194   6.070   8.959  0.4383 -0.0650  0.2158
  197loPI   C4A 3146   4.198   6.058   8.446  0.0122 -0.0794  0.2380
  197loPI   C5A 3147   4.174   6.243   8.009  0.0487  0.1329 -0.0298
  197loPI   C6A 3148   4.018   6.093   7.593 -0.4814 -0.1532 -0.2343
  197loPI   C1B 3149   4.731   6.185   9.606 -0.1598 -0.1155 -0.3374
  197loPI   C2B 3150   4.911   6.455   9.313 -0.1219 -0.0329  0.1681
  197loPI   C3B 3151   5.041   6.419   8.940  0.0614 -0.2981 -0.2458
  197loPI   C4B 3152   5.134   6.517   8.544  0.0158 -0.1862 -0.1686
  198loPI    C1 3153  13.329   2.402  10.724  0.1632 -0.0166 -0.5540
  198loPI    C2 3154  13.406   2.788  10.652  0.1587  0.0760 -0.0926
  198loPI    C3 3155  13.546   2.615  10.984 -0.2451 -0.1912 -0.0554
  198loPI   PO4 3156  13.392   2.273  10.524 -0.2601  0.0420  0.1386
  198loPI   GL1 3157  13.695   2.118  10.179  0.1943 -0.0552 -0.1052
  198loPI   GL2 3158  13.436   2.093  10.030 -0.1438 -0.2352 -0.1327
  198loPI   C1A 3159  14.131   2.109   9.914  0.0363  0.0969  0.2336
  198loPI   C2A 3160  14.227   2.057   9.532  0.6182  0.1785 -0.0436
  198loPI   C3A 3161  14.209   2.153   9.144 -0.0044 -0.1412 -0.3023
  198loPI   C4A 3162  14.306   2.075   8.679  0.0851 -0.4012  0.1073
  198loPI   C5A 3163  14.271   2.332   8.306  0.2673 -0.0475 -0.1405
  198loPI   C6A 3164  14.005   2.414   8.045  0.2066  0.1778 -0.1080
  198loPI   C1B 3165  13.657   2.212   9.662 -0.0977  0.3465 -0.2054
  198loPI   C2B 3166  13.732   2.210   9.322  0.2647 -0.2515  0.3530
  198loPI   C3B 3167  13.657   2.149   8.955  0.2062  0.0038 -0.2305
  198loPI   C4B 3168  13.779   2.139   8.474  0.0539  0.1405  0.1105
  199loPI    C1 3169   1.384  17.516  10.411 -0.0106 -0.0735 -0.1578
  199loPI    C2 3170   1.159  17.301  10.662  0.0236 -0.2372 -0.2661
  199loPI    C3 3171   1.553  17.331  10.723  0.0086 -0.1469 -0.2115
  199loPI   PO4 3172   1.416  17.409  10.144 -0.0199  0.2927 -0.2772
  199loPI   GL1 3173   1.070  17.366   9.851 -0.1158  0.0625  0.0099
  199loPI   GL2 3174   0.848  17.628   9.915  0.4174  0.0771 -0.3030
  199loPI   C1A 3175   1.199  17.040   9.579 -0.2578  0.1709  0.1976
  199loPI   C2A 3176   1.284  16.989   9.148 -0.1540  0.1786 -0.0510
  199loPI   C3A 3177   1.136  17.068   8.730  0.0568  0.1012  0.2126
  199loPI   C4A 3178   1.050  16.963   8.296 -0.0944  0.1412  0.0560
  199loPI   C5A 3179   1.059  17.039   7.823 -0.0566 -0.1091 -0.1374
  199loPI   C6A 3180   1.239  17.185   7.523 -0.2318 -0.0177  0.3226
  199loPI   C1B 3181   0.853  17.715   9.453 -0.1089  0.2313  0.0753
  199loPI   C2B 3182   0.758  17.724   8.989 -0.2406  0.1556 -0.2607
  199loPI   C3B 3183   0.814  17.514   8.544 -0.0198 -0.0846 -0.2646
  199loPI   C4B 3184   0.814  17.447   8.093  0.1709 -0.0766 -0.2152
  200loPI    C1 3185   9.933  15.087  10.200  0.1728 -0.0850  0.1156
  200loPI    C2 3186   9.847  15.471  10.275  0.0360 -0.0603 -0.1553
  200loPI    C3 3187   9.743  15.188  10.538 -0.0498  0.0665 -0.0515
  200loPI   PO4 3188   9.971  15.103   9.982  0.4241  0.4794 -0.2875
  200loPI   GL1 3189  10.260  15.020   9.686  0.2418 -0.1723  0.2011
  200loPI   GL2 3190  10.692  14.912   9.644 -0.2207 -0.0766 -0.1967
  200loPI   C1A 3191  10.274  14.836   9.299 -0.3334  0.0786 -0.0349
  200loPI   C2A 3192  10.189  14.905   8.895 -0.2152  0.1886 -0.0312
  200loPI   C3A 3193  10.193  15.093   8.429  0.1977  0.0478  0.1204
  200loPI   C4A 3194  10.227  15.303   8.012 -0.0460 -0.0005 -0.0191
  200loPI   C5A 3195  10.338  15.699   7.753 -0.0383  0.1390 -0.0425
  200loPI   C6A 3196  10.339  16.068   7.474 -0.0313 -0.1452  0.2757
  200loPI   C1B 3197  10.711  14.633   9.380 -0.0595  0.0128 -0.0572
  200loPI   C2B 3198  10.623  14.531   8.925 -0.0723  0.2189  0.1756
  200loPI   C3B 3199  10.564  14.756   8.552 -0.2560  0.0553 -0.0152
  200loPI   C4B 3200  10.681  14.467   8.194  0.0648 -0.1582 -0.1491
  201loPI    C1 3201  16.581   2.673  11.140  0.1680  0.1480  0.1076
  201loPI    C2 3202  16.397   2.610  11.490  0.1836  0.0928  0.1061
  201loPI    C3 3203  16.615   2.942  11.435  0.0322  0.1898  0.0856
  201loPI   PO4 3204  16.445   2.642  10.943  0.3273  0.2240  0.1166
  201loPI   GL1 3205  16.382   2.744  10.540 -0.2543  0.1287 -0.2317
  201loPI   GL2 3206  16.422   2.454  10.327 -0.0619  0.2709 -0.1716
  201loPI   C1A 3207  16.262   3.013  10.174  0.0738 -0.1028 -0.1597
  201loPI   C2A 3208  16.164   2.819   9.821 -0.3406  0.1402 -0.0231
  201loPI   C3A 3209  16.255   2.926   9.399  0.1120  0.0026  0.1845
  201loPI   C4A 3210  16.348   3.025   8.986 -0.1778 -0.0224 -0.3299
  201loPI   C5A 3211  16.460   2.946   8.617  0.2369 -0.2187 -0.1463
  201loPI   C6A 3212  16.183   2.652   8.491  0.1022  0.0012  0.2691
  201loPI   C1B 3213  16.440   2.340   9.988  0.0160  0.1682  0.1256
  201loPI   C2B 3214  16.503   2.354   9.538 -0.1609  0.0083 -0.0141
  201loPI   C3B 3215  16.521   2.520   9.185 -0.3026 -0.0359  0.0702
  201loPI   C4B 3216  16.635   2.496   8.666 -0.2882  0.1227  0.1857
  202loPI    C1 3217  16.138  14.794  10.630  0.0560 -0.0652  0.1630
  202loPI    C2 3218  16.241  14.453  10.812 -0.0291 -0.0700  0.2023
  202loPI    C3 3219  15.984  14.705  10.988 -0.2282 -0.1452  0.0232
  202loPI   PO4 3220  16.131  14.754  10.369  0.0781 -0.2035  0.0020
  202loPI   GL1 3221  15.862  15.018  10.059  0.0925  0.0539  0.0323
  202loPI   GL2 3222  15.644  15.163  10.063 -0.1723  0.3578  0.0855
  202loPI   C1A 3223  16.017  14.922   9.555  0.1032 -0.1062  0.0736
  202loPI   C2A 3224  16.092  14.814   9.163 -0.0438 -0.3275  0.1749
  202loPI   C3A 3225  16.215  14.890   8.850  0.0105 -0.1391 -0.1018
  202loPI   C4A 3226  16.291  14.799   8.510 -0.0279 -0.1477 -0.0429
  202loPI   C5A 3227  16.436  15.031   8.119 -0.0665  0.0505  0.1372
  202loPI   C6A 3228  16.351  15.343   7.807 -0.0660 -0.0610  0.0439
  202loPI   C1B 3229  15.758  15.318   9.652  0.2304  0.1010  0.0606
  202loPI   C2B 3230  15.880  15.337   9.279  0.0279  0.2340 -0.3038
  202loPI   C3B 3231  15.930  15.437   8.866 -0.1274 -0.0709  0.0270
  202loPI   C4B 3232  16.128  15.312   8.470  0.2583  0.1472  0.2687
  203loPI    C1 3233   0.762   4.932  10.936 -0.1625  0.1682 -0.2404
  203loPI    C2 3234   0.915   4.590  11.077  0.0878  0.3841  0.0238
  203loPI    C3 3235   0.518   4.638  11.056  0.0507  0.0794 -0.0166
  203loPI   PO4 3236   0.894   4.984  10.708 -0.0464  0.1139 -0.2987
  203loPI   GL1 3237   0.786   5.022  10.269 -0.1067 -0.0207  0.3460
  203loPI   GL2 3238   1.075   5.108  10.041 -0.0245  0.3412 -0.4336
  203loPI   C1A 3239   0.635   4.650   9.976 -0.0886 -0.0740 -0.0808
  203loPI   C2A 3240   0.726   4.723   9.497 -0.2799 -0.1034 -0.1249
  203loPI   C3A 3241   0.618   4.681   9.059 -0.0023  0.0351  0.1824
  203loPI   C4A 3242   0.544   4.615   8.709 -0.0198  0.2392 -0.2257
  203loPI   C5A 3243   0.358   4.588   8.249 -0.0078  0.1399 -0.0714
  203loPI   C6A 3244   0.159   4.568   7.830  0.0526  0.1803  0.0107
  203loPI   C1B 3245   1.031   5.200   9.659 -0.2926 -0.1008 -0.0364
  203loPI   C2B 3246   1.004   5.083   9.243  0.1348  0.2900  0.0355
  203loPI   C3B 3247   0.874   5.008   8.815  0.2185 -0.2076  0.0798
  203loPI   C4B 3248   0.739   4.955   8.403 -0.2049  0.0374  0.1120
  204loPI    C1 3249  17.335   6.083  11.262 -0.1173 -0.1863  0.1816
  204loPI    C2 3250  17.384   6.199  11.642  0.2409 -0.0429  0.0959
  204loPI    C3 3251  17.609   5.904  11.492  0.1499 -0.0518 -0.0253
  204loPI   PO4 3252  17.064   5.937  11.136 -0.1656 -0.1754 -0.1213
  204loPI   GL1 3253  16.985   5.901  10.734  0.3016 -0.2154 -0.0549
  204loPI   GL2 3254  16.858   6.005  10.589 -0.0060 -0.0805 -0.0121
  204loPI   C1A 3255  17.326   5.823  10.444 -0.1150  0.1154  0.1788
  204loPI   C2A 3256  17.464   5.557  10.080  0.0117 -0.2819  0.0836
  204loPI   C3A 3257  17.528   5.529   9.634 -0.0779 -0.1292  0.1345
  204loPI   C4A 3258  17.590   5.640   9.187 -0.0707  0.0053 -0.0608
  204loPI   C5A 3259  17.512   5.525   8.696  0.2873 -0.0938  0.0683
  204loPI   C6A 3260  17.594   5.377   8.231  0.1885  0.0877  0.2243
  204loPI   C1B 3261  16.855   6.008  10.183  0.0531  0.0831  0.1945
  204loPI   C2B 3262  16.729   6.041   9.765 -0.2910  0.1088  0.2367
  204loPI   C3B 3263  16.845   6.102   9.271 -0.0874 -0.0011 -0.0455
  204loPI   C4B 3264  16.766   6.137   8.877 -0.0791  0.2679 -0.0498
  205loPI    C1 3265  17.298   2.493  10.975  0.0800  0.0601  0.1886
  205loPI    C2 3266  17.051   2.757  11.146 -0.1230 -0.0356  0.0481
  205loPI    C3 3267  16.993   2.365  11.200  0.1074 -0.0564  0.1601
  205loPI   PO4 3268  17.249   2.606  10.664 -0.1861 -0.0926  0.0847
  205loPI   GL1 3269  17.518   2.804  10.489 -0.1789 -0.1920  0.1296
  205loPI   GL2 3270  17.125   2.875  10.291 -0.1084  0.0166 -0.2118
  205loPI   C1A 3271  17.519   2.923  10.008  0.3192 -0.0353  0.0224
  205loPI   C2A 3272  17.516   2.907   9.601  0.3360 -0.0364  0.2326
  205loPI   C3A 3273  17.391   2.896   9.170 -0.4160  0.1867  0.0404
  205loPI   C4A 3274  17.364   2.866   8.710 -0.3134  0.1630  0.1708
  205loPI   C5A 3275  17.201   2.713   8.313 -0.0791  0.2361  0.1331
  205loPI   C6A 3276  17.302   2.561   7.835 -0.1243  0.1225  0.2529
  205loPI   C1B 3277  16.787   2.809  10.123 -0.1715 -0.1285 -0.0223
  205loPI   C2B 3278  16.681   2.820   9.741  0.1986 -0.1778  0.0502
  205loPI   C3B 3279  16.812   2.934   9.335 -0.2553  0.2079 -0.0328
  205loPI   C4B 3280  16.870   2.903   8.917  0.1428 -0.1735  0.1550
  206loPI    C1 3281   9.757  12.794  10.038 -0.0382  0.0587  0.0417
  206loPI    C2 3282   9.584  12.993  10.339 -0.3761  0.0018 -0.1102
  206loPI    C3 3283   9.918  12.783  10.404 -0.2205  0.3162  0.1327
  206loPI   PO4 3284   9.827  12.962   9.858  0.4783  0.2244  0.1788
  206loPI   GL1 3285   9.750  13.119   9.500  0.1478  0.3942  0.0745
  206loPI   GL2 3286  10.084  12.954   9.385  0.0025 -0.0033  0.2049
  206loPI   C1A 3287   9.618  12.753   9.123 -0.1901 -0.0633  0.2147
  206loPI   C2A 3288   9.550  12.407   8.806  0.2712 -0.4722 -0.1297
  206loPI   C3A 3289   9.690  12.088   8.528 -0.3490  0.0753 -0.1290
  206loPI   C4A 3290   9.762  11.871   8.185 -0.2383 -0.1229 -0.0060
  206loPI   C5A 3291   9.859  11.589   7.744 -0.1557  0.4050  0.2527
  206loPI   C6A 3292  10.113  11.434   7.496  0.0925 -0.0446  0.1389
  206loPI   C1B 3293  10.075  12.919   8.996  0.2945  0.0311  0.4941
  206loPI   C2B 3294  10.014  12.822   8.546  0.2209 -0.0560 -0.0626
  206loPI   C3B 3295  10.003  12.619   8.126  0.1634 -0.2732  0.2940
  206loPI   C4B 3296   9.910  12.601   7.695  0.4557  0.0021 -0.2015
  207loPI    C1 3297  12.303  13.194   9.934 -0.1876  0.0143  0.0419
  207loPI    C2 3298  12.329  13.519  10.166  0.0209 -0.0424  0.1001
  207loPI    C3 3299  12.156  13.186  10.306  0.1763 -0.0871  0.1874
  207loPI   PO4 3300  12.211  13.283   9.732  0.0181 -0.2219 -0.3405
  207loPI   GL1 3301  12.371  13.241   9.362 -0.3479  0.3421 -0.2393
  207loPI   GL2 3302  12.474  12.956   9.417 -0.2965  0.2961  0.2801
  207loPI   C1A 3303  12.701  13.442   9.141  0.1422 -0.4585 -0.1482
  207loPI   C2A 3304  12.879  13.688   8.792 -0.1967 -0.1317  0.3084
  207loPI   C3A 3305  12.953  13.678   8.375  0.0055 -0.0813  0.0422
  207loPI   C4A 3306  13.141  13.733   7.942  0.0119  0.0367 -0.2563
  207loPI   C5A 3307  13.576  13.824   7.651  0.4898  0.0512  0.0884
  207loPI   C6A 3308  13.716  14.171   7.418 -0.0974 -0.1166 -0.0357
  207loPI   C1B 3309  12.503  12.977   8.971 -0.0261  0.1571  0.1236
  207loPI   C2B 3310  12.551  13.182   8.754 -0.0879  0.0635  0.0071
  207loPI   C3B 3311  12.845  13.248   8.499  0.1674  0.1674  0.0204
  207loPI   C4B 3312  13.000  13.173   8.118  0.0023  0.1748 -0.0815
  208loPI    C1 3313   0.337   5.715  11.036  0.1887 -0.0019 -0.2121
  208loPI    C2 3314  -0.009   5.902  11.108  0.0803 -0.1685 -0.2941
  208loPI    C3 3315   0.252   5.844  11.405 -0.0849 -0.2885 -0.1701
  208loPI   PO4 3316   0.294   5.599  10.792  0.1645 -0.0498 -0.2623
  208loPI   GL1 3317   0.109   5.632  10.291 -0.2329 -0.0969  0.1659
  208loPI   GL2 3318   0.311   5.460  10.298 -0.0313  0.0358  0.1604
  208loPI   C1A 3319  -0.136   5.793   9.850 -0.5877  0.0843 -0.1517
  208loPI   C2A 3320  -0.152   6.048   9.528  0.3355  0.0678  0.1547
  208loPI   C3A 3321  -0.048   6.003   9.115 -0.1627 -0.0996 -0.0197
  208loPI   C4A 3322  -0.165   5.992   8.722  0.0687  0.1013 -0.0311
  208loPI   C5A 3323  -0.160   6.189   8.373 -0.5679  0.1159 -0.1454
  208loPI   C6A 3324  -0.289   6.529   8.176 -0.0852  0.3311  0.0104
  208loPI   C1B 3325   0.228   5.502   9.815 -0.2109 -0.2173 -0.0687
  208loPI   C2B 3326   0.087   5.555   9.298 -0.3831  0.1167 -0.1473
  208loPI   C3B 3327   0.072   5.547   8.904  0.0708 -0.3217  0.0268
  208loPI   C4B 3328   0.086   5.579   8.482  0.1130 -0.3138 -0.0275
  209loPI    C1 3329  16.155  11.418  10.913 -0.0660  0.1130  0.1151
  209loPI    C2 3330  16.385  11.273  11.206  0.0847 -0.1739 -0.1407
  209loPI    C3 3331  16.440  11.647  11.077  0.1654 -0.1201  0.0453
  209loPI   PO4 3332  16.145  11.159  10.809 -0.0952 -0.1406  0.1752
  209loPI   GL1 3333  15.995  11.052  10.366  0.2927 -0.0605  0.2536
  209loPI   GL2 3334  16.013  10.755  10.206 -0.1467  0.1817  0.0677
  209loPI   C1A 3335  16.078  11.228   9.963  0.0222 -0.0615 -0.2219
  209loPI   C2A 3336  16.081  11.199   9.542 -0.0917 -0.0763  0.1487
  209loPI   C3A 3337  16.178  11.124   9.128 -0.0045 -0.0872  0.0042
  209loPI   C4A 3338  16.133  11.188   8.683 -0.0366 -0.3063  0.0147
  209loPI   C5A 3339  16.247  11.074   8.278  0.2258  0.0301 -0.0408
  209loPI   C6A 3340  16.459  10.697   8.190 -0.3335  0.1001  0.1282
  209loPI   C1B 3341  16.283  10.743   9.944 -0.2353 -0.1667 -0.0245
  209loPI   C2B 3342  16.352  10.769   9.508  0.1341  0.0118 -0.0106
  209loPI   C3B 3343  16.341  10.616   9.148 -0.4155 -0.2890  0.0739
  209loPI   C4B 3344  16.416  10.711   8.809  0.1245  0.0455 -0.0598
  210loPI    C1 3345   8.102   7.953  10.593  0.0352  0.0181 -0.1216
  210loPI    C2 3346   7.834   7.771  10.358 -0.0476 -0.0354  0.0133
  210loPI    C3 3347   7.761   7.815  10.749  0.2238 -0.2204  0.0874
  210loPI   PO4 3348   8.227   8.065  10.304 -0.0924 -0.2407  0.2230
  210loPI   GL1 3349   8.337   8.094   9.861  0.0225  0.2868  0.0246
  210loPI   GL2 3350   8.004   7.886   9.900  0.2820 -0.0160  0.2477
  210loPI   C1A 3351   8.436   7.886   9.387 -0.0016  0.1292  0.0151
  210loPI   C2A 3352   8.468   7.899   8.982 -0.2134 -0.3534  0.0564
  210loPI   C3A 3353   8.656   7.734   8.732 -0.0407 -0.0440 -0.0134
  210loPI   C4A 3354   8.749   7.725   8.291 -0.2129  0.2098  0.2277
  210loPI   C5A 3355   8.590   7.671   7.852 -0.0438  0.0647 -0.2351
  210loPI   C6A 3356   8.522   7.554   7.464  0.2493 -0.1570 -0.2616
  210loPI   C1B 3357   7.826   7.721   9.481  0.3238  0.0429  0.1035
  210loPI   C2B 3358   8.017   7.727   9.053 -0.1306  0.1249 -0.0033
  210loPI   C3B 3359   8.125   7.628   8.682  0.0443  0.0442  0.0232
  210loPI   C4B 3360   8.317   7.915   8.444 -0.0577 -0.2362  0.3001
  211loPI    C1 3361   5.402   2.451  10.405 -0.0669  0.1188  0.0792
  211loPI    C2 3362   5.635   2.698  10.617  0.2859 -0.1440  0.0068
  211loPI    C3 3363   5.680   2.302  10.651 -0.1962 -0.2024  0.0348
  211loPI   PO4 3364   5.342   2.601  10.152  0.0474 -0.1047  0.2921
  211loPI   GL1 3365   5.569   2.502   9.746 -0.0672  0.2099  0.1959
  211loPI   GL2 3366   5.680   2.899   9.748 -0.1632 -0.4945 -0.0267
  211loPI   C1A 3367   5.371   2.524   9.379  0.1516  0.0282 -0.1888
  211loPI   C2A 3368   5.184   2.519   9.073 -0.3860 -0.2686  0.1258
  211loPI   C3A 3369   5.201   2.491   8.766 -0.1353  0.0097 -0.2863
  211loPI   C4A 3370   5.087   2.238   8.580  0.2457  0.0646 -0.2294
  211loPI   C5A 3371   5.116   1.941   8.276 -0.3224  0.0606 -0.0362
  211loPI   C6A 3372   4.985   2.076   7.904  0.0940  0.4205  0.0155
  211loPI   C1B 3373   5.317   3.010   9.493 -0.0183  0.2384 -0.0048
  211loPI   C2B 3374   5.262   3.042   9.117  0.0893  0.1106 -0.0169
  211loPI   C3B 3375   5.242   2.957   8.721  0.5136 -0.0784  0.0647
  211loPI   C4B 3376   5.340   2.841   8.258  0.4189 -0.0162 -0.1652
  212loPI    C1 3377   5.413   0.853  10.348 -0.1886  0.1301  0.1247
  212loPI    C2 3378   5.487   0.634  10.674  0.0202 -0.5140 -0.3359
  212loPI    C3 3379   5.749   0.912  10.556 -0.1142 -0.1911  0.1001
  212loPI   PO4 3380   5.411   0.752  10.192 -0.1032 -0.0057  0.1280
  212loPI   GL1 3381   5.502   0.901   9.845 -0.0069 -0.0627  0.1590
  212loPI   GL2 3382   5.654   1.165   9.756 -0.0918  0.0517  0.0443
  212loPI   C1A 3383   5.725   0.692   9.529 -0.4054 -0.1348 -0.0938
  212loPI   C2A 3384   5.814   0.587   9.167 -0.0816  0.1928  0.0391
  212loPI   C3A 3385   5.754   0.578   8.737 -0.3732 -0.0537 -0.0157
  212loPI   C4A 3386   5.681   0.384   8.265  0.0200  0.1459 -0.4662
  212loPI   C5A 3387   5.375   0.241   7.999  0.0115  0.0360 -0.1055
  212loPI   C6A 3388   5.037  -0.151   7.751  0.0804  0.4458  0.0328
  212loPI   C1B 3389   5.556   1.062   9.319  0.1740  0.0413  0.2446
  212loPI   C2B 3390   5.570   1.024   8.938  0.1762  0.0640 -0.1107
  212loPI   C3B 3391   5.585   1.037   8.422 -0.1529 -0.1956 -0.2494
  212loPI   C4B 3392   5.350   1.036   7.986  0.1607 -0.3061 -0.1927
  213loPI    C1 3393  18.386   5.327  10.955 -0.1282 -0.2086 -0.1076
  213loPI    C2 3394  18.726   5.169  11.095 -0.0409  0.1544  0.1055
  213loPI    C3 3395  18.494   5.389  11.336 -0.4725 -0.1535 -0.0152
  213loPI   PO4 3396  18.429   5.237  10.716  0.1244  0.2942  0.1130
  213loPI   GL1 3397  18.456   5.110  10.414 -0.2131  0.3037  0.0632
  213loPI   GL2 3398  18.644   4.932  10.278 -0.0341 -0.2723 -0.0682
  213loPI   C1A 3399  18.329   5.240  10.027 -0.1486  0.0332 -0.4857
  213loPI   C2A 3400  18.416   5.178   9.621 -0.0606 -0.0575 -0.0984
  213loPI   C3A 3401  18.280   5.139   9.286 -0.0365  0.1929  0.2491
  213loPI   C4A 3402  18.305   5.105   8.935  0.3510  0.1054  0.3155
  213loPI   C5A 3403  18.269   5.140   8.502 -0.0595 -0.0937 -0.3755
  213loPI   C6A 3404  18.147   5.317   8.198 -0.0355  0.0456  0.0352
  213loPI   C1B 3405  18.821   5.055   9.909  0.1025 -0.2368  0.1398
  213loPI   C2B 3406  18.899   5.111   9.457  0.1155  0.0193  0.2004
  213loPI   C3B 3407  18.792   5.065   9.040  0.4249  0.2255  0.1918
  213loPI   C4B 3408  18.775   5.079   8.599  0.0269 -0.1387  0.2631
  214loPI    C1 3409   0.231   2.129  10.983 -0.2389  0.1016  0.0747
  214loPI    C2 3410   0.267   2.527  10.999 -0.2032  0.0973  0.1043
  214loPI    C3 3411   0.471   2.297  11.255  0.2300  0.0343 -0.2837
  214loPI   PO4 3412   0.216   2.070  10.652  0.0376 -0.0274  0.0786
  214loPI   GL1 3413   0.143   1.972  10.245  0.0579 -0.0793  0.1317
  214loPI   GL2 3414   0.409   1.895  10.070 -0.0680 -0.1323 -0.2805
  214loPI   C1A 3415   0.335   2.295   9.804 -0.1988  0.4699  0.4674
  214loPI   C2A 3416   0.237   2.400   9.369  0.2765 -0.0448  0.1601
  214loPI   C3A 3417   0.166   2.394   9.002  0.1099  0.1491  0.2707
  214loPI   C4A 3418   0.178   2.436   8.533 -0.0304 -0.2253 -0.0994
  214loPI   C5A 3419   0.027   2.586   8.171 -0.0733 -0.0563 -0.0765
  214loPI   C6A 3420   0.212   2.483   7.851  0.0450  0.2104  0.0023
  214loPI   C1B 3421  -0.016   1.904   9.733  0.0958  0.0646 -0.3593
  214loPI   C2B 3422  -0.058   1.962   9.400  0.2106  0.1499  0.0471
  214loPI   C3B 3423  -0.078   1.873   8.880  0.1881 -0.1056  0.1319
  214loPI   C4B 3424  -0.208   2.020   8.539 -0.1099 -0.1772 -0.1422
  215loPI    C1 3425   2.219   8.806  11.005 -0.0328  0.0237 -0.1602
  215loPI    C2 3426   2.018   9.060  11.240 -0.0591  0.0529 -0.2140
  215loPI    C3 3427   2.415   9.026  11.275 -0.0836 -0.0711 -0.0450
  215loPI   PO4 3428   2.084   8.892  10.726  0.0881  0.3389 -0.1531
  215loPI   GL1 3429   1.973   8.794  10.330  0.1507 -0.3510 -0.3299
  215loPI   GL2 3430   1.855   9.139  10.293 -0.2626 -0.0849 -0.0721
  215loPI   C1A 3431   2.080   8.834   9.919 -0.0495 -0.2461 -0.2527
  215loPI   C2A 3432   2.067   8.677   9.525  0.3704  0.0555 -0.1861
  215loPI   C3A 3433   2.183   8.748   9.159  0.0363  0.4409  0.1733
  215loPI   C4A 3434   1.984   8.777   8.820  0.0156  0.0581  0.0792
  215loPI   C5A 3435   1.915   8.668   8.366 -0.0027 -0.2955 -0.2428
  215loPI   C6A 3436   2.031   9.043   8.058 -0.1250 -0.2596 -0.0934
  215loPI   C1B 3437   1.821   9.292   9.874 -0.1291  0.0406 -0.1920
  215loPI   C2B 3438   1.958   9.170   9.502  0.0707  0.2475  0.0789
  215loPI   C3B 3439   1.746   9.152   9.210 -0.2257  0.0838  0.0343
  215loPI   C4B 3440   1.678   9.211   8.795  0.0468  0.2482 -0.0544
  216loPI    C1 3441   9.897   9.670  10.482 -0.0165  0.0428  0.1118
  216loPI    C2 3442   9.961  10.050  10.588 -0.0659  0.0523  0.1083
  216loPI    C3 3443   9.734   9.814  10.817 -0.1120  0.0515  0.0621
  216loPI   PO4 3444   9.818   9.652  10.242  0.5525 -0.0941 -0.0527
  216loPI   GL1 3445   9.884   9.509   9.964  0.2181  0.0659 -0.2649
  216loPI   GL2 3446  10.167   9.653   9.886  0.2770 -0.3497 -0.3604
  216loPI   C1A 3447   9.912   9.305   9.674  0.1583 -0.2497 -0.0471
  216loPI   C2A 3448  10.087   9.097   9.299  0.2413  0.4264 -0.2330
  216loPI   C3A 3449  10.063   9.051   8.851  0.0649  0.0937 -0.3582
  216loPI   C4A 3450  10.071   8.868   8.450  0.0376  0.0024 -0.0745
  216loPI   C5A 3451  10.055   9.070   8.122  0.1649  0.3859 -0.0518
  216loPI   C6A 3452  10.255   9.299   7.826  0.1296  0.0760 -0.1122
  216loPI   C1B 3453  10.137   9.724   9.451 -0.2242  0.2201 -0.3080
  216loPI   C2B 3454  10.249   9.535   9.094 -0.1408 -0.1218 -0.1902
  216loPI   C3B 3455  10.314   9.467   8.724 -0.1338 -0.2107  0.2016
  216loPI   C4B 3456  10.358   9.316   8.387  0.0357 -0.3420  0.1274
  217loPI    C1 3457  14.055   0.687  10.896  0.0360  0.0241 -0.1505
  217loPI    C2 3458  14.326   0.615  11.181 -0.1159  0.1062  0.0166
  217loPI    C3 3459  14.227   0.327  10.921  0.1482  0.0832 -0.0616
  217loPI   PO4 3460  14.104   0.824  10.625 -0.1057  0.2683  0.3132
  217loPI   GL1 3461  14.226   0.868  10.327  0.0730 -0.1824 -0.0156
  217loPI   GL2 3462  14.458   1.088  10.311  0.3018  0.1744  0.0973
  217loPI   C1A 3463  14.215   0.665   9.882  0.0661 -0.1231  0.4041
  217loPI   C2A 3464  14.267   0.763   9.447  0.1424  0.0367 -0.1161
  217loPI   C3A 3465  14.449   0.776   8.998 -0.2068  0.0786  0.2561
  217loPI   C4A 3466  14.569   0.789   8.538 -0.1657  0.1979  0.0271
  217loPI   C5A 3467  14.458   0.743   8.047  0.2764 -0.0690 -0.3265
  217loPI   C6A 3468  14.148   0.519   7.884 -0.0510 -0.3677 -0.1362
  217loPI   C1B 3469  14.491   1.087   9.883  0.3613  0.3133 -0.2211
  217loPI   C2B 3470  14.589   1.115   9.381 -0.2883  0.1379  0.3161
  217loPI   C3B 3471  14.719   1.157   8.944 -0.2454  0.1754 -0.0135
  217loPI   C4B 3472  14.804   1.365   8.605  0.1313  0.0070 -0.0689
  218loPI    C1 3473  12.397   1.068  10.669  0.2109 -0.1177  0.0606
  218loPI    C2 3474  12.159   0.807  10.483 -0.0707  0.0598  0.1647
  218loPI    C3 3475  12.324   0.711  10.834 -0.0522 -0.0345  0.1305
  218loPI   PO4 3476  12.538   1.197  10.450 -0.1068  0.0485  0.1084
  218loPI   GL1 3477  12.878   0.996  10.176  0.0933 -0.0124  0.1808
  218loPI   GL2 3478  12.598   0.879  10.119 -0.0047  0.1003  0.1045
  218loPI   C1A 3479  13.058   1.121   9.793 -0.1420  0.2356 -0.2410
  218loPI   C2A 3480  13.066   1.183   9.403 -0.0954 -0.0151 -0.2470
  218loPI   C3A 3481  13.163   1.199   9.024  0.4443  0.0638  0.1472
  218loPI   C4A 3482  13.231   1.248   8.593  0.0333 -0.0183  0.1949
  218loPI   C5A 3483  13.339   1.260   8.162 -0.0629  0.0023  0.1068
  218loPI   C6A 3484  13.341   1.256   7.677  0.2038 -0.0379  0.0596
  218loPI   C1B 3485  12.394   0.601   9.848  0.1910  0.0608  0.0464
  218loPI   C2B 3486  12.268   0.540   9.396  0.0384 -0.1461 -0.1141
  218loPI   C3B 3487  12.314   0.577   8.931  0.2968 -0.1387 -0.3253
  218loPI   C4B 3488  12.264   0.662   8.438 -0.0408  0.1672 -0.1000
  219loPI    C1 3489  17.352   5.021  11.236 -0.1216  0.1318  0.0137
  219loPI    C2 3490  17.310   4.632  11.153 -0.1657  0.1461 -0.0311
  219loPI    C3 3491  17.344   4.753  11.533  0.1360  0.0713 -0.0311
  219loPI   PO4 3492  17.129   5.061  11.088  0.2884  0.0493 -0.2434
  219loPI   GL1 3493  16.918   5.067  10.703 -0.0610  0.0804  0.3484
  219loPI   GL2 3494  16.827   5.448  10.539 -0.0189  0.2703  0.2945
  219loPI   C1A 3495  17.004   5.011  10.292 -0.0713  0.0029 -0.1004
  219loPI   C2A 3496  17.228   5.095   9.865 -0.2686  0.2719 -0.4787
  219loPI   C3A 3497  17.307   5.105   9.477  0.1497  0.0410 -0.1089
  219loPI   C4A 3498  17.324   5.231   9.004 -0.0604 -0.3990  0.1433
  219loPI   C5A 3499  17.195   5.147   8.578  0.0403  0.2444 -0.1070
  219loPI   C6A 3500  17.119   5.468   8.323 -0.2683  0.3687 -0.3900
  219loPI   C1B 3501  16.944   5.520  10.088  0.1153 -0.4472 -0.2298
  219loPI   C2B 3502  17.037   5.639   9.633  0.1114  0.1290 -0.0981
  219loPI   C3B 3503  17.100   5.685   9.210 -0.0286  0.1021  0.3755
  219loPI   C4B 3504  17.059   5.635   8.769  0.4163  0.1186  0.0429
  220loPI    C1 3505   8.565  17.663  10.587  0.2748 -0.0103  0.0599
  220loPI    C2 3506   8.185  17.589  10.487  0.3490 -0.2283 -0.0685
  220loPI    C3 3507   8.275  17.707  10.859  0.1675 -0.2712 -0.0099
  220loPI   PO4 3508   8.625  17.778  10.319  0.0304  0.2893  0.0142
  220loPI   GL1 3509   8.354  17.669  10.013 -0.0989 -0.1771 -0.0964
  220loPI   GL2 3510   8.608  17.432   9.851 -0.0845  0.0851 -0.2050
  220loPI   C1A 3511   8.314  17.789   9.592 -0.2343 -0.3039  0.1619
  220loPI   C2A 3512   8.398  17.779   9.190 -0.2119  0.0514 -0.2818
  220loPI   C3A 3513   8.360  17.639   8.748  0.0816 -0.1072  0.0734
  220loPI   C4A 3514   8.411  17.543   8.262  0.1187  0.3687 -0.1118
  220loPI   C5A 3515   8.263  17.740   7.919  0.1947  0.2705  0.3127
  220loPI   C6A 3516   8.152  17.517   7.593 -0.0049 -0.1060 -0.0875
  220loPI   C1B 3517   8.537  17.262   9.467  0.1845  0.2092  0.1672
  220loPI   C2B 3518   8.395  17.268   9.051  0.1584  0.1171 -0.0681
  220loPI   C3B 3519   8.509  17.145   8.647  0.2647 -0.3169 -0.0261
  220loPI   C4B 3520   8.660  17.101   8.296 -0.0136  0.0154  0.0752
  221loPI    C1 3521  10.482   4.866  10.647  0.0680 -0.1621 -0.0790
  221loPI    C2 3522  10.878   4.822  10.691  0.1227  0.0787 -0.3098
  221loPI    C3 3523  10.701   5.164  10.801 -0.0958 -0.1954  0.2266
  221loPI   PO4 3524  10.449   4.847  10.376 -0.1435  0.0243  0.0022
  221loPI   GL1 3525  10.432   4.907   9.951 -0.2979 -0.0299 -0.1348
  221loPI   GL2 3526  10.526   5.280   9.829  0.0765 -0.0595 -0.0958
  221loPI   C1A 3527  10.505   4.910   9.473 -0.0473 -0.1762  0.0884
  221loPI   C2A 3528  10.586   4.908   9.118 -0.1326  0.0900  0.0472
  221loPI   C3A 3529  10.631   5.003   8.625  0.0999 -0.1540 -0.0586
  221loPI   C4A 3530  10.801   4.979   8.231 -0.0904  0.0596  0.0610
  221loPI   C5A 3531  10.550   4.960   7.895  0.0619 -0.1374  0.1149
  221loPI   C6A 3532  10.355   4.957   7.512  0.1092 -0.2191  0.1009
  221loPI   C1B 3533  10.325   5.332   9.382 -0.1672  0.0468  0.0514
  221loPI   C2B 3534  10.466   5.348   8.963 -0.1268 -0.0249  0.3037
  221loPI   C3B 3535  10.485   5.437   8.589  0.1605 -0.0616 -0.1963
  221loPI   C4B 3536  10.609   5.480   8.266 -0.0172  0.0587  0.1660
  222loPI    C1 3537   4.159  16.392  10.498  0.2049  0.2120  0.1442
  222loPI    C2 3538   3.961  16.233  10.807 -0.2239 -0.0825 -0.2681
  222loPI    C3 3539   4.145  15.995  10.543  0.0213  0.1598 -0.3203
  222loPI   PO4 3540   3.955  16.594  10.310 -0.0201  0.1011  0.1567
  222loPI   GL1 3541   3.711  16.556  10.014  0.2626  0.1813  0.2710
  222loPI   GL2 3542   3.431  16.821   9.888 -0.0426 -0.0689  0.2336
  222loPI   C1A 3543   4.041  16.573   9.669 -0.0819 -0.1025 -0.1867
  222loPI   C2A 3544   4.096  16.738   9.351 -0.3608  0.0621 -0.0759
  222loPI   C3A 3545   4.122  16.687   8.922 -0.1060 -0.0232 -0.1390
  222loPI   C4A 3546   4.228  16.665   8.601  0.2025 -0.0859 -0.3486
  222loPI   C5A 3547   4.239  16.348   8.403 -0.0348 -0.1272 -0.0264
  222loPI   C6A 3548   4.206  16.194   7.981  0.0872 -0.1577 -0.1710
  222loPI   C1B 3549   3.552  16.596   9.501 -0.0343  0.0962  0.1125
  222loPI   C2B 3550   3.651  16.581   9.074 -0.0437  0.0124 -0.1626
  222loPI   C3B 3551   3.584  16.589   8.667  0.0605  0.0137 -0.0831
  222loPI   C4B 3552   3.797  16.561   8.404 -0.4345 -0.2525 -0.3048
  223loPI    C1 3553  14.509  13.171  10.175 -0.1705  0.0260 -0.1332
  223loPI    C2 3554  14.168  13.290  10.347 -0.2402 -0.1968 -0.1142
  223loPI    C3 3555  14.513  13.466  10.445 -0.3130 -0.1547  0.0701
  223loPI   PO4 3556  14.472  13.118   9.882 -0.1423  0.0391  0.0692
  223loPI   GL1 3557  14.621  12.912   9.561  0.2542 -0.0330  0.3105
  223loPI   GL2 3558  14.974  12.954   9.461  0.1724 -0.1384 -0.0163
  223loPI   C1A 3559  14.633  12.981   9.137 -0.1519  0.0911 -0.2597
  223loPI   C2A 3560  14.629  12.890   8.693  0.1376  0.0600 -0.0315
  223loPI   C3A 3561  14.666  12.852   8.316 -0.1075  0.0919  0.2199
  223loPI   C4A 3562  14.786  12.928   7.802 -0.0419  0.0234 -0.1195
  223loPI   C5A 3563  14.810  13.352   7.541  0.0593 -0.2185 -0.3256
  223loPI   C6A 3564  14.839  13.662   7.248 -0.2968 -0.1565  0.1648
  223loPI   C1B 3565  15.130  12.855   9.053 -0.1843  0.2718 -0.1325
  223loPI   C2B 3566  15.188  13.000   8.674 -0.1374  0.2488 -0.3997
  223loPI   C3B 3567  15.216  12.853   8.281  0.3098 -0.1978 -0.1029
  223loPI   C4B 3568  15.349  12.931   7.835 -0.0302  0.0269  0.0117
  224loPI    C1 3569  13.829   5.551  10.942  0.0096 -0.1169  0.0500
  224loPI    C2 3570  14.190   5.410  10.843 -0.0137 -0.1167 -0.0361
  224loPI    C3 3571  14.028   5.314  11.196  0.1147 -0.0338  0.0458
  224loPI   PO4 3572  13.782   5.674  10.781  0.0280  0.1221 -0.0036
  224loPI   GL1 3573  13.579   5.878  10.537  0.0912  0.0390 -0.0136
  224loPI   GL2 3574  13.796   5.725  10.280  0.1553 -0.2128 -0.2981
  224loPI   C1A 3575  13.639   6.197  10.198 -0.1763 -0.1847  0.0332
  224loPI   C2A 3576  13.590   6.228   9.805  0.0937 -0.0278 -0.2673
  224loPI   C3A 3577  13.698   6.217   9.350  0.0797 -0.2397  0.1321
  224loPI   C4A 3578  13.707   6.210   8.924 -0.0828  0.0136  0.0428
  224loPI   C5A 3579  13.631   6.249   8.506  0.4122 -0.2305  0.0677
  224loPI   C6A 3580  13.779   6.587   8.207 -0.1772 -0.2786 -0.0177
  224loPI   C1B 3581  13.798   5.723   9.753 -0.0971  0.0676 -0.0780
  224loPI   C2B 3582  13.916   5.735   9.321  0.0493 -0.3592  0.0495
  224loPI   C3B 3583  13.957   5.666   8.848 -0.0123 -0.1597 -0.0070
  224loPI   C4B 3584  14.018   5.944   8.434 -0.0133  0.0841 -0.0324
  225loPI    C1 3585  13.159  10.893  10.295  0.3238 -0.1693  0.1021
  225loPI    C2 3586  13.392  10.770  10.596  0.3273  0.0259  0.1803
  225loPI    C3 3587  13.219  11.131  10.611 -0.2691 -0.2514  0.2883
  225loPI   PO4 3588  13.288  10.862  10.084 -0.0566 -0.1700  0.2079
  225loPI   GL1 3589  13.310  10.535   9.683 -0.0300  0.0516  0.0935
  225loPI   GL2 3590  13.215  10.769   9.433 -0.0749 -0.3548  0.0599
  225loPI   C1A 3591  13.485  10.368   9.466 -0.3801 -0.0901  0.0052
  225loPI   C2A 3592  13.525  10.208   9.090 -0.0901 -0.2463  0.2693
  225loPI   C3A 3593  13.610  10.272   8.654 -0.3354 -0.0772 -0.0971
  225loPI   C4A 3594  13.677  10.083   8.251  0.1921 -0.0517  0.2258
  225loPI   C5A 3595  13.875  10.171   7.913 -0.2997 -0.1024  0.0017
  225loPI   C6A 3596  14.337  10.155   7.769  0.0356 -0.4676 -0.3929
  225loPI   C1B 3597  13.417  10.689   9.022 -0.0285 -0.2038 -0.2081
  225loPI   C2B 3598  13.396  10.786   8.629 -0.0136 -0.2749  0.2573
  225loPI   C3B 3599  13.115  10.759   8.226 -0.0115 -0.0355  0.0947
  225loPI   C4B 3600  13.136  10.875   7.886  0.0330  0.1553  0.1846
  226loPI    C1 3601  14.471   3.588  10.969 -0.0732  0.1811 -0.0219
  226loPI    C2 3602  14.833   3.634  11.132 -0.0884 -0.0958  0.0949
  226loPI    C3 3603  14.510   3.611  11.366 -0.1249 -0.3613  0.0215
  226loPI   PO4 3604  14.535   3.548  10.740  0.1950  0.0637 -0.0861
  226loPI   GL1 3605  14.500   3.734  10.362 -0.0095  0.1039  0.0160
  226loPI   GL2 3606  14.367   3.383  10.186 -0.1304  0.0494 -0.1870
  226loPI   C1A 3607  14.764   3.867   9.954  0.1541  0.0385 -0.0457
  226loPI   C2A 3608  14.807   4.022   9.502  0.0692  0.1158  0.0509
  226loPI   C3A 3609  14.869   3.918   9.060 -0.0011 -0.3399  0.2216
  226loPI   C4A 3610  14.982   3.936   8.615  0.1797 -0.1380  0.0116
  226loPI   C5A 3611  14.549   4.045   8.455 -0.1986 -0.0202 -0.2144
  226loPI   C6A 3612  14.159   3.935   8.325  0.0725 -0.2498  0.1099
  226loPI   C1B 3613  14.458   3.473   9.868 -0.2020 -0.2535 -0.1918
  226loPI   C2B 3614  14.559   3.630   9.476  0.1034 -0.0839  0.1799
  226loPI   C3B 3615  14.594   3.467   9.124  0.0697  0.2000  0.1213
  226loPI   C4B 3616  14.588   3.604   8.702 -0.2842 -0.0367 -0.2902
  227loPI    C1 3617   4.256  12.720  10.381 -0.1459 -0.2722 -0.0296
  227loPI    C2 3618   4.153  12.415  10.619 -0.1942 -0.0305  0.2646
  227loPI    C3 3619   4.524  12.562  10.632 -0.2011 -0.0069  0.2008
  227loPI   PO4 3620   4.045  12.761  10.173  0.0810 -0.1852 -0.1481
  227loPI   GL1 3621   4.165  12.986   9.783 -0.1388  0.1903  0.0981
  227loPI   GL2 3622   4.147  12.724   9.666 -0.5380  0.3576  0.0220
  227loPI   C1A 3623   4.189  13.316   9.427 -0.1586 -0.2476 -0.1160
  227loPI   C2A 3624   4.237  13.329   9.016  0.0672  0.0441  0.0630
  227loPI   C3A 3625   4.148  13.240   8.682  0.2020  0.0441  0.3648
  227loPI   C4A 3626   4.255  13.111   8.323 -0.0528 -0.1147 -0.1017
  227loPI   C5A 3627   4.322  13.023   7.913  0.1519 -0.1860 -0.3794
  227loPI   C6A 3628   4.174  12.810   7.494 -0.0851  0.0123  0.1117
  227loPI   C1B 3629   4.072  12.850   9.310 -0.0390 -0.0265  0.0188
  227loPI   C2B 3630   3.959  12.866   8.932  0.0660 -0.3340  0.0030
  227loPI   C3B 3631   3.946  12.711   8.592 -0.0678 -0.1639  0.1133
  227loPI   C4B 3632   4.023  12.677   8.177  0.3263  0.0812 -0.1784
  228loPI    C1 3633   7.649   6.337  10.259 -0.0456 -0.2488  0.1075
  228loPI    C2 3634   8.048   6.316  10.273 -0.0470 -0.2958  0.0763
  228loPI    C3 3635   7.861   6.644  10.404  0.0176 -0.1524 -0.1833
  228loPI   PO4 3636   7.601   6.195  10.089  0.2495 -0.2321 -0.0293
  228loPI   GL1 3637   7.525   5.841   9.809 -0.0706 -0.0152 -0.1126
  228loPI   GL2 3638   7.477   6.163   9.579 -0.0634 -0.0585 -0.0044
  228loPI   C1A 3639   7.781   5.697   9.465  0.2284 -0.0699  0.2572
  228loPI   C2A 3640   7.843   5.619   8.964  0.1477  0.3506  0.0304
  228loPI   C3A 3641   7.701   5.715   8.519  0.1536  0.3264 -0.2664
  228loPI   C4A 3642   7.627   5.722   8.036  0.1131  0.2580 -0.3365
  228loPI   C5A 3643   7.285   5.922   7.824 -0.1079 -0.0857  0.0039
  228loPI   C6A 3644   7.255   5.965   7.389  0.1170  0.0130 -0.1143
  228loPI   C1B 3645   7.341   5.958   9.266 -0.1305 -0.0699  0.1268
  228loPI   C2B 3646   7.255   5.795   8.800 -0.0004  0.0558  0.1840
  228loPI   C3B 3647   7.196   5.606   8.333 -0.2620  0.1046 -0.2956
  228loPI   C4B 3648   7.164   5.436   7.968 -0.3679 -0.3955 -0.0338
  229loPI    C1 3649  11.656  12.358  10.063  0.2761 -0.1569  0.1881
  229loPI    C2 3650  11.507  12.609  10.336 -0.2031 -0.1490 -0.0684
  229loPI    C3 3651  11.478  12.213  10.391  0.0793 -0.1511  0.0858
  229loPI   PO4 3652  11.711  12.503   9.902  0.1079  0.0114 -0.2835
  229loPI   GL1 3653  11.744  12.676   9.492  0.0800  0.1297  0.0028
  229loPI   GL2 3654  11.904  12.848   9.422  0.0065 -0.2806 -0.1586
  229loPI   C1A 3655  11.866  12.360   9.265  0.0367  0.2777 -0.0281
  229loPI   C2A 3656  11.739  12.284   8.850  0.0842  0.3594 -0.0815
  229loPI   C3A 3657  11.937  12.218   8.448  0.2698 -0.2499  0.2308
  229loPI   C4A 3658  11.924  12.251   8.006  0.1008  0.0739  0.2439
  229loPI   C5A 3659  11.918  11.903   7.812 -0.0423  0.3593  0.2279
  229loPI   C6A 3660  12.304  11.709   7.625 -0.0117  0.0570  0.0716
  229loPI   C1B 3661  12.111  12.759   9.155 -0.1452  0.3435 -0.0571
  229loPI   C2B 3662  12.202  12.623   8.758  0.3105 -0.2325 -0.1300
  229loPI   C3B 3663  12.381  12.338   8.467 -0.0199 -0.1225 -0.0835
  229loPI   C4B 3664  12.406  12.186   7.970 -0.1918 -0.0128 -0.0741
  230loPI    C1 3665   4.300   5.432  10.401 -0.0241 -0.2811 -0.1706
  230loPI    C2 3666   4.482   5.231  10.695  0.0337  0.1841  0.1230
  230loPI    C3 3667   4.283   5.568  10.777 -0.1651  0.1865 -0.3390
  230loPI   PO4 3668   4.176   5.261  10.303 -0.2741 -0.2096  0.0899
  230loPI   GL1 3669   4.203   4.883  10.011 -0.1487  0.2661 -0.2687
  230loPI   GL2 3670   3.874   5.079   9.887  0.3735 -0.1516 -0.1483
  230loPI   C1A 3671   4.270   5.008   9.616  0.2870 -0.1425 -0.0090
  230loPI   C2A 3672   4.138   4.978   9.268  0.0096  0.0908  0.0810
  230loPI   C3A 3673   4.056   4.872   8.803  0.2192 -0.2059  0.2664
  230loPI   C4A 3674   4.011   4.941   8.331  0.2935 -0.2152  0.0110
  230loPI   C5A 3675   4.238   4.907   8.039 -0.3060  0.1635 -0.0184
  230loPI   C6A 3676   4.344   4.825   7.646  0.0321 -0.3906  0.2878
  230loPI   C1B 3677   3.755   5.274   9.534 -0.1491 -0.1272  0.1879
  230loPI   C2B 3678   3.746   5.320   9.020 -0.1723 -0.3099 -0.0295
  230loPI   C3B 3679   3.823   5.344   8.611 -0.1902  0.1455 -0.1267
  230loPI   C4B 3680   3.598   5.209   8.218 -0.1784  0.0870 -0.2265
  231loPI    C1 3681   4.608  16.228  10.727 -0.0875  0.1192  0.1567
  231loPI    C2 3682   4.558  15.853  10.857 -0.1393 -0.0018 -0.2003
  231loPI    C3 3683   4.837  16.087  11.023 -0.2022 -0.1492  0.1206
  231loPI   PO4 3684   4.675  16.185  10.444  0.3230  0.1397 -0.1020
  231loPI   GL1 3685   4.473  16.313  10.034 -0.1312  0.1062  0.1834
  231loPI   GL2 3686   4.290  16.068  10.051  0.0041  0.0235  0.2563
  231loPI   C1A 3687   4.555  16.422   9.649 -0.0806 -0.0612  0.0153
  231loPI   C2A 3688   4.445  16.398   9.270 -0.1530  0.2186  0.1821
  231loPI   C3A 3689   4.471  16.354   8.861 -0.0341 -0.1576  0.2499
  231loPI   C4A 3690   4.749  16.403   8.623  0.0444 -0.0515  0.2417
  231loPI   C5A 3691   4.773  16.415   8.092  0.0176 -0.0103 -0.1317
  231loPI   C6A 3692   4.962  16.672   7.829  0.0362 -0.0724 -0.1405
  231loPI   C1B 3693   4.310  15.938   9.586 -0.0724 -0.0301  0.0835
  231loPI   C2B 3694   4.434  15.880   9.089 -0.0936 -0.1061 -0.4207
  231loPI   C3B 3695   4.507  15.967   8.582  0.1397 -0.1316 -0.1628
  231loPI   C4B 3696   4.640  15.926   8.116  0.1154 -0.3409 -0.1340
  232loPI    C1 3697   3.753   5.590  10.660  0.0415  0.0177  0.1238
  232loPI    C2 3698   3.523   5.408  10.931 -0.0448 -0.1274 -0.0448
  232loPI    C3 3699   3.836   5.627  11.050  0.0018 -0.3037  0.1657
  232loPI   PO4 3700   3.659   5.404  10.442  0.3653  0.3258  0.1668
  232loPI   GL1 3701   3.506   5.419  10.119  0.0989  0.1229  0.2294
  232loPI   GL2 3702   3.350   5.096  10.077  0.2191 -0.3610  0.1062
  232loPI   C1A 3703   3.352   5.500   9.624  0.1903  0.0376 -0.1179
  232loPI   C2A 3704   3.322   5.481   9.291 -0.3793 -0.2416  0.2430
  232loPI   C3A 3705   3.402   5.573   8.802 -0.0696  0.2443 -0.1790
  232loPI   C4A 3706   3.450   5.657   8.345  0.1340  0.0988  0.0117
  232loPI   C5A 3707   3.311   6.041   8.124  0.2288 -0.1799  0.2240
  232loPI   C6A 3708   2.859   6.087   8.136 -0.0236  0.0807  0.0487
  232loPI   C1B 3709   3.227   5.060   9.781 -0.2388 -0.1663  0.0927
  232loPI   C2B 3710   3.052   5.011   9.390 -0.0909  0.0804 -0.2048
  232loPI   C3B 3711   3.198   5.150   8.992 -0.1756  0.1195  0.0440
  232loPI   C4B 3712   3.217   5.080   8.503  0.1118 -0.0923  0.2292
  233loPI    C1 3713   1.652  18.421  10.265  0.2792 -0.2521 -0.0081
  233loPI    C2 3714   1.893  18.713  10.394  0.0503  0.0635 -0.2756
  233loPI    C3 3715   1.633  18.541  10.646  0.1959  0.0783 -0.1131
  233loPI   PO4 3716   1.632  18.618   9.941  0.1216  0.1297  0.2070
  233loPI   GL1 3717   1.694  18.377   9.584 -0.0694  0.1895 -0.2194
  233loPI   GL2 3718   1.454  18.194   9.706 -0.0582 -0.0159 -0.1424
  233loPI   C1A 3719   1.740  17.977   9.254  0.1983  0.0226  0.0413
  233loPI   C2A 3720   1.706  17.854   8.811  0.0733 -0.1484 -0.0817
  233loPI   C3A 3721   1.606  17.920   8.350  0.2165  0.1845  0.1425
  233loPI   C4A 3722   1.478  18.163   7.885 -0.0110  0.0454  0.1803
  233loPI   C5A 3723   1.349  18.054   7.470 -0.0583 -0.0890  0.2808
  233loPI   C6A 3724   1.127  18.408   7.166  0.1272 -0.1547 -0.3267
  233loPI   C1B 3725   1.270  17.983   9.462 -0.0758 -0.1121  0.4945
  233loPI   C2B 3726   1.229  17.997   8.997 -0.0393  0.0436 -0.1083
  233loPI   C3B 3727   1.034  18.002   8.640  0.2464  0.0457 -0.0243
  233loPI   C4B 3728   1.103  18.008   8.202 -0.1426 -0.4057  0.1416
  234loPI    C1 3729  10.077   1.363  10.267 -0.2353 -0.0522 -0.1693
  234loPI    C2 3730  10.104   1.041  10.502  0.3360  0.1614  0.0772
  234loPI    C3 3731   9.808   1.304  10.557  0.0275 -0.1727  0.0544
  234loPI   PO4 3732  10.102   1.322  10.098 -0.0045 -0.2219 -0.0140
  234loPI   GL1 3733   9.891   1.405   9.714  0.0043  0.0821 -0.2114
  234loPI   GL2 3734  10.017   1.093   9.604  0.2029 -0.1903 -0.1640
  234loPI   C1A 3735  10.190   1.506   9.405 -0.1313  0.0283 -0.2464
  234loPI   C2A 3736  10.335   1.380   8.945  0.0195 -0.3000 -0.1549
  234loPI   C3A 3737  10.770   1.452   8.697 -0.0500 -0.4314  0.2007
  234loPI   C4A 3738  10.884   1.510   8.386  0.0005  0.0651 -0.0367
  234loPI   C5A 3739  10.983   1.803   8.005  0.0587 -0.1284  0.3879
  234loPI   C6A 3740  10.859   1.874   7.618 -0.0482  0.1135  0.2711
  234loPI   C1B 3741  10.002   1.063   9.194  0.0997 -0.1429 -0.0519
  234loPI   C2B 3742  10.054   1.011   8.782 -0.4347 -0.4609  0.1594
  234loPI   C3B 3743   9.920   0.850   8.369 -0.0664  0.3219  0.1199
  234loPI   C4B 3744   9.850   0.932   7.892 -0.0269  0.0890  0.1556
  235loPI    C1 3745  12.321  16.257  10.144 -0.0502 -0.1628 -0.1737
  235loPI    C2 3746  12.021  16.346  10.394  0.0741 -0.2796  0.0200
  235loPI    C3 3747  12.389  16.284  10.537  0.2353  0.0563 -0.2351
  235loPI   PO4 3748  12.287  16.122  10.004  0.2425  0.2314  0.0660
  235loPI   GL1 3749  12.207  16.075   9.644  0.1787  0.2691  0.0439
  235loPI   GL2 3750  12.443  16.077   9.476 -0.0511  0.3737 -0.0932
  235loPI   C1A 3751  11.795  16.159   9.254 -0.1891 -0.1003 -0.2564
  235loPI   C2A 3752  11.767  16.149   8.847 -0.0851  0.2619 -0.0653
  235loPI   C3A 3753  11.664  16.104   8.452  0.1165  0.0370 -0.0487
  235loPI   C4A 3754  11.447  16.106   8.034  0.0213 -0.1337 -0.1945
  235loPI   C5A 3755  11.152  15.967   7.612 -0.0725 -0.2754  0.2238
  235loPI   C6A 3756  11.276  15.643   7.260  0.0857 -0.2191  0.2215
  235loPI   C1B 3757  12.278  16.193   9.063  0.0255  0.1214 -0.2581
  235loPI   C2B 3758  12.181  16.187   8.609  0.2187 -0.1651 -0.0451
  235loPI   C3B 3759  12.045  16.140   8.062  0.3466  0.0874 -0.1129
  235loPI   C4B 3760  11.867  16.064   7.730  0.0855 -0.2317 -0.2380
  236loPI    C1 3761  10.276  17.215  10.492 -0.1606  0.0247 -0.1044
  236loPI    C2 3762  10.574  17.461  10.595 -0.0059 -0.1028 -0.2421
  236loPI    C3 3763  10.266  17.405  10.844  0.1414 -0.0595 -0.0479
  236loPI   PO4 3764  10.305  17.231  10.112  0.1193  0.1769 -0.6288
  236loPI   GL1 3765  10.353  17.298   9.737 -0.1804 -0.2144 -0.3371
  236loPI   GL2 3766  10.618  17.090   9.717 -0.1159  0.1294 -0.1319
  236loPI   C1A 3767  10.453  17.406   9.295 -0.3486 -0.1610  0.1668
  236loPI   C2A 3768  10.405  17.587   8.949 -0.1901  0.1252  0.0455
  236loPI   C3A 3769  10.280  17.786   8.638 -0.1290  0.0109  0.0755
  236loPI   C4A 3770  10.286  17.969   8.222  0.2270  0.0957 -0.2408
  236loPI   C5A 3771  10.530  18.187   7.958 -0.2420 -0.2158  0.1023
  236loPI   C6A 3772  10.759  18.497   7.688 -0.0226  0.2213  0.3096
  236loPI   C1B 3773  10.732  17.001   9.278  0.0786 -0.1342  0.2038
  236loPI   C2B 3774  10.700  17.186   8.815  0.0165 -0.0403 -0.1532
  236loPI   C3B 3775  10.644  17.443   8.487 -0.1549 -0.0428  0.0408
  236loPI   C4B 3776  10.683  17.675   8.131  0.0058 -0.0832  0.2071
  237loPI    C1 3777  13.502   4.951  10.959 -0.0735  0.1917  0.0240
  237loPI    C2 3778  13.503   5.243  11.232 -0.1267  0.1609  0.0575
  237loPI    C3 3779  13.297   4.907  11.300 -0.0511  0.1081  0.0269
  237loPI   PO4 3780  13.786   5.012  10.827  0.0599  0.0724  0.2123
  237loPI   GL1 3781  13.795   5.288  10.481 -0.2818 -0.0756  0.0161
  237loPI   GL2 3782  14.107   5.174  10.426  0.0909 -0.0398  0.0948
  237loPI   C1A 3783  13.629   5.259  10.056 -0.0454 -0.0397  0.0604
  237loPI   C2A 3784  13.534   5.225   9.646  0.3933  0.2850  0.2804
  237loPI   C3A 3785  13.654   5.354   9.273 -0.0929 -0.2035  0.2194
  237loPI   C4A 3786  13.675   5.315   8.873  0.2863  0.1485 -0.1090
  237loPI   C5A 3787  13.729   5.450   8.451  0.3629 -0.0113 -0.1682
  237loPI   C6A 3788  13.689   5.725   8.141 -0.3734  0.0096  0.2208
  237loPI   C1B 3789  14.122   5.319   9.980  0.2882 -0.0037 -0.1428
  237loPI   C2B 3790  14.097   5.279   9.532  0.1742 -0.0489 -0.0419
  237loPI   C3B 3791  14.177   5.250   9.090  0.2150  0.2115  0.1703
  237loPI   C4B 3792  14.169   5.265   8.680  0.2328  0.0394  0.2047
  238loPI    C1 3793   1.830   5.723  10.966 -0.1737 -0.2095 -0.1032
  238loPI    C2 3794   1.476   5.786  11.141 -0.0849 -0.3221  0.1210
  238loPI    C3 3795   1.776   5.623  11.349  0.1050 -0.2120 -0.0626
  238loPI   PO4 3796   1.676   5.588  10.664 -0.0305  0.0386  0.1988
  238loPI   GL1 3797   1.635   5.674  10.157 -0.1701 -0.0559 -0.1560
  238loPI   GL2 3798   1.834   5.502  10.196 -0.0685 -0.0896  0.0201
  238loPI   C1A 3799   1.784   5.585   9.679  0.4104 -0.1187  0.2505
  238loPI   C2A 3800   1.883   5.536   9.404 -0.1070  0.2089  0.1503
  238loPI   C3A 3801   1.874   5.486   8.984 -0.3213 -0.1372 -0.2378
  238loPI   C4A 3802   1.903   5.444   8.608  0.1092 -0.0100  0.0725
  238loPI   C5A 3803   2.131   5.594   8.191  0.0710  0.3184 -0.0532
  238loPI   C6A 3804   2.479   5.759   7.950 -0.1409  0.3372  0.2224
  238loPI   C1B 3805   2.167   5.547   9.932 -0.2666 -0.1784 -0.2040
  238loPI   C2B 3806   2.343   5.603   9.567 -0.0789 -0.1852 -0.1617
  238loPI   C3B 3807   2.340   5.520   9.153  0.1879  0.0803  0.2093
  238loPI   C4B 3808   2.397   5.583   8.685 -0.0253 -0.1538 -0.0005
  239loPI    C1 3809  12.802  12.018  10.369 -0.2919  0.4624 -0.2742
  239loPI    C2 3810  12.414  11.931  10.411 -0.1352 -0.1721 -0.0251
  239loPI    C3 3811  12.634  12.025  10.732 -0.0276 -0.0512 -0.1327
  239loPI   PO4 3812  12.853  11.783  10.035 -0.0097  0.0816  0.1308
  239loPI   GL1 3813  12.750  11.399   9.722  0.2411 -0.4989 -0.2415
  239loPI   GL2 3814  12.959  11.185   9.802 -0.0616 -0.2586  0.1252
  239loPI   C1A 3815  12.454  11.292   9.432 -0.1508 -0.0057 -0.0142
  239loPI   C2A 3816  12.566  11.118   9.021 -0.2289 -0.1012  0.4570
  239loPI   C3A 3817  12.641  11.097   8.503  0.1987 -0.0821 -0.1842
  239loPI   C4A 3818  12.674  11.289   8.033 -0.1617 -0.2657  0.3484
  239loPI   C5A 3819  12.860  11.267   7.613  0.2907 -0.0892  0.1597
  239loPI   C6A 3820  13.207  11.319   7.364 -0.1703 -0.0741  0.2282
  239loPI   C1B 3821  12.976  11.261   9.335  0.0400  0.1956  0.1197
  239loPI   C2B 3822  13.149  11.141   8.978 -0.1847 -0.2986 -0.2317
  239loPI   C3B 3823  13.096  11.201   8.583 -0.0607  0.1286 -0.1482
  239loPI   C4B 3824  13.194  11.293   8.135  0.2839 -0.0832  0.0373
  240loPI    C1 3825   9.377   1.216  10.326 -0.0493 -0.0920  0.0074
  240loPI    C2 3826   9.007   1.094  10.416 -0.0587  0.0590  0.1817
  240loPI    C3 3827   9.246   1.234  10.704  0.0070  0.3003  0.0129
  240loPI   PO4 3828   9.315   1.194  10.025  0.0348 -0.1327 -0.1661
  240loPI   GL1 3829   9.214   1.169   9.631 -0.1470 -0.2170  0.0867
  240loPI   GL2 3830   9.402   0.860   9.601 -0.0890 -0.1763 -0.0228
  240loPI   C1A 3831   9.569   1.280   9.365  0.0126 -0.0817  0.0583
  240loPI   C2A 3832   9.650   1.291   8.959 -0.0957 -0.0079 -0.1763
  240loPI   C3A 3833   9.445   0.957   8.619 -0.2865  0.1800  0.0688
  240loPI   C4A 3834   9.453   0.674   8.157  0.4399  0.1992  0.0088
  240loPI   C5A 3835   9.494   0.538   7.797 -0.0310  0.1268  0.0227
  240loPI   C6A 3836   9.962   0.456   7.573  0.2081  0.0491  0.0176
  240loPI   C1B 3837   9.126   0.729   9.458  0.0795  0.1031  0.0786
  240loPI   C2B 3838   9.181   0.587   8.975  0.1015  0.2253 -0.2012
  240loPI   C3B 3839   9.234   0.453   8.606  0.2106 -0.0215 -0.0772
  240loPI   C4B 3840   9.099   0.351   8.176 -0.0344 -0.0089  0.0752
  241loPI    C1 3841  12.529   9.349  10.751 -0.2104  0.0823  0.0882
  241loPI    C2 3842  12.532   8.991  10.930  0.2174  0.1468  0.2221
  241loPI    C3 3843  12.308   9.288  11.079 -0.2140 -0.0856  0.0554
  241loPI   PO4 3844  12.433   9.251  10.423 -0.0235 -0.0881  0.2808
  241loPI   GL1 3845  12.566   9.493  10.132  0.2006  0.0208 -0.4017
  241loPI   GL2 3846  12.862   9.413  10.170  0.5169 -0.0518  0.2093
  241loPI   C1A 3847  12.500   9.358   9.724  0.2259 -0.2550  0.3422
  241loPI   C2A 3848  12.338   9.413   9.372  0.2968  0.4131  0.0906
  241loPI   C3A 3849  12.472   9.476   8.995  0.0016  0.0861  0.0777
  241loPI   C4A 3850  12.445   9.352   8.668 -0.3808 -0.0004 -0.0338
  241loPI   C5A 3851  12.528   9.297   8.216  0.0318  0.0776  0.1619
  241loPI   C6A 3852  12.816   9.330   7.849 -0.0738  0.1673  0.1867
  241loPI   C1B 3853  13.005   9.465   9.704 -0.1603  0.0385 -0.0413
  241loPI   C2B 3854  13.066   9.356   9.269 -0.2604  0.1095 -0.0772
  241loPI   C3B 3855  13.028   9.451   8.817 -0.4665  0.0506 -0.1227
  241loPI   C4B 3856  12.884   9.613   8.356  0.2545  0.0172 -0.0512
  242loPI    C1 3857   6.080   4.839  10.773 -0.0004 -0.2629  0.2209
  242loPI    C2 3858   5.895   5.182  10.866  0.0806 -0.1530 -0.0163
  242loPI    C3 3859   6.256   5.102  11.018  0.1440 -0.0458 -0.1093
  242loPI   PO4 3860   5.927   4.901  10.461  0.0018 -0.0337 -0.2900
  242loPI   GL1 3861   6.012   4.881  10.106 -0.1854 -0.1846 -0.0534
  242loPI   GL2 3862   5.774   5.044   9.948 -0.3265  0.0493  0.1843
  242loPI   C1A 3863   5.892   4.490   9.770  0.0916 -0.0513 -0.2839
  242loPI   C2A 3864   5.655   4.369   9.329  0.1981 -0.0778  0.0941
  242loPI   C3A 3865   5.533   4.541   9.017 -0.2175 -0.1099 -0.2195
  242loPI   C4A 3866   5.273   4.441   8.640 -0.2532 -0.0679  0.2154
  242loPI   C5A 3867   5.183   4.802   8.352 -0.1078 -0.2043  0.2104
  242loPI   C6A 3868   4.873   5.069   8.176  0.1005 -0.3005  0.1396
  242loPI   C1B 3869   5.759   5.130   9.447 -0.1623  0.2054  0.1124
  242loPI   C2B 3870   5.614   5.086   9.050 -0.0209  0.1226 -0.1436
  242loPI   C3B 3871   5.457   5.150   8.617 -0.1677 -0.2659  0.1533
  242loPI   C4B 3872   5.337   5.247   8.169  0.2026  0.0319  0.0971
  243loPI    C1 3873   9.438  10.094  10.267  0.2642  0.3284 -0.1484
  243loPI    C2 3874   9.273  10.415  10.440  0.2614  0.1833  0.1252
  243loPI    C3 3875   9.396  10.108  10.665 -0.1415 -0.2010 -0.1602
  243loPI   PO4 3876   9.610  10.162  10.123  0.1029  0.1196 -0.2607
  243loPI   GL1 3877   9.741  10.388   9.711  0.0035 -0.0874 -0.1815
  243loPI   GL2 3878  10.048  10.172   9.589 -0.1382 -0.0077 -0.2427
  243loPI   C1A 3879   9.792  10.563   9.383 -0.0300 -0.1370  0.0436
  243loPI   C2A 3880   9.845  10.447   8.867 -0.1197 -0.0215 -0.3856
  243loPI   C3A 3881   9.863  10.294   8.493  0.1074  0.3339 -0.2315
  243loPI   C4A 3882   9.987  10.291   8.028  0.0960  0.0395 -0.0083
  243loPI   C5A 3883  10.205  10.178   7.654 -0.0557  0.1593  0.3208
  243loPI   C6A 3884  10.430  10.088   7.314  0.1772  0.0505  0.1904
  243loPI   C1B 3885   9.910  10.121   9.249 -0.1605  0.5707  0.0798
  243loPI   C2B 3886  10.052   9.937   8.835 -0.1583 -0.0501 -0.1019
  243loPI   C3B 3887  10.041   9.793   8.426  0.1614  0.2041  0.0605
  243loPI   C4B 3888  10.214   9.773   8.088 -0.2591 -0.2573  0.3618
  244loPI    C1 3889   0.488  10.639  11.027 -0.2066  0.3076 -0.0696
  244loPI    C2 3890   0.820  10.860  11.048 -0.0728  0.0998  0.0370
  244loPI    C3 3891   0.717  10.625  11.355 -0.0671 -0.1908 -0.1794
  244loPI   PO4 3892   0.495  10.583  10.681 -0.2720  0.3928 -0.0257
  244loPI   GL1 3893   0.767  10.364  10.433  0.2031 -0.0121  0.1861
  244loPI   GL2 3894   0.784  10.115  10.224  0.0491  0.3011 -0.1718
  244loPI   C1A 3895   0.613  10.580  10.049  0.3012  0.2247 -0.1874
  244loPI   C2A 3896   0.612  10.612   9.630  0.1673 -0.3541  0.0125
  244loPI   C3A 3897   0.588  10.550   9.271 -0.0323  0.0059  0.2742
  244loPI   C4A 3898   0.487  10.599   8.917  0.1649  0.2199 -0.0223
  244loPI   C5A 3899   0.348  10.646   8.476  0.2001  0.2057 -0.2137
  244loPI   C6A 3900   0.147  10.487   8.169  0.2708  0.1148  0.3935
  244loPI   C1B 3901   0.797  10.171   9.778 -0.0659  0.0131  0.2213
  244loPI   C2B 3902   0.753  10.082   9.423 -0.2257  0.1225  0.0299
  244loPI   C3B 3903   0.716  10.125   8.946  0.0210 -0.3209  0.0370
  244loPI   C4B 3904   0.577  10.220   8.559 -0.0517 -0.0986 -0.2358
  245loPI    C1 3905  14.570   4.502  11.089 -0.0442  0.0116 -0.0130
  245loPI    C2 3906  14.760   4.846  11.163 -0.1529  0.0998 -0.1381
  245loPI    C3 3907  14.881   4.508  11.340 -0.0737  0.2100  0.0205
  245loPI   PO4 3908  14.524   4.490  10.810 -0.0401 -0.0487 -0.1044
  245loPI   GL1 3909  14.505   4.554  10.437  0.0661  0.2165  0.3566
  245loPI   GL2 3910  14.395   4.242  10.271 -0.0371 -0.2479  0.0870
  245loPI   C1A 3911  14.823   4.761  10.143  0.2974  0.0137 -0.1294
  245loPI   C2A 3912  14.854   4.812   9.734  0.1532  0.1231 -0.2405
  245loPI   C3A 3913  14.935   4.776   9.314 -0.1679 -0.0885 -0.1096
  245loPI   C4A 3914  14.947   4.892   8.848  0.1955  0.1447  0.3033
  245loPI   C5A 3915  15.070   4.867   8.365  0.0655 -0.0035  0.1194
  245loPI   C6A 3916  15.424   5.005   8.136  0.2780  0.1005 -0.0284
  245loPI   C1B 3917  14.570   4.352   9.939  0.1322 -0.1859  0.0200
  245loPI   C2B 3918  14.588   4.418   9.554  0.0640  0.0983 -0.0735
  245loPI   C3B 3919  14.638   4.410   9.107 -0.1863  0.0251  0.1891
  245loPI   C4B 3920  14.763   4.410   8.715  0.2317 -0.0339  0.3117
  246loPI    C1 3921   9.102   8.035  10.186 -0.0204  0.0203 -0.2913
  246loPI    C2 3922   8.849   8.248   9.961 -0.1385  0.3186  0.1106
  246loPI    C3 3923   8.709   8.026  10.262  0.0476  0.1912  0.1050
  246loPI   PO4 3924   9.298   8.274  10.184 -0.0354 -0.1218  0.0776
  246loPI   GL1 3925   9.326   8.465   9.860 -0.1864  0.1817 -0.1179
  246loPI   GL2 3926   9.131   8.556   9.705  0.2737  0.1545  0.2596
  246loPI   C1A 3927   9.647   8.689   9.652  0.1452  0.1128 -0.1393
  246loPI   C2A 3928   9.793   8.677   9.294  0.0486 -0.2578 -0.0038
  246loPI   C3A 3929   9.889   8.543   8.941  0.2725 -0.0781  0.1488
  246loPI   C4A 3930   9.722   8.522   8.505 -0.2619  0.0796  0.2429
  246loPI   C5A 3931   9.531   8.674   8.139  0.0137 -0.1720 -0.0126
  246loPI   C6A 3932   9.333   8.682   7.772  0.1483 -0.2574  0.2194
  246loPI   C1B 3933   9.211   8.716   9.262 -0.1841 -0.1671 -0.1661
  246loPI   C2B 3934   9.213   8.663   8.833  0.0964  0.3300  0.2681
  246loPI   C3B 3935   9.169   8.579   8.503  0.0577  0.0580  0.0612
  246loPI   C4B 3936   9.001   8.551   8.063 -0.2214  0.2138  0.0762
  247loPI    C1 3937   9.625   5.109  10.007  0.0380 -0.2855  0.0279
  247loPI    C2 3938   9.494   5.288  10.340 -0.0075 -0.1146 -0.0810
  247loPI    C3 3939   9.573   4.896  10.342  0.0144 -0.1101  0.1368
  247loPI   PO4 3940   9.451   5.350   9.825 -0.1081  0.0711  0.1023
  247loPI   GL1 3941   9.449   5.452   9.397 -0.2785  0.0058  0.3897
  247loPI   GL2 3942   9.196   5.473   9.252  0.1011  0.0812  0.2410
  247loPI   C1A 3943   9.528   5.467   8.918  0.0258  0.2719 -0.1762
  247loPI   C2A 3944   9.656   5.329   8.496  0.0084 -0.3499  0.0928
  247loPI   C3A 3945   9.792   5.076   8.061  0.0208 -0.2211 -0.0129
  247loPI   C4A 3946   9.410   4.945   7.704  0.1512 -0.4092 -0.0130
  247loPI   C5A 3947   8.981   4.996   7.704  0.1217 -0.1748  0.0820
  247loPI   C6A 3948   8.850   5.248   7.378 -0.3584 -0.1480 -0.1866
  247loPI   C1B 3949   9.003   5.359   8.852  0.3182 -0.4734  0.0407
  247loPI   C2B 3950   9.112   5.296   8.363  0.0428  0.1193  0.2214
  247loPI   C3B 3951   9.369   5.400   8.004  0.0397  0.0892  0.0939
  247loPI   C4B 3952   9.786   5.522   7.812 -0.0583 -0.0719 -0.0540
  248loPI    C1 3953   3.181   5.806  10.843  0.0262 -0.2285  0.2269
  248loPI    C2 3954   3.538   5.984  10.823  0.0457 -0.2954 -0.0644
  248loPI    C3 3955   3.413   5.826  11.168  0.1135  0.1024  0.1484
  248loPI   PO4 3956   3.014   6.048  10.669  0.2994  0.1604  0.0391
  248loPI   GL1 3957   2.985   6.263  10.186  0.1372  0.1312 -0.2040
  248loPI   GL2 3958   2.984   5.949  10.134 -0.0940  0.2917 -0.0153
  248loPI   C1A 3959   2.885   6.437   9.914  0.1843  0.0697 -0.3757
  248loPI   C2A 3960   2.809   6.423   9.454  0.3064  0.0426 -0.3059
  248loPI   C3A 3961   2.875   6.378   9.040 -0.1455 -0.3251 -0.1034
  248loPI   C4A 3962   2.822   6.477   8.592 -0.3825  0.0030  0.2550
  248loPI   C5A 3963   2.798   6.587   8.126  0.1495  0.1976 -0.1115
  248loPI   C6A 3964   2.838   6.700   7.611  0.3035  0.0776 -0.0012
  248loPI   C1B 3965   3.124   5.993   9.791  0.2275  0.2480 -0.0442
  248loPI   C2B 3966   3.117   5.889   9.459 -0.1600 -0.0956  0.1594
  248loPI   C3B 3967   3.165   6.006   9.106  0.0011  0.0312  0.0481
  248loPI   C4B 3968   3.124   5.949   8.656  0.1978 -0.1470  0.1617
  249loPI    C1 3969  14.144   7.732  10.851  0.0616 -0.3881 -0.1801
  249loPI    C2 3970  14.523   7.857  10.852 -0.1519  0.3024 -0.0703
  249loPI    C3 3971  14.374   7.669  11.172  0.0453  0.1846 -0.0456
  249loPI   PO4 3972  13.997   7.962  10.746 -0.0351 -0.1553 -0.1273
  249loPI   GL1 3973  14.112   7.800  10.398  0.3395 -0.2046  0.3546
  249loPI   GL2 3974  14.340   7.989  10.364 -0.1337 -0.0612  0.0689
  249loPI   C1A 3975  13.893   7.584  10.099 -0.0296 -0.1477 -0.1879
  249loPI   C2A 3976  14.026   7.538   9.714 -0.1463 -0.2448  0.0139
  249loPI   C3A 3977  13.957   7.522   9.294  0.2408  0.0736 -0.0693
  249loPI   C4A 3978  14.170   7.588   8.963 -0.1344  0.0468 -0.0505
  249loPI   C5A 3979  14.131   7.500   8.585 -0.0306 -0.2075 -0.1978
  249loPI   C6A 3980  14.123   7.781   8.216 -0.0973  0.0348 -0.1121
  249loPI   C1B 3981  14.159   7.966   9.942 -0.3525 -0.0572  0.0049
  249loPI   C2B 3982  14.201   7.957   9.483  0.0847 -0.0532  0.1294
  249loPI   C3B 3983  14.300   8.041   9.000 -0.0090 -0.0361 -0.0937
  249loPI   C4B 3984  14.411   7.915   8.562 -0.1756  0.0758  0.0842
  250loPI    C1 3985  12.238  15.743  10.295 -0.0083  0.1033  0.0853
  250loPI    C2 3986  12.119  15.558  10.630 -0.1723  0.0843  0.0176
  250loPI    C3 3987  11.887  15.838  10.462 -0.1631 -0.0162 -0.1656
  250loPI   PO4 3988  12.382  15.437  10.203 -0.1105  0.1682 -0.1055
  250loPI   GL1 3989  12.578  15.098   9.925  0.1429  0.0129  0.2271
  250loPI   GL2 3990  12.911  14.850   9.951  0.0006 -0.1121 -0.3056
  250loPI   C1A 3991  12.447  14.989   9.486  0.3020  0.1224 -0.1610
  250loPI   C2A 3992  12.392  15.087   9.031  0.0613  0.0720  0.0115
  250loPI   C3A 3993  12.452  15.132   8.674 -0.0290  0.0100  0.0371
  250loPI   C4A 3994  12.776  15.271   8.331 -0.0048 -0.1400 -0.0993
  250loPI   C5A 3995  12.745  15.272   7.969  0.2562  0.1722 -0.1622
  250loPI   C6A 3996  12.790  15.582   7.608  0.2108  0.2283  0.1915
  250loPI   C1B 3997  12.936  15.056   9.536  0.0003  0.2667  0.1885
  250loPI   C2B 3998  12.907  15.013   9.064 -0.0265  0.0927 -0.0795
  250loPI   C3B 3999  13.043  14.960   8.603 -0.0907 -0.0357  0.0931
  250loPI   C4B 4000  12.849  14.843   8.185  0.0458  0.1066  0.1598
  251loPI    C1 4001   6.565  11.708  10.066 -0.0124 -0.0895 -0.0208
  251loPI    C2 4002   6.198  11.856  10.121  0.0161 -0.0463  0.0553
  251loPI    C3 4003   6.433  11.782  10.436  0.2036  0.2605 -0.0086
  251loPI   PO4 4004   6.595  11.822   9.773 -0.1991 -0.2716  0.1613
  251loPI   GL1 4005   6.403  11.764   9.366 -0.3956 -0.3199  0.1893
  251loPI   GL2 4006   6.602  12.036   9.321 -0.3006 -0.2537 -0.1096
  251loPI   C1A 4007   6.452  11.516   9.068  0.1767  0.2895  0.0984
  251loPI   C2A 4008   6.392  11.522   8.673  0.1759 -0.2818 -0.0602
  251loPI   C3A 4009   6.517  11.541   8.225  0.0268  0.1829 -0.1288
  251loPI   C4A 4010   6.737  11.278   7.892  0.0011 -0.0894  0.1789
  251loPI   C5A 4011   7.055  11.238   7.600 -0.3525 -0.2604 -0.1321
  251loPI   C6A 4012   7.364  11.452   7.378  0.0320  0.3641  0.0835
  251loPI   C1B 4013   6.634  11.960   8.980 -0.2581 -0.0529  0.1893
  251loPI   C2B 4014   6.650  12.037   8.566  0.0873 -0.2139  0.1004
  251loPI   C3B 4015   6.746  11.996   8.129 -0.2881  0.0830  0.2289
  251loPI   C4B 4016   6.460  11.869   7.810  0.1240  0.0279 -0.3037
  252loPI    C1 4017   3.827  17.634  10.637 -0.1025 -0.0300  0.1194
  252loPI    C2 4018   3.770  17.250  10.734  0.0291 -0.0142  0.2639
  252loPI    C3 4019   3.657  17.539  10.986 -0.0502  0.0420  0.1649
  252loPI   PO4 4020   3.912  17.525  10.319 -0.3556 -0.3721 -0.0017
  252loPI   GL1 4021   3.736  17.481   9.933 -0.2647 -0.1671 -0.1490
  252loPI   GL2 4022   3.770  17.153  10.014 -0.3864 -0.0250 -0.2614
  252loPI   C1A 4023   3.608  17.569   9.579  0.4594  0.1973  0.3324
  252loPI   C2A 4024   3.511  17.502   9.163 -0.1110 -0.0068  0.1033
  252loPI   C3A 4025   3.555  17.478   8.731 -0.4166  0.2128 -0.3261
  252loPI   C4A 4026   3.446  17.463   8.281 -0.2027  0.2389 -0.4461
  252loPI   C5A 4027   3.543  17.565   7.933  0.2354  0.3099  0.2054
  252loPI   C6A 4028   3.628  18.049   7.707 -0.3221 -0.0249 -0.5670
  252loPI   C1B 4029   3.797  17.065   9.540  0.3359  0.0634  0.1968
  252loPI   C2B 4030   3.788  17.020   9.040 -0.1581  0.0640 -0.2736
  252loPI   C3B 4031   3.882  17.033   8.639 -0.1504  0.2694  0.1134
  252loPI   C4B 4032   3.784  17.059   8.177  0.1141 -0.2598  0.1242
  253loPI    C1 4033  15.259   4.797  11.355 -0.0677 -0.1160  0.0553
  253loPI    C2 4034  15.626   4.719  11.495  0.0191 -0.2024 -0.2135
  253loPI    C3 4035  15.304   4.578  11.687  0.1184 -0.0086  0.1026
  253loPI   PO4 4036  15.275   4.688  11.080 -0.3125 -0.0448 -0.0049
  253loPI   GL1 4037  15.368   4.312  10.797  0.2600 -0.1524 -0.0462
  253loPI   GL2 4038  15.605   4.331  10.717 -0.3976 -0.1019 -0.0713
  253loPI   C1A 4039  15.121   4.381  10.377 -0.0175  0.0174  0.0819
  253loPI   C2A 4040  15.112   4.359  10.025  0.1126 -0.2884 -0.0894
  253loPI   C3A 4041  15.126   4.407   9.631  0.1817  0.0338  0.1624
  253loPI   C4A 4042  15.166   4.310   9.294  0.2265  0.2147 -0.4483
  253loPI   C5A 4043  15.212   4.361   8.968  0.0996 -0.1732 -0.0600
  253loPI   C6A 4044  15.362   4.421   8.456  0.0128  0.1596  0.0556
  253loPI   C1B 4045  15.606   4.376  10.284 -0.0909 -0.0011 -0.0765
  253loPI   C2B 4046  15.637   4.351   9.915  0.0682  0.0118  0.0541
  253loPI   C3B 4047  15.620   4.365   9.446  0.1213  0.1311  0.0039
  253loPI   C4B 4048  15.767   4.422   9.013 -0.2019 -0.0463  0.4846
  254loPI    C1 4049  17.691   2.754  10.990  0.0005 -0.0728  0.2731
  254loPI    C2 4050  17.784   2.780  11.378 -0.1780  0.0475  0.3088
  254loPI    C3 4051  17.495   3.011  11.225  0.2060  0.3401  0.0050
  254loPI   PO4 4052  17.910   2.757  10.850  0.0623 -0.0470  0.2891
  254loPI   GL1 4053  18.029   2.631  10.523 -0.2239  0.1909  0.2543
  254loPI   GL2 4054  17.960   2.550  10.188 -0.0094  0.1266  0.1817
  254loPI   C1A 4055  17.967   3.021  10.271  0.2361  0.1420  0.1760
  254loPI   C2A 4056  17.817   3.311  10.032 -0.0155  0.2789 -0.0915
  254loPI   C3A 4057  17.706   3.339   9.583  0.3743  0.0913 -0.0705
  254loPI   C4A 4058  17.643   3.395   9.147  0.1153  0.2439 -0.0569
  254loPI   C5A 4059  17.678   3.344   8.725 -0.0782 -0.1864 -0.2854
  254loPI   C6A 4060  17.486   3.252   8.298  0.2307 -0.1697  0.0404
  254loPI   C1B 4061  17.963   2.830   9.722 -0.1474 -0.0949  0.0849
  254loPI   C2B 4062  17.860   2.937   9.303 -0.3986 -0.0171  0.1455
  254loPI   C3B 4063  17.843   2.905   8.820  0.1827 -0.0955 -0.0498
  254loPI   C4B 4064  17.951   2.956   8.437 -0.1892 -0.3134  0.0167
  255loPI    C1 4065   1.348  11.129  10.751 -0.1877 -0.3020  0.1297
  255loPI    C2 4066   1.316  11.094  11.149  0.0430 -0.1493  0.1630
  255loPI    C3 4067   1.589  11.340  10.990  0.0166 -0.2813 -0.0919
  255loPI   PO4 4068   1.048  11.228  10.705 -0.0993 -0.0093  0.3331
  255loPI   GL1 4069   0.928  11.454  10.362  0.0939 -0.2149 -0.3638
  255loPI   GL2 4070   0.804  11.119  10.250 -0.2122 -0.0629 -0.1430
  255loPI   C1A 4071   1.036  11.490   9.903 -0.2428 -0.1123  0.1707
  255loPI   C2A 4072   1.062  11.499   9.467  0.2039  0.0910 -0.1063
  255loPI   C3A 4073   1.023  11.529   9.128  0.0623  0.1195  0.0202
  255loPI   C4A 4074   1.022  11.509   8.654 -0.2029  0.3353 -0.4748
  255loPI   C5A 4075   0.858  11.501   8.265 -0.0396 -0.0441 -0.0618
  255loPI   C6A 4076   0.787  11.807   7.986 -0.0737 -0.0875 -0.0351
  255loPI   C1B 4077   0.787  11.091   9.828  0.0304  0.3535 -0.0721
  255loPI   C2B 4078   0.820  11.023   9.428 -0.0784 -0.0541  0.1381
  255loPI   C3B 4079   0.724  11.058   8.999  0.0090  0.0962  0.0102
  255loPI   C4B 4080   0.628  11.041   8.486  0.0738 -0.1166  0.0856
  256loPI    C1 4081   0.761   5.563  10.668 -0.1837  0.0682  0.1968
  256loPI    C2 4082   1.074   5.512  10.913  0.1353  0.1780 -0.1782
  256loPI    C3 4083   0.834   5.829  10.958  0.0860  0.1038  0.0988
  256loPI   PO4 4084   0.775   5.544  10.464  0.1049 -0.0731 -0.1638
  256loPI   GL1 4085   0.706   5.507  10.055 -0.0436  0.0684  0.4728
  256loPI   GL2 4086   0.645   5.843  10.113  0.0839  0.1253 -0.1473
  256loPI   C1A 4087   0.750   5.559   9.647  0.0301 -0.1583 -0.1135
  256loPI   C2A 4088   0.596   5.490   9.207 -0.4077 -0.0190  0.1005
  256loPI   C3A 4089   0.528   5.452   8.752 -0.0975  0.3081 -0.1666
  256loPI   C4A 4090   0.596   5.711   8.383 -0.2723 -0.1485  0.0928
  256loPI   C5A 4091   0.838   5.701   7.939  0.2254 -0.1655  0.0592
  256loPI   C6A 4092   1.012   6.022   7.617 -0.3334  0.0976 -0.0935
  256loPI   C1B 4093   0.451   5.946   9.566  0.2252 -0.0581 -0.2722
  256loPI   C2B 4094   0.408   5.982   9.091 -0.1208  0.2712  0.0263
  256loPI   C3B 4095   0.353   6.018   8.783 -0.2111  0.0624  0.0116
  256loPI   C4B 4096   0.326   6.169   8.477  0.2983 -0.0196  0.0503
  257loPI    C1 4097   2.529  12.588  10.645  0.1194 -0.0715 -0.2562
  257loPI    C2 4098   2.821  12.319  10.590  0.1252 -0.1145 -0.0270
  257loPI    C3 4099   2.909  12.687  10.721  0.1006 -0.0495 -0.1902
  257loPI   PO4 4100   2.291  12.534  10.391  0.1297 -0.0876 -0.1032
  257loPI   GL1 4101   2.118  12.622   9.970  0.3408  0.1093 -0.0117
  257loPI   GL2 4102   1.970  12.880   9.787  0.0607  0.1175  0.0010
  257loPI   C1A 4103   2.204  12.351   9.595  0.2934 -0.0125  0.1020
  257loPI   C2A 4104   2.120  12.362   9.120 -0.2599  0.3577  0.1693
  257loPI   C3A 4105   2.167  12.378   8.640 -0.5119 -0.1234  0.3106
  257loPI   C4A 4106   2.119  12.228   8.170  0.1576  0.0593  0.0006
  257loPI   C5A 4107   2.107  12.055   7.733 -0.2339  0.3302 -0.0118
  257loPI   C6A 4108   2.050  11.816   7.415 -0.0946  0.3507 -0.0676
  257loPI   C1B 4109   2.081  12.889   9.350 -0.3376  0.1158  0.3272
  257loPI   C2B 4110   1.898  12.910   8.990 -0.0659 -0.1641  0.1122
  257loPI   C3B 4111   1.841  12.709   8.658 -0.2668 -0.1936 -0.2871
  257loPI   C4B 4112   1.935  12.747   8.143 -0.0621 -0.0264 -0.4077
  258loPI    C1 4113  14.997  13.440  10.213  0.2704 -0.2857  0.0746
  258loPI    C2 4114  15.174  13.492  10.567  0.0287 -0.0769  0.1681
  258loPI    C3 4115  14.932  13.180  10.509 -0.0846 -0.0051  0.2509
  258loPI   PO4 4116  15.201  13.446  10.081  0.2844  0.0461 -0.3297
  258loPI   GL1 4117  15.515  13.206   9.957 -0.1027 -0.1428 -0.2393
  258loPI   GL2 4118  15.486  12.930   9.989 -0.1905  0.0103  0.0095
  258loPI   C1A 4119  15.776  13.342   9.621  0.1478 -0.0661  0.0789
  258loPI   C2A 4120  15.932  13.455   9.243  0.1108  0.0734 -0.0083
  258loPI   C3A 4121  16.002  13.438   8.815  0.0694  0.1056  0.1457
  258loPI   C4A 4122  15.922  13.422   8.339  0.1768 -0.0100  0.2053
  258loPI   C5A 4123  15.994  13.494   7.923 -0.2238  0.0959  0.3273
  258loPI   C6A 4124  16.121  13.692   7.496 -0.1608  0.1507 -0.1722
  258loPI   C1B 4125  15.531  12.950   9.523  0.2718 -0.0984  0.0964
  258loPI   C2B 4126  15.674  12.966   9.177  0.1016 -0.0001  0.1899
  258loPI   C3B 4127  15.686  12.991   8.728  0.3035 -0.1566  0.2588
  258loPI   C4B 4128  15.718  12.972   8.310  0.2315  0.1807  0.2081
  259loPI    C1 4129  14.810   9.831  10.904 -0.0141  0.0027 -0.2474
  259loPI    C2 4130  14.730   9.554  11.181  0.1419  0.0662 -0.1377
  259loPI    C3 4131  14.581   9.923  11.218  0.3311  0.1329 -0.0286
  259loPI   PO4 4132  14.741   9.717  10.679 -0.1163 -0.1691  0.1850
  259loPI   GL1 4133  15.022   9.712  10.330  0.0628  0.1878  0.0996
  259loPI   GL2 4134  15.180   9.964  10.314  0.2815 -0.0512  0.2226
  259loPI   C1A 4135  14.993   9.425   9.938 -0.0379  0.2788 -0.0952
  259loPI   C2A 4136  15.144   9.460   9.548  0.3048  0.1190 -0.2025
  259loPI   C3A 4137  15.101   9.382   9.116 -0.1247 -0.2604  0.0164
  259loPI   C4A 4138  15.145   9.288   8.704  0.1656 -0.1282  0.2229
  259loPI   C5A 4139  15.456   9.155   8.377 -0.1939 -0.1452 -0.0955
  259loPI   C6A 4140  15.758   9.154   8.046 -0.1223  0.0023 -0.0027
  259loPI   C1B 4141  15.270   9.842   9.894  0.0775  0.1595 -0.1835
  259loPI   C2B 4142  15.314   9.902   9.436 -0.2261 -0.0049 -0.0325
  259loPI   C3B 4143  15.347   9.773   8.980  0.1860  0.2143  0.3759
  259loPI   C4B 4144  15.412   9.703   8.553 -0.1432  0.5867  0.0033
  260loPI    C1 4145   3.147   4.689  10.464 -0.0576 -0.0447 -0.0064
  260loPI    C2 4146   3.391   4.985  10.579 -0.0545 -0.0776  0.0727
  260loPI    C3 4147   3.313   4.681  10.828  0.1812 -0.2985 -0.1178
  260loPI   PO4 4148   3.189   4.528  10.324 -0.2013  0.0617  0.0957
  260loPI   GL1 4149   3.266   4.437   9.919  0.1468 -0.1005  0.1079
  260loPI   GL2 4150   3.540   4.658  10.009  0.1302 -0.0216  0.2556
  260loPI   C1A 4151   3.242   4.588   9.460 -0.0986 -0.2130 -0.1609
  260loPI   C2A 4152   3.158   4.631   8.944  0.1583  0.2269  0.1985
  260loPI   C3A 4153   3.145   4.547   8.467  0.3821 -0.0670 -0.0958
  260loPI   C4A 4154   3.074   4.513   8.038 -0.2107 -0.1466  0.2285
  260loPI   C5A 4155   2.925   4.263   7.642  0.3214 -0.1426  0.0036
  260loPI   C6A 4156   2.692   4.221   7.264  0.1536  0.1476  0.0114
  260loPI   C1B 4157   3.702   4.741   9.583  0.0314 -0.1363  0.1269
  260loPI   C2B 4158   3.656   4.859   9.137  0.1238 -0.1178 -0.0387
  260loPI   C3B 4159   3.604   4.857   8.639 -0.0613  0.3335  0.0597
  260loPI   C4B 4160   3.557   4.713   8.282 -0.1195 -0.0747  0.3282
  261loPI    C1 4161   5.063   2.096  10.167 -0.0376 -0.1518 -0.1763
  261loPI    C2 4162   5.281   1.933  10.460 -0.2727 -0.1177  0.0208
  261loPI    C3 4163   4.893   1.842  10.425 -0.2624 -0.0689 -0.2400
  261loPI   PO4 4164   5.246   2.143   9.920  0.2084 -0.3154  0.1539
  261loPI   GL1 4165   5.334   1.998   9.591  0.2323  0.4603 -0.4998
  261loPI   GL2 4166   5.367   1.733   9.543  0.0113 -0.2695  0.1551
  261loPI   C1A 4167   5.199   2.075   9.233  0.1249  0.0054  0.1592
  261loPI   C2A 4168   5.085   1.852   8.851  0.0979  0.0383 -0.0705
  261loPI   C3A 4169   4.761   1.778   8.605 -0.0632 -0.4271  0.0599
  261loPI   C4A 4170   4.625   1.645   8.302 -0.2135 -0.0719  0.0300
  261loPI   C5A 4171   4.739   1.535   7.900  0.0461 -0.4192  0.2889
  261loPI   C6A 4172   4.653   1.347   7.570 -0.2446 -0.1517 -0.1366
  261loPI   C1B 4173   5.417   1.571   9.115  0.2415 -0.0720  0.2235
  261loPI   C2B 4174   5.418   1.468   8.725 -0.6038  0.1325 -0.0192
  261loPI   C3B 4175   5.409   1.492   8.256 -0.1503 -0.0040  0.2708
  261loPI   C4B 4176   5.243   1.480   7.776  0.1085 -0.1122 -0.0800
  262loPI    C1 4177   6.734  16.386  10.574  0.1204 -0.2940 -0.1147
  262loPI    C2 4178   6.786  16.609  10.902  0.1551 -0.3754 -0.0648
  262loPI    C3 4179   6.426  16.456  10.820  0.0819 -0.1318 -0.2076
  262loPI   PO4 4180   6.773  16.541  10.391  0.0407 -0.3405 -0.0488
  262loPI   GL1 4181   6.671  16.636  10.068  0.0088 -0.4960 -0.0296
  262loPI   GL2 4182   6.915  16.657   9.924  0.4055 -0.1793 -0.1586
  262loPI   C1A 4183   6.694  16.516   9.510  0.0674 -0.0627  0.1709
  262loPI   C2A 4184   6.784  16.531   9.054  0.0127 -0.0383 -0.0677
  262loPI   C3A 4185   6.767  16.648   8.592 -0.0865 -0.3110  0.1698
  262loPI   C4A 4186   6.781  16.666   8.206  0.1590  0.0577 -0.0761
  262loPI   C5A 4187   6.543  16.864   7.865 -0.1350 -0.1133  0.1148
  262loPI   C6A 4188   6.099  17.063   7.699 -0.0008  0.1029  0.1349
  262loPI   C1B 4189   6.942  17.020   9.479  0.1033 -0.2931  0.1653
  262loPI   C2B 4190   6.916  17.048   9.084  0.1588 -0.3480  0.0302
  262loPI   C3B 4191   6.687  17.080   8.818  0.0744  0.0991  0.0102
  262loPI   C4B 4192   6.619  17.090   8.383 -0.0800 -0.1236  0.1930
  263loPI    C1 4193  18.180   3.466  10.856 -0.1923 -0.0844 -0.1742
  263loPI    C2 4194  17.829   3.290  10.780 -0.2378 -0.1413  0.1525
  263loPI    C3 4195  18.008   3.235  11.134  0.1693 -0.2250 -0.0600
  263loPI   PO4 4196  18.306   3.563  10.628  0.2429 -0.2291 -0.0011
  263loPI   GL1 4197  18.337   3.413  10.186  0.1912 -0.1897  0.0416
  263loPI   GL2 4198  18.595   3.341  10.288 -0.0940 -0.2446  0.0319
  263loPI   C1A 4199  18.321   3.285   9.814  0.1302  0.1666 -0.0639
  263loPI   C2A 4200  18.155   3.334   9.401  0.1359  0.0372 -0.2350
  263loPI   C3A 4201  18.217   3.395   8.982 -0.2460  0.0139 -0.2554
  263loPI   C4A 4202  18.238   3.338   8.570 -0.1450  0.0785  0.3749
  263loPI   C5A 4203  18.015   3.489   8.275 -0.3040 -0.2943  0.0086
  263loPI   C6A 4204  17.960   3.891   8.127  0.0169 -0.2157 -0.0758
  263loPI   C1B 4205  18.808   3.296   9.935 -0.2630 -0.0694 -0.1504
  263loPI   C2B 4206  18.915   3.281   9.445  0.2045  0.0343 -0.1175
  263loPI   C3B 4207  18.824   3.268   9.037 -0.2307 -0.2149  0.1915
  263loPI   C4B 4208  18.699   3.324   8.524 -0.2149  0.1101 -0.4030
  264loPI    C1 4209  14.148  11.204  10.380 -0.0520 -0.0905 -0.0651
  264loPI    C2 4210  14.058  11.555  10.210  0.1098  0.0166  0.0662
  264loPI    C3 4211  14.258  11.546  10.556  0.1431 -0.2070  0.0431
  264loPI   PO4 4212  14.259  10.923  10.146  0.0931 -0.0582 -0.0708
  264loPI   GL1 4213  14.327  10.761   9.795 -0.1699  0.0691 -0.1606
  264loPI   GL2 4214  14.312  10.496   9.923 -0.2318  0.0150  0.0537
  264loPI   C1A 4215  14.343  10.709   9.321  0.2679 -0.0294 -0.1046
  264loPI   C2A 4216  14.436  10.697   8.895  0.2594  0.0837  0.0679
  264loPI   C3A 4217  14.530  10.649   8.442  0.0829  0.1224  0.1408
  264loPI   C4A 4218  14.496  10.610   8.018  0.2600  0.3516 -0.0752
  264loPI   C5A 4219  14.523  10.781   7.638 -0.1410  0.1711 -0.4396
  264loPI   C6A 4220  14.601  11.198   7.543  0.0597  0.2086 -0.0370
  264loPI   C1B 4221  14.574  10.238   9.645 -0.2137  0.0426 -0.1222
  264loPI   C2B 4222  14.611  10.304   9.221  0.0794  0.0077  0.0779
  264loPI   C3B 4223  14.676  10.228   8.689  0.1175  0.0391 -0.1171
  264loPI   C4B 4224  14.638  10.134   8.192  0.1034  0.2734  0.2529
  265loPI    C1 4225  11.352  13.026  10.113 -0.1108 -0.0067 -0.0692
  265loPI    C2 4226  11.012  12.840  10.211  0.0571 -0.2089  0.1415
  265loPI    C3 4227  11.235  13.011  10.496 -0.0244  0.1998 -0.0333
  265loPI   PO4 4228  11.370  13.165   9.916  0.0186  0.4244  0.3077
  265loPI   GL1 4229  11.443  13.113   9.480 -0.0906  0.2694 -0.1342
  265loPI   GL2 4230  11.308  13.426   9.508  0.1742  0.3832 -0.0576
  265loPI   C1A 4231  11.372  13.008   9.183 -0.0530  0.1731 -0.4139
  265loPI   C2A 4232  11.492  13.015   8.810 -0.0939 -0.2268  0.2948
  265loPI   C3A 4233  11.782  12.715   8.509  0.0814  0.1671 -0.0740
  265loPI   C4A 4234  12.064  12.702   8.135 -0.2086  0.2348  0.1334
  265loPI   C5A 4235  12.116  12.612   7.717 -0.0558 -0.1347  0.0140
  265loPI   C6A 4236  12.020  12.562   7.279  0.1827  0.0769 -0.0404
  265loPI   C1B 4237  11.424  13.514   9.092  0.0491 -0.0510 -0.1123
  265loPI   C2B 4238  11.501  13.530   8.612 -0.1314 -0.2849 -0.0638
  265loPI   C3B 4239  11.356  13.199   8.296  0.0052  0.1732 -0.2538
  265loPI   C4B 4240  11.362  13.186   7.828  0.2665  0.0710  0.3659
  266loPI    C1 4241   1.446  14.201  10.422  0.0660  0.0503 -0.1585
  266loPI    C2 4242   1.581  14.148  10.795 -0.0954 -0.1416 -0.1258
  266loPI    C3 4243   1.288  13.916  10.653 -0.2236  0.1095 -0.2798
  266loPI   PO4 4244   1.398  14.321  10.334  0.1047 -0.0794  0.1302
  266loPI   GL1 4245   1.468  14.716  10.143 -0.0508  0.1886  0.1164
  266loPI   GL2 4246   1.151  14.539   9.931 -0.1586 -0.3120 -0.2214
  266loPI   C1A 4247   1.488  14.861   9.626 -0.1986 -0.0175  0.3594
  266loPI   C2A 4248   1.343  14.843   9.136  0.2543  0.0721 -0.0841
  266loPI   C3A 4249   1.464  14.788   8.728 -0.0318  0.0814  0.1033
  266loPI   C4A 4250   1.360  14.816   8.270 -0.0268  0.2672 -0.2325
  266loPI   C5A 4251   1.682  14.731   7.963  0.2692 -0.0498  0.1387
  266loPI   C6A 4252   2.062  14.611   7.866  0.1936  0.3799  0.1628
  266loPI   C1B 4253   1.151  14.479   9.528 -0.0340  0.1411 -0.1292
  266loPI   C2B 4254   1.197  14.332   9.132  0.0500  0.2656 -0.2804
  266loPI   C3B 4255   1.160  14.289   8.728  0.1465  0.1482  0.1278
  266loPI   C4B 4256   1.081  14.339   8.422 -0.2019 -0.0429  0.1381
  267loPI    C1 4257   3.498   9.052  10.567  0.3487 -0.0552  0.0860
  267loPI    C2 4258   3.168   9.204  10.735  0.1159 -0.1255 -0.2956
  267loPI    C3 4259   3.529   9.305  10.876 -0.0658 -0.1063  0.1755
  267loPI   PO4 4260   3.410   9.072  10.286  0.1108 -0.3322  0.2098
  267loPI   GL1 4261   3.103   8.884  10.011 -0.3715 -0.1470  0.1216
  267loPI   GL2 4262   3.182   8.550  10.075 -0.0581  0.0135  0.0386
  267loPI   C1A 4263   3.427   8.941   9.700 -0.0444  0.1563 -0.1192
  267loPI   C2A 4264   3.617   9.165   9.406  0.5031 -0.1098 -0.0798
  267loPI   C3A 4265   3.516   9.210   8.952  0.0389  0.1769  0.1380
  267loPI   C4A 4266   3.360   9.172   8.560 -0.1407 -0.1729  0.4324
  267loPI   C5A 4267   3.296   9.375   8.154  0.1980 -0.1727 -0.1234
  267loPI   C6A 4268   3.493   9.638   7.818 -0.2135  0.2760  0.5738
  267loPI   C1B 4269   3.195   8.550   9.618 -0.0077 -0.1624  0.3784
  267loPI   C2B 4270   3.306   8.794   9.233  0.2671  0.0122 -0.1372
  267loPI   C3B 4271   3.118   8.745   8.826  0.0571 -0.2132  0.0227
  267loPI   C4B 4272   3.007   8.689   8.334  0.0591  0.1130  0.2793
  268loPI    C1 4273  12.498   6.330  10.991  0.2086 -0.1088 -0.0287
  268loPI    C2 4274  12.358   6.520  11.314 -0.0410  0.1184 -0.2644
  268loPI    C3 4275  12.484   6.141  11.343 -0.1884  0.0911  0.0686
  268loPI   PO4 4276  12.337   6.385  10.798 -0.2518 -0.1103  0.0602
  268loPI   GL1 4277  12.339   6.353  10.398  0.2027  0.1651  0.0647
  268loPI   GL2 4278  12.061   6.287  10.240 -0.3236 -0.0806 -0.2873
  268loPI   C1A 4279  12.509   6.157   9.981  0.1631  0.1646  0.1722
  268loPI   C2A 4280  12.623   6.161   9.556 -0.3340  0.2058 -0.0140
  268loPI   C3A 4281  12.649   6.264   9.077  0.0543 -0.0633 -0.1578
  268loPI   C4A 4282  12.731   6.190   8.621  0.0512 -0.2511 -0.0138
  268loPI   C5A 4283  12.569   6.349   8.240 -0.1533  0.1354  0.0411
  268loPI   C6A 4284  12.135   6.417   8.141  0.2245 -0.1505 -0.0181
  268loPI   C1B 4285  12.036   6.301   9.813  0.2152 -0.0443 -0.0089
  268loPI   C2B 4286  12.125   6.194   9.435  0.1324 -0.0435  0.0545
  268loPI   C3B 4287  12.081   6.243   8.999  0.3678  0.1531 -0.1140
  268loPI   C4B 4288  12.196   6.320   8.613  0.0299 -0.2086  0.0113
  269loPI    C1 4289  13.028   9.154  10.945  0.0949 -0.0710 -0.0370
  269loPI    C2 4290  13.070   9.552  10.958  0.4652 -0.1081 -0.0009
  269loPI    C3 4291  12.823   9.368  11.213  0.0105  0.1294 -0.2575
  269loPI   PO4 4292  13.005   9.125  10.656 -0.3267  0.1702  0.2329
  269loPI   GL1 4293  13.139   8.976  10.340  0.1373  0.0973 -0.0366
  269loPI   GL2 4294  13.154   8.653  10.383 -0.4572 -0.1180 -0.2226
  269loPI   C1A 4295  13.233   9.044   9.936 -0.2568 -0.1156  0.1589
  269loPI   C2A 4296  13.196   8.914   9.588 -0.3826 -0.0813  0.0197
  269loPI   C3A 4297  13.232   8.871   9.103  0.2418  0.2826 -0.2233
  269loPI   C4A 4298  13.276   8.925   8.702 -0.0404 -0.0844  0.3551
  269loPI   C5A 4299  13.383   8.773   8.325 -0.3376  0.2150  0.1667
  269loPI   C6A 4300  13.273   8.437   8.034 -0.0233  0.0053  0.0397
  269loPI   C1B 4301  13.356   8.596  10.017  0.2857  0.1456  0.0283
  269loPI   C2B 4302  13.445   8.439   9.599 -0.0944 -0.0182 -0.3435
  269loPI   C3B 4303  13.522   8.483   9.112 -0.3034 -0.0243  0.3976
  269loPI   C4B 4304  13.561   8.372   8.741  0.2663 -0.0173  0.1555
  270loPI    C1 4305  10.008   5.251  10.285  0.1667  0.2089 -0.2187
  270loPI    C2 4306  10.220   5.304  10.620  0.1172 -0.2662 -0.1058
  270loPI    C3 4307   9.852   5.459  10.589  0.1330 -0.1960  0.0480
  270loPI   PO4 4308  10.099   5.269  10.091 -0.1477  0.1143 -0.0345
  270loPI   GL1 4309  10.082   5.519   9.803 -0.2990 -0.2010 -0.1241
  270loPI   GL2 4310   9.870   5.501   9.601 -0.0704  0.1037  0.1377
  270loPI   C1A 4311  10.183   5.807   9.442 -0.2274 -0.3635 -0.2822
  270loPI   C2A 4312  10.205   5.927   8.980  0.2679  0.2859  0.3040
  270loPI   C3A 4313  10.324   5.920   8.483 -0.0996 -0.4708  0.0310
  270loPI   C4A 4314  10.317   5.926   8.135  0.1117  0.2675 -0.0704
  270loPI   C5A 4315  10.222   5.873   7.715  0.2071  0.0598  0.3271
  270loPI   C6A 4316   9.817   5.893   7.465  0.0984 -0.0709 -0.1549
  270loPI   C1B 4317   9.938   5.516   9.161  0.1177  0.0812 -0.2042
  270loPI   C2B 4318  10.023   5.495   8.753 -0.0822  0.0627  0.0977
  270loPI   C3B 4319  10.048   5.526   8.230 -0.4164  0.1259 -0.0429
  270loPI   C4B 4320  10.246   5.328   7.894 -0.0745  0.3560 -0.2163
  271loPI    C1 4321  16.243  11.891  10.611 -0.2654  0.0188 -0.2486
  271loPI    C2 4322  16.305  12.277  10.525 -0.0485  0.0546  0.0519
  271loPI    C3 4323  16.461  12.118  10.858  0.1446 -0.3753 -0.2352
  271loPI   PO4 4324  16.403  11.669  10.552 -0.2009 -0.0508  0.0550
  271loPI   GL1 4325  16.422  11.426  10.260  0.0322 -0.0366 -0.2819
  271loPI   GL2 4326  16.619  11.176  10.159 -0.1477 -0.0836  0.1766
  271loPI   C1A 4327  16.348  11.607   9.841  0.0063  0.2171  0.4396
  271loPI   C2A 4328  16.425  11.641   9.472  0.2373 -0.0522 -0.0115
  271loPI   C3A 4329  16.384  11.622   9.079 -0.1832  0.2825 -0.0089
  271loPI   C4A 4330  16.461  11.591   8.746 -0.0461 -0.1167  0.1504
  271loPI   C5A 4331  16.494  11.595   8.306 -0.0064 -0.1929  0.0205
  271loPI   C6A 4332  16.670  11.276   8.064 -0.0676  0.0519  0.1209
  271loPI   C1B 4333  16.576  11.183   9.753  0.6439  0.1199  0.0025
  271loPI   C2B 4334  16.627  11.190   9.371  0.2529  0.0425 -0.1965
  271loPI   C3B 4335  16.645  11.159   8.984 -0.2876  0.3955 -0.0771
  271loPI   C4B 4336  16.659  11.135   8.583 -0.1818 -0.0141  0.2148
  272loPI    C1 4337  16.426   2.005  10.537  0.0416  0.0838 -0.1810
  272loPI    C2 4338  16.473   2.134  10.913  0.1673  0.1910 -0.2329
  272loPI    C3 4339  16.163   2.262  10.695 -0.0562 -0.0769 -0.0789
  272loPI   PO4 4340  16.670   1.947  10.526 -0.5888 -0.0784 -0.0957
  272loPI   GL1 4341  16.820   1.795  10.157  0.0759 -0.1066 -0.1107
  272loPI   GL2 4342  17.110   1.825  10.133 -0.2179  0.1759 -0.1644
  272loPI   C1A 4343  16.744   1.972   9.799  0.1529  0.3830 -0.2269
  272loPI   C2A 4344  16.812   1.986   9.397 -0.0260 -0.1525  0.0986
  272loPI   C3A 4345  16.871   2.029   8.897 -0.1589  0.2064 -0.2117
  272loPI   C4A 4346  16.781   2.024   8.427 -0.2300 -0.0334  0.3538
  272loPI   C5A 4347  16.529   1.744   8.107  0.1516  0.0431  0.1052
  272loPI   C6A 4348  16.556   1.346   7.860 -0.0783 -0.1796 -0.0471
  272loPI   C1B 4349  17.114   1.624   9.745 -0.4109  0.0464  0.1032
  272loPI   C2B 4350  17.073   1.562   9.326 -0.1121 -0.3935  0.0734
  272loPI   C3B 4351  17.037   1.589   8.846  0.2066 -0.0333 -0.3402
  272loPI   C4B 4352  16.963   1.507   8.439  0.1444 -0.1754  0.0806
  273loPI    C1 4353   6.991   4.266  10.687 -0.1126 -0.2671  0.0488
  273loPI    C2 4354   7.286   4.536  10.685 -0.0894 -0.2925  0.0330
  273loPI    C3 4355   7.065   4.483  11.014 -0.0932 -0.2552  0.0365
  273loPI   PO4 4356   6.911   4.312  10.419 -0.0661  0.1526  0.1240
  273loPI   GL1 4357   6.787   4.544  10.005 -0.0546  0.1445 -0.2413
  273loPI   GL2 4358   6.909   4.320   9.789  0.2646 -0.3794 -0.2486
  273loPI   C1A 4359   6.373   4.691   9.746 -0.4378 -0.0149 -0.0589
  273loPI   C2A 4360   6.186   4.800   9.366 -0.0965 -0.1660 -0.0030
  273loPI   C3A 4361   6.032   4.835   8.934 -0.3081 -0.3226  0.0506
  273loPI   C4A 4362   5.830   4.865   8.483 -0.3029 -0.0750  0.2603
  273loPI   C5A 4363   5.622   4.788   8.127  0.0134 -0.3380 -0.2308
  273loPI   C6A 4364   5.239   4.831   7.872 -0.3529 -0.4722 -0.0151
  273loPI   C1B 4365   6.727   4.386   9.395 -0.0147 -0.1856  0.0171
  273loPI   C2B 4366   6.866   4.568   8.984 -0.0511 -0.0230 -0.3311
  273loPI   C3B 4367   7.112   4.468   8.647  0.0428 -0.1816 -0.2239
  273loPI   C4B 4368   7.139   4.304   8.279 -0.1496 -0.0453 -0.0858
  274loPI    C1 4369  14.228  14.730  10.223  0.0246 -0.0975 -0.1221
  274loPI    C2 4370  14.493  14.464  10.362 -0.0646 -0.0790  0.0874
  274loPI    C3 4371  14.488  14.837  10.508  0.0008  0.0133 -0.1414
  274loPI   PO4 4372  14.214  14.639   9.948  0.1118 -0.1415 -0.4033
  274loPI   GL1 4373  14.335  14.814   9.672  0.1400  0.2295  0.3947
  274loPI   GL2 4374  14.198  14.998   9.510 -0.1816  0.1241 -0.2458
  274loPI   C1A 4375  14.594  14.919   9.166 -0.0320 -0.2003  0.2649
  274loPI   C2A 4376  14.543  15.008   8.730  0.2095 -0.2915  0.0332
  274loPI   C3A 4377  14.538  14.883   8.391 -0.1749 -0.1881  0.1867
  274loPI   C4A 4378  14.767  14.875   7.952  0.1823 -0.2772  0.0593
  274loPI   C5A 4379  14.885  15.237   7.803 -0.0906  0.2443  0.0821
  274loPI   C6A 4380  15.311  15.379   7.815 -0.0724  0.1595  0.1413
  274loPI   C1B 4381  13.918  14.954   9.113  0.4501 -0.1592  0.0842
  274loPI   C2B 4382  14.063  14.858   8.757 -0.1892 -0.2076 -0.2705
  274loPI   C3B 4383  14.075  15.006   8.369  0.1746  0.1455 -0.3322
  274loPI   C4B 4384  13.993  14.919   8.026  0.0456 -0.0720  0.1454
  275loPI    C1 4385   8.414   6.695  10.556 -0.1012 -0.0647 -0.0204
  275loPI    C2 4386   8.125   6.864  10.774  0.1142  0.2221  0.0482
  275loPI    C3 4387   8.234   6.486  10.846  0.0012  0.2281  0.2587
  275loPI   PO4 4388   8.319   6.790  10.280  0.0631  0.1787 -0.2289
  275loPI   GL1 4389   8.561   7.172  10.069  0.0570  0.2350  0.0989
  275loPI   GL2 4390   8.341   6.988   9.825 -0.0290 -0.0411  0.1465
  275loPI   C1A 4391   8.824   7.204   9.686  0.1778  0.0628  0.1796
  275loPI   C2A 4392   8.930   7.163   9.279  0.2667  0.0591 -0.1789
  275loPI   C3A 4393   8.950   7.318   8.920 -0.3542  0.1210 -0.1609
  275loPI   C4A 4394   8.976   7.308   8.549 -0.2205  0.1453  0.2108
  275loPI   C5A 4395   8.926   7.111   8.304  0.0629 -0.1162 -0.1183
  275loPI   C6A 4396   8.800   7.119   7.882 -0.0261  0.3841  0.1362
  275loPI   C1B 4397   8.573   6.795   9.352  0.0094 -0.0539  0.1818
  275loPI   C2B 4398   8.739   6.808   9.010 -0.2133 -0.0792  0.2442
  275loPI   C3B 4399   8.775   6.715   8.596 -0.4711 -0.1711 -0.1155
  275loPI   C4B 4400   8.508   6.849   8.244 -0.2332 -0.3403 -0.1501
  276loPI    C1 4401  11.334  17.829  10.233  0.0278 -0.0861  0.1612
  276loPI    C2 4402  10.993  17.729  10.417 -0.0856  0.1765  0.0982
  276loPI    C3 4403  11.246  17.986  10.590 -0.0036  0.1189  0.0648
  276loPI   PO4 4404  11.279  17.881   9.957 -0.1017 -0.1049 -0.3017
  276loPI   GL1 4405  11.543  17.752   9.705 -0.0208 -0.0311  0.3131
  276loPI   GL2 4406  11.634  17.391   9.567  0.1518 -0.2246 -0.0358
  276loPI   C1A 4407  11.314  17.936   9.302  0.0023  0.0744 -0.2118
  276loPI   C2A 4408  11.228  18.096   8.872  0.2106 -0.2854  0.2669
  276loPI   C3A 4409  11.339  18.078   8.615  0.0524 -0.1047 -0.0231
  276loPI   C4A 4410  11.467  18.238   8.248  0.1344  0.0644 -0.0123
  276loPI   C5A 4411  11.682  18.224   7.802 -0.0661 -0.0518 -0.2498
  276loPI   C6A 4412  11.766  17.856   7.524 -0.0346 -0.2915 -0.3594
  276loPI   C1B 4413  11.471  17.455   9.207 -0.6395 -0.3851 -0.0532
  276loPI   C2B 4414  11.488  17.591   8.839  0.0602 -0.3237 -0.0776
  276loPI   C3B 4415  11.633  17.716   8.445  0.0421 -0.1877 -0.0525
  276loPI   C4B 4416  11.739  17.640   8.012 -0.0555 -0.0508  0.0898
  277loPI    C1 4417  11.643  14.798  10.358 -0.0288  0.0002 -0.1061
  277loPI    C2 4418  11.830  14.471  10.224 -0.0972  0.0159 -0.2419
  277loPI    C3 4419  11.699  14.486  10.601 -0.1377 -0.1327 -0.2494
  277loPI   PO4 4420  11.607  14.876  10.150  0.4558  0.2616  0.0952
  277loPI   GL1 4421  11.538  15.031   9.813  0.0593 -0.2293 -0.2229
  277loPI   GL2 4422  11.846  15.167   9.721 -0.0157 -0.0259  0.2553
  277loPI   C1A 4423  11.577  14.816   9.330  0.0374 -0.2219  0.3043
  277loPI   C2A 4424  11.455  14.706   8.950 -0.0945  0.0129  0.1198
  277loPI   C3A 4425  11.559  14.723   8.432 -0.1146  0.0606  0.2309
  277loPI   C4A 4426  11.347  14.701   8.027 -0.0905  0.0736  0.3844
  277loPI   C5A 4427  11.316  14.871   7.688 -0.3230  0.1313  0.0411
  277loPI   C6A 4428  11.295  15.119   7.446 -0.1159  0.1159 -0.1485
  277loPI   C1B 4429  11.969  15.177   9.239 -0.0064 -0.2374  0.0839
  277loPI   C2B 4430  11.893  15.249   8.827 -0.0849 -0.0234  0.1396
  277loPI   C3B 4431  11.896  15.220   8.416 -0.0998  0.0643 -0.1403
  277loPI   C4B 4432  11.713  15.199   7.999 -0.0574 -0.3713 -0.2185
  278loPI    C1 4433   2.621   7.303  10.916 -0.0397 -0.1940 -0.3279
  278loPI    C2 4434   2.969   7.496  10.958 -0.0482 -0.2072 -0.1923
  278loPI    C3 4435   2.950   7.102  11.024 -0.1442 -0.1610  0.0672
  278loPI   PO4 4436   2.506   7.485  10.673  0.1209  0.4125  0.0729
  278loPI   GL1 4437   2.521   7.410  10.263  0.0450  0.1978 -0.0490
  278loPI   GL2 4438   2.264   7.599  10.236 -0.1912  0.0493  0.1702
  278loPI   C1A 4439   2.494   7.303   9.881  0.0463  0.3119 -0.2323
  278loPI   C2A 4440   2.418   7.320   9.474  0.2523  0.0030 -0.0423
  278loPI   C3A 4441   2.360   7.309   9.028  0.0057  0.1154 -0.0832
  278loPI   C4A 4442   2.209   7.424   8.652 -0.0542 -0.1026 -0.0196
  278loPI   C5A 4443   2.030   7.651   8.291  0.1891 -0.5606  0.1364
  278loPI   C6A 4444   1.970   8.215   8.157  0.0009  0.2065 -0.0941
  278loPI   C1B 4445   2.218   7.705   9.850 -0.0959  0.1350  0.0802
  278loPI   C2B 4446   2.114   7.704   9.437  0.2272  0.2368 -0.2641
  278loPI   C3B 4447   2.059   7.802   9.032  0.1983  0.0643 -0.2111
  278loPI   C4B 4448   2.004   7.936   8.676 -0.1922 -0.1984 -0.1445
  279loPI    C1 4449   5.894  12.908  10.242  0.1173 -0.1839 -0.0802
  279loPI    C2 4450   6.165  12.803  10.516 -0.0376 -0.0036  0.1459
  279loPI    C3 4451   5.876  13.063  10.610 -0.0817  0.0758 -0.1957
  279loPI   PO4 4452   5.976  12.963  10.101 -0.1537  0.2272  0.1532
  279loPI   GL1 4453   5.851  12.998   9.697  0.0508 -0.3473  0.1555
  279loPI   GL2 4454   5.630  12.836   9.618 -0.0860 -0.0445 -0.1897
  279loPI   C1A 4455   6.077  12.920   9.369  0.1437 -0.3676  0.1931
  279loPI   C2A 4456   6.010  12.811   8.974  0.0067 -0.1135 -0.4809
  279loPI   C3A 4457   5.975  12.809   8.566  0.0765  0.1250 -0.0397
  279loPI   C4A 4458   6.102  12.773   8.169  0.3442  0.4081 -0.2503
  279loPI   C5A 4459   6.180  12.877   7.723 -0.0163  0.0414  0.1733
  279loPI   C6A 4460   6.321  13.238   7.500 -0.2757  0.2249  0.1350
  279loPI   C1B 4461   5.613  12.781   9.254  0.2356  0.2237  0.0142
  279loPI   C2B 4462   5.545  12.810   8.812 -0.1078  0.0384  0.2579
  279loPI   C3B 4463   5.522  12.886   8.433 -0.2544 -0.1299  0.2581
  279loPI   C4B 4464   5.300  13.047   8.104  0.0450  0.1363  0.0371
  280loPI    C1 4465  11.396   6.476  10.737  0.0186 -0.1747 -0.0043
  280loPI    C2 4466  11.547   6.244  11.026 -0.0234 -0.0367  0.1298
  280loPI    C3 4467  11.151   6.264  10.972 -0.0099 -0.1656 -0.0256
  280loPI   PO4 4468  11.476   6.519  10.435 -0.2739  0.2959  0.0161
  280loPI   GL1 4469  11.414   6.372   9.981  0.1787  0.1229 -0.0090
  280loPI   GL2 4470  11.580   6.148   9.849 -0.0652 -0.1694  0.1060
  280loPI   C1A 4471  11.110   6.235   9.488 -0.0985  0.0566  0.0820
  280loPI   C2A 4472  10.978   6.193   9.117 -0.2146  0.0357  0.0339
  280loPI   C3A 4473  10.985   6.247   8.724 -0.0968 -0.1633 -0.0440
  280loPI   C4A 4474  11.155   6.250   8.424 -0.2714 -0.1587  0.2078
  280loPI   C5A 4475  11.059   6.606   8.102  0.2065  0.1507  0.4428
  280loPI   C6A 4476  10.975   6.658   7.638  0.1758  0.1859  0.0141
  280loPI   C1B 4477  11.603   6.126   9.408  0.1053 -0.1387 -0.0523
  280loPI   C2B 4478  11.471   6.216   8.963 -0.0654 -0.1288  0.0664
  280loPI   C3B 4479  11.625   6.309   8.536 -0.0052 -0.2268  0.0514
  280loPI   C4B 4480  11.631   6.484   8.182  0.1952 -0.1381 -0.3225
  281loPI    C1 4481   3.009  14.642  10.472 -0.0398  0.2303 -0.2240
  281loPI    C2 4482   2.699  14.811  10.659  0.0298  0.1463 -0.0307
  281loPI    C3 4483   3.066  14.965  10.700  0.0565  0.0856 -0.0410
  281loPI   PO4 4484   2.910  14.649  10.239 -0.0399 -0.0383  0.0637
  281loPI   GL1 4485   3.155  14.616   9.817  0.1791 -0.2330 -0.1009
  281loPI   GL2 4486   3.199  14.418   9.574 -0.0309 -0.0381 -0.1901
  281loPI   C1A 4487   3.016  14.846   9.408 -0.2299 -0.0573 -0.0849
  281loPI   C2A 4488   2.952  14.755   9.000 -0.4153  0.0936 -0.1361
  281loPI   C3A 4489   3.007  14.693   8.474  0.2845 -0.0839  0.0981
  281loPI   C4A 4490   2.930  14.468   8.010 -0.1041  0.2749 -0.0206
  281loPI   C5A 4491   2.646  14.724   7.781  0.2015  0.0938 -0.0437
  281loPI   C6A 4492   2.377  14.782   7.439  0.2754  0.4978 -0.0014
  281loPI   C1B 4493   3.216  14.305   9.196 -0.0514  0.0608  0.0226
  281loPI   C2B 4494   3.165  14.318   8.819 -0.1261 -0.1715  0.0752
  281loPI   C3B 4495   3.164  14.189   8.377  0.0257 -0.1684  0.0421
  281loPI   C4B 4496   3.222  14.058   8.023 -0.1580 -0.0933  0.1002
  282loPI    C1 4497  15.690   2.963  11.294 -0.3201  0.1147  0.1266
  282loPI    C2 4498  15.723   2.936  11.692  0.0066 -0.1775  0.0842
  282loPI    C3 4499  15.868   2.645  11.458 -0.1443  0.0114 -0.2526
  282loPI   PO4 4500  15.828   3.279  11.187 -0.0918 -0.2597 -0.2933
  282loPI   GL1 4501  15.751   3.373  10.734 -0.3511 -0.2756  0.0273
  282loPI   GL2 4502  15.455   3.311  10.566  0.1047 -0.0270  0.2731
  282loPI   C1A 4503  15.908   3.365  10.282 -0.0083  0.1516  0.3126
  282loPI   C2A 4504  15.994   3.261   9.809 -0.0368 -0.0648 -0.3685
  282loPI   C3A 4505  16.094   3.365   9.384 -0.0903 -0.1118  0.1488
  282loPI   C4A 4506  16.194   3.513   9.044  0.4476 -0.1295 -0.1589
  282loPI   C5A 4507  16.210   3.475   8.669 -0.1597  0.1002  0.2356
  282loPI   C6A 4508  16.382   3.660   8.301  0.1342  0.2351  0.6197
  282loPI   C1B 4509  15.471   3.452  10.149  0.0638  0.2120  0.1225
  282loPI   C2B 4510  15.496   3.455   9.715  0.1119 -0.0869 -0.0986
  282loPI   C3B 4511  15.634   3.514   9.286 -0.1551  0.2105  0.2600
  282loPI   C4B 4512  15.711   3.476   8.828  0.2009  0.0328  0.0530
  283loPI    C1 4513  14.572  16.243  10.451 -0.0163  0.0906  0.0670
  283loPI    C2 4514  14.433  15.905  10.614  0.0175  0.1556  0.2329
  283loPI    C3 4515  14.670  16.147  10.826  0.1019  0.2180  0.0697
  283loPI   PO4 4516  14.717  16.163  10.302  0.0760  0.0482 -0.1780
  283loPI   GL1 4517  14.698  16.154   9.879 -0.1732  0.0486  0.1826
  283loPI   GL2 4518  14.570  15.864   9.686 -0.0637  0.1730 -0.3551
  283loPI   C1A 4519  15.011  16.005   9.533 -0.2934 -0.1063 -0.2917
  283loPI   C2A 4520  15.177  15.875   9.178 -0.0544 -0.1212 -0.0334
  283loPI   C3A 4521  15.186  15.918   8.676 -0.1016 -0.1357 -0.0831
  283loPI   C4A 4522  15.237  15.706   8.258 -0.2349 -0.1429  0.0721
  283loPI   C5A 4523  15.479  15.861   7.883 -0.1928  0.0617  0.1743
  283loPI   C6A 4524  15.809  16.002   7.777 -0.1638  0.1401  0.1473
  283loPI   C1B 4525  14.519  15.883   9.245 -0.0312 -0.1885 -0.3054
  283loPI   C2B 4526  14.508  15.811   8.767 -0.1863 -0.2456  0.1252
  283loPI   C3B 4527  14.614  15.808   8.379  0.2309  0.0012  0.4959
  283loPI   C4B 4528  14.652  15.694   7.877 -0.1775 -0.0589 -0.2088
  284loPI    C1 4529   1.216   6.063  10.844 -0.3322  0.1259  0.0740
  284loPI    C2 4530   1.163   6.369  10.592 -0.1721  0.0893 -0.0057
  284loPI    C3 4531   1.410   6.407  10.905  0.0192 -0.0283 -0.1403
  284loPI   PO4 4532   1.247   5.848  10.622  0.0390  0.1894  0.1115
  284loPI   GL1 4533   1.190   5.774  10.175 -0.0427  0.2647 -0.0807
  284loPI   GL2 4534   1.094   6.078  10.179 -0.0645 -0.3024  0.0819
  284loPI   C1A 4535   1.210   5.631   9.725 -0.3763  0.1037 -0.0570
  284loPI   C2A 4536   1.208   5.573   9.340  0.2381  0.1170  0.0937
  284loPI   C3A 4537   1.068   5.442   8.930 -0.0714  0.2577  0.2318
  284loPI   C4A 4538   0.956   5.395   8.528  0.1097 -0.1043  0.2626
  284loPI   C5A 4539   1.067   5.271   8.054 -0.4947 -0.1038 -0.1584
  284loPI   C6A 4540   1.146   5.285   7.632 -0.2289 -0.3825 -0.1924
  284loPI   C1B 4541   0.954   6.017   9.690  0.0403  0.1774  0.1754
  284loPI   C2B 4542   0.902   5.956   9.256 -0.1005  0.0260  0.1160
  284loPI   C3B 4543   0.838   5.852   8.875 -0.0853  0.0575  0.1032
  284loPI   C4B 4544   1.063   5.897   8.467 -0.2037  0.2775  0.0460
  285loPI    C1 4545  10.774   4.066  10.551  0.1004  0.0591  0.0669
  285loPI    C2 4546  10.562   4.368  10.705  0.1163  0.1536 -0.0946
  285loPI    C3 4547  10.948   4.327  10.800  0.0578  0.0514  0.1049
  285loPI   PO4 4548  10.774   4.126  10.293  0.2145  0.2804 -0.0675
  285loPI   GL1 4549  10.815   4.158   9.856 -0.3996  0.0654 -0.0266
  285loPI   GL2 4550  10.632   4.396   9.604 -0.1456  0.2536 -0.3300
  285loPI   C1A 4551  11.004   3.897   9.568  0.2079 -0.3451 -0.0607
  285loPI   C2A 4552  11.265   3.697   9.338 -0.3656 -0.2699 -0.0178
  285loPI   C3A 4553  11.230   3.734   8.939  0.2397 -0.0672  0.1414
  285loPI   C4A 4554  11.400   3.697   8.544 -0.0422 -0.1881  0.1419
  285loPI   C5A 4555  11.497   3.847   8.157 -0.1881 -0.0848 -0.0033
  285loPI   C6A 4556  11.340   4.093   7.669  0.0486 -0.0211 -0.0555
  285loPI   C1B 4557  10.879   4.315   9.236  0.1488 -0.2738  0.1250
  285loPI   C2B 4558  11.155   4.304   8.884 -0.1229 -0.2748 -0.0204
  285loPI   C3B 4559  11.259   4.171   8.540  0.1849  0.0510  0.1134
  285loPI   C4B 4560  11.248   4.346   8.060 -0.1258  0.0181 -0.2007
  286loPI    C1 4561  17.639   9.664  10.813 -0.0747  0.1865 -0.0448
  286loPI    C2 4562  17.497   9.891  11.110  0.0577  0.0348  0.1378
  286loPI    C3 4563  17.835   9.685  11.161  0.0533 -0.0351 -0.1016
  286loPI   PO4 4564  17.544   9.811  10.612  0.1202 -0.1009  0.0176
  286loPI   GL1 4565  17.332   9.654  10.250 -0.1013  0.2140 -0.0612
  286loPI   GL2 4566  17.048   9.350  10.174 -0.0181  0.1715  0.0387
  286loPI   C1A 4567  17.325   9.737   9.828  0.1021 -0.2137 -0.1872
  286loPI   C2A 4568  17.376   9.800   9.423  0.0654  0.0992 -0.1157
  286loPI   C3A 4569  17.328   9.643   9.013  0.0433  0.1567  0.0167
  286loPI   C4A 4570  17.366   9.657   8.559 -0.0548  0.1294  0.0199
  286loPI   C5A 4571  17.123   9.506   8.147  0.0284  0.0443 -0.0295
  286loPI   C6A 4572  16.916   9.162   8.077 -0.3040  0.1109  0.0823
  286loPI   C1B 4573  17.053   9.349   9.768 -0.1271 -0.1406  0.0375
  286loPI   C2B 4574  17.032   9.319   9.277 -0.1512  0.1292  0.1860
  286loPI   C3B 4575  17.079   9.254   8.900  0.4048  0.0881  0.0391
  286loPI   C4B 4576  17.176   9.111   8.501  0.0553 -0.0473 -0.2366
  287loPI    C1 4577  18.463   6.368  10.909 -0.2777  0.0680 -0.2235
  287loPI    C2 4578  18.213   6.559  11.156  0.0088  0.0918  0.0541
  287loPI    C3 4579  18.507   6.332  11.305 -0.0301 -0.1795 -0.2700
  287loPI   PO4 4580  18.527   6.515  10.657  0.1682  0.2208 -0.2354
  287loPI   GL1 4581  18.626   6.666  10.196  0.0051  0.1278 -0.2305
  287loPI   GL2 4582  18.899   6.454  10.227 -0.2720  0.0431  0.0342
  287loPI   C1A 4583  18.498   6.879   9.843 -0.1689  0.0850 -0.0637
  287loPI   C2A 4584  18.423   6.818   9.484  0.0274  0.1713  0.1739
  287loPI   C3A 4585  18.450   6.966   9.128  0.1180 -0.0158 -0.1457
  287loPI   C4A 4586  18.580   7.014   8.646  0.1069 -0.0258 -0.4035
  287loPI   C5A 4587  18.741   6.713   8.427 -0.2996  0.1412 -0.0219
  287loPI   C6A 4588  18.836   6.488   8.019  0.3190  0.1794  0.4570
  287loPI   C1B 4589  19.124   6.425   9.823  0.2807 -0.0573 -0.3732
  287loPI   C2B 4590  19.276   6.480   9.468 -0.2075 -0.0420  0.0546
  287loPI   C3B 4591  19.127   6.482   9.092  0.0019  0.2086  0.1286
  287loPI   C4B 4592  19.103   6.529   8.707 -0.2122 -0.1447  0.0766
  288loPI    C1 4593   5.704   7.282  10.548  0.1965 -0.0485 -0.1059
  288loPI    C2 4594   6.069   7.145  10.460  0.2740  0.1681 -0.1282
  288loPI    C3 4595   6.015   7.378  10.780  0.1177 -0.0309 -0.0069
  288loPI   PO4 4596   5.464   7.413  10.353 -0.0646  0.2401 -0.0695
  288loPI   GL1 4597   5.305   7.125   9.959  0.2005  0.0347  0.3180
  288loPI   GL2 4598   5.573   6.988   9.713  0.0081  0.0245 -0.2544
  288loPI   C1A 4599   5.161   6.954   9.595  0.0415  0.2214 -0.0700
  288loPI   C2A 4600   5.210   6.892   9.097  0.0338 -0.1177  0.2319
  288loPI   C3A 4601   5.182   7.115   8.758  0.2095 -0.2080  0.1366
  288loPI   C4A 4602   5.248   6.939   8.367 -0.1911 -0.2741 -0.0979
  288loPI   C5A 4603   5.048   6.716   8.081 -0.1180 -0.1928  0.0449
  288loPI   C6A 4604   4.708   6.352   8.271 -0.2962 -0.0916  0.0203
  288loPI   C1B 4605   5.716   7.041   9.326 -0.1158 -0.0140 -0.1789
  288loPI   C2B 4606   5.960   7.040   8.958  0.1306 -0.2962  0.0061
  288loPI   C3B 4607   6.083   6.925   8.515  0.0572  0.1826  0.2201
  288loPI   C4B 4608   6.188   6.790   8.058 -0.0762 -0.0949  0.1909
  289loPI    C1 4609   9.035   2.577  10.240 -0.1668  0.2687 -0.0225
  289loPI    C2 4610   9.327   2.774  10.430  0.0413 -0.0057 -0.0512
  289loPI    C3 4611   9.133   2.478  10.616 -0.1417  0.0994 -0.0729
  289loPI   PO4 4612   9.193   2.502  10.001  0.0634 -0.2217 -0.1127
  289loPI   GL1 4613   9.338   2.465   9.619 -0.2679  0.2271  0.0249
  289loPI   GL2 4614   9.244   2.137   9.560 -0.2579 -0.2317 -0.1432
  289loPI   C1A 4615   8.988   2.711   9.325  0.1410  0.3675 -0.0725
  289loPI   C2A 4616   8.912   2.888   8.924  0.0429 -0.0817  0.1525
  289loPI   C3A 4617   8.825   2.904   8.485  0.2237  0.3265  0.0684
  289loPI   C4A 4618   8.782   3.037   8.088 -0.0922  0.0525  0.3185
  289loPI   C5A 4619   8.757   3.253   7.702 -0.1048  0.0224 -0.0452
  289loPI   C6A 4620   9.046   3.551   7.435 -0.2645 -0.1739 -0.0501
  289loPI   C1B 4621   9.230   2.127   9.107  0.1774 -0.2396  0.0557
  289loPI   C2B 4622   9.394   2.123   8.681  0.3060 -0.0415  0.2632
  289loPI   C3B 4623   9.441   2.288   8.332  0.1936  0.1209  0.1811
  289loPI   C4B 4624   9.490   2.007   7.952 -0.2285 -0.1040  0.3012
  290loPI    C1 4625   1.512   8.451  11.081 -0.2328 -0.1766 -0.1484
  290loPI    C2 4626   1.294   8.123  11.146 -0.0727 -0.2059  0.2663
  290loPI    C3 4627   1.374   8.373  11.448  0.1797 -0.0168  0.0464
  290loPI   PO4 4628   1.559   8.444  10.829 -0.0636  0.0646  0.0693
  290loPI   GL1 4629   1.624   8.388  10.438 -0.0279  0.0373 -0.1370
  290loPI   GL2 4630   1.315   8.307  10.379  0.2768 -0.1582 -0.1415
  290loPI   C1A 4631   1.481   8.737  10.105 -0.0567  0.0411  0.0395
  290loPI   C2A 4632   1.616   8.856   9.759  0.1987  0.1370 -0.1728
  290loPI   C3A 4633   1.606   8.685   9.322  0.2614  0.0457 -0.2467
  290loPI   C4A 4634   1.433   8.810   8.965 -0.2294 -0.0027 -0.0411
  290loPI   C5A 4635   1.460   8.859   8.549  0.0864  0.3584 -0.1283
  290loPI   C6A 4636   1.391   8.903   8.158  0.0631 -0.4626 -0.0705
  290loPI   C1B 4637   1.251   8.258  10.005  0.2262 -0.3097  0.0616
  290loPI   C2B 4638   1.367   8.204   9.639 -0.0136 -0.3631  0.0108
  290loPI   C3B 4639   1.286   8.290   9.221 -0.0500  0.1115 -0.4980
  290loPI   C4B 4640   1.223   8.368   8.852  0.1206  0.2021 -0.0766
  291loPI    C1 4641   7.542  12.449  10.283 -0.0065  0.0652  0.0578
  291loPI    C2 4642   7.719  12.122  10.431 -0.0847 -0.1308 -0.2705
  291loPI    C3 4643   7.451  12.323  10.652  0.1953 -0.1021  0.0518
  291loPI   PO4 4644   7.393  12.419  10.039  0.0082 -0.3260  0.0973
  291loPI   GL1 4645   7.347  12.431   9.519  0.3354  0.2350 -0.3493
  291loPI   GL2 4646   7.339  12.754   9.611  0.0711 -0.2555  0.0809
  291loPI   C1A 4647   7.404  12.585   9.073 -0.1510 -0.1680 -0.3996
  291loPI   C2A 4648   7.695  12.762   8.737  0.2025  0.5009 -0.2319
  291loPI   C3A 4649   7.828  12.901   8.350  0.0596 -0.0452  0.0372
  291loPI   C4A 4650   7.695  13.010   7.964  0.0430  0.3574 -0.1619
  291loPI   C5A 4651   7.487  13.154   7.535 -0.1311 -0.2491  0.1757
  291loPI   C6A 4652   7.046  13.261   7.505  0.0419  0.0318 -0.2931
  291loPI   C1B 4653   7.220  13.003   9.326 -0.1414 -0.2318 -0.1770
  291loPI   C2B 4654   7.078  13.040   8.854  0.1020 -0.1683 -0.0784
  291loPI   C3B 4655   6.948  12.961   8.485  0.1058 -0.0238 -0.0495
  291loPI   C4B 4656   7.237  12.654   8.343  0.2731 -0.3787  0.0438
  292loPI    C1 4657   4.987   8.960  10.042 -0.3930  0.0469  0.0000
  292loPI    C2 4658   5.023   8.806  10.410  0.1629 -0.0903 -0.1020
  292loPI    C3 4659   5.002   8.563  10.092 -0.0930  0.0323 -0.1818
  292loPI   PO4 4660   4.863   9.213  10.133 -0.1005  0.0069  0.3064
  292loPI   GL1 4661   4.605   9.611   9.903  0.2050 -0.0862  0.2442
  292loPI   GL2 4662   4.257   9.747   9.907  0.1144  0.0397  0.2358
  292loPI   C1A 4663   4.542   9.672   9.556  0.2322 -0.0223  0.0491
  292loPI   C2A 4664   4.403   9.659   9.126 -0.1756  0.1036  0.1247
  292loPI   C3A 4665   4.038   9.330   9.061  0.3588 -0.0050  0.2483
  292loPI   C4A 4666   3.978   9.127   8.686  0.0085  0.1283 -0.0764
  292loPI   C5A 4667   4.018   8.799   8.431 -0.1513  0.0673 -0.2208
  292loPI   C6A 4668   4.093   8.554   8.039 -0.1346  0.1632 -0.3351
  292loPI   C1B 4669   4.150  10.065   9.468  0.2381  0.1111  0.1517
  292loPI   C2B 4670   3.975  10.066   9.031  0.0609 -0.1472 -0.4318
  292loPI   C3B 4671   3.856  10.006   8.700  0.1158 -0.1036  0.3043
  292loPI   C4B 4672   4.116  10.027   8.366 -0.3430  0.0162  0.0320
  293loPI    C1 4673  13.438   8.828  10.959  0.1983 -0.2438 -0.0330
  293loPI    C2 4674  13.128   8.591  10.868 -0.0922  0.0881  0.0694
  293loPI    C3 4675  13.391   8.479  11.148 -0.1301 -0.1869 -0.0031
  293loPI   PO4 4676  13.491   8.908  10.688  0.0487  0.3972 -0.0263
  293loPI   GL1 4677  13.773   8.677  10.293 -0.3626  0.1154 -0.1071
  293loPI   GL2 4678  13.990   8.385  10.308  0.2128  0.2782 -0.0398
  293loPI   C1A 4679  13.730   8.900   9.914 -0.5319  0.0577  0.0474
  293loPI   C2A 4680  13.695   9.010   9.451 -0.0299  0.0572  0.0220
  293loPI   C3A 4681  13.756   8.968   9.002 -0.0888  0.2834  0.2406
  293loPI   C4A 4682  13.798   8.912   8.588  0.0174 -0.3575 -0.1328
  293loPI   C5A 4683  13.920   8.704   8.202  0.1588 -0.2453  0.2701
  293loPI   C6A 4684  13.687   8.450   7.782 -0.0822 -0.1354  0.2507
  293loPI   C1B 4685  13.970   8.428   9.846  0.2894 -0.1005  0.1404
  293loPI   C2B 4686  13.960   8.461   9.382  0.0280 -0.1659  0.2716
  293loPI   C3B 4687  13.999   8.542   8.978 -0.1511 -0.2039  0.0553
  293loPI   C4B 4688  14.131   8.463   8.567  0.1925 -0.0186  0.0939
  294loPI    C1 4689   8.909   6.562  10.667 -0.1766  0.0830 -0.0522
  294loPI    C2 4690   8.725   6.707  10.992  0.0466  0.1691  0.0377
  294loPI    C3 4691   9.066   6.500  11.030 -0.0989 -0.1055 -0.1166
  294loPI   PO4 4692   8.913   6.695  10.346 -0.0524  0.0117  0.0047
  294loPI   GL1 4693   8.840   6.723   9.847 -0.2749 -0.1337 -0.2233
  294loPI   GL2 4694   8.432   6.411   9.857  0.0021 -0.1770 -0.0999
  294loPI   C1A 4695   8.920   6.449   9.625 -0.1354 -0.1244 -0.0686
  294loPI   C2A 4696   9.023   6.512   9.277 -0.0802 -0.0165  0.0149
  294loPI   C3A 4697   8.989   6.323   8.817 -0.1178 -0.1155 -0.0675
  294loPI   C4A 4698   8.985   6.365   8.365 -0.1016  0.2479  0.1662
  294loPI   C5A 4699   8.951   6.282   8.042  0.2776  0.0115 -0.4247
  294loPI   C6A 4700   8.628   6.261   7.768 -0.0428  0.1086 -0.2738
  294loPI   C1B 4701   8.231   6.515   9.510 -0.0605  0.1302  0.1546
  294loPI   C2B 4702   7.913   6.268   9.367  0.0632  0.0304  0.2277
  294loPI   C3B 4703   7.728   6.067   8.998 -0.2074  0.0618  0.0671
  294loPI   C4B 4704   7.448   6.203   8.733  0.3626 -0.1353  0.0843
  295loPI    C1 4705  10.340   2.242  10.178 -0.1469 -0.0639 -0.0275
  295loPI    C2 4706  10.702   2.072  10.161 -0.1787 -0.1194 -0.1613
  295loPI    C3 4707  10.411   1.901  10.375 -0.1058 -0.0361  0.0061
  295loPI   PO4 4708  10.266   2.309   9.885 -0.0551  0.0450  0.1950
  295loPI   GL1 4709  10.516   2.637   9.647 -0.1468  0.3185 -0.2501
  295loPI   GL2 4710  10.751   2.787   9.709 -0.0217 -0.3686 -0.0383
  295loPI   C1A 4711  10.354   2.674   9.226 -0.2974  0.2873 -0.0047
  295loPI   C2A 4712  10.248   2.639   8.811  0.1227  0.3067  0.0802
  295loPI   C3A 4713  10.161   2.425   8.312 -0.1451 -0.3290 -0.0294
  295loPI   C4A 4714   9.904   2.296   8.014 -0.2939 -0.1570  0.0777
  295loPI   C5A 4715   9.596   2.502   7.746  0.3411  0.1320 -0.0678
  295loPI   C6A 4716   9.508   2.437   7.312  0.2179  0.2652 -0.1500
  295loPI   C1B 4717  10.910   2.733   9.333  0.3266 -0.2902  0.0573
  295loPI   C2B 4718  11.156   2.704   9.059  0.0041  0.5116 -0.4102
  295loPI   C3B 4719  11.121   2.758   8.654 -0.0573 -0.3356 -0.1865
  295loPI   C4B 4720  10.920   2.840   8.135 -0.1789  0.1517  0.1597
  296loPI    C1 4721  17.727  17.836  10.781 -0.0445 -0.2771  0.0287
  296loPI    C2 4722  17.933  18.087  11.015 -0.2462 -0.0575 -0.0261
  296loPI    C3 4723  18.092  17.735  10.911  0.0409  0.0469  0.0495
  296loPI   PO4 4724  17.712  18.039  10.557 -0.0377  0.2274 -0.1495
  296loPI   GL1 4725  17.653  17.797  10.251  0.0281  0.1751  0.4135
  296loPI   GL2 4726  17.341  17.862  10.149 -0.3055  0.1536  0.1088
  296loPI   C1A 4727  17.814  17.739   9.910 -0.2696 -0.0065 -0.0912
  296loPI   C2A 4728  17.746  17.729   9.639 -0.0683 -0.1481  0.2666
  296loPI   C3A 4729  17.658  17.764   9.220  0.0005  0.1784  0.0036
  296loPI   C4A 4730  17.748  17.816   8.868  0.4462  0.1011 -0.1900
  296loPI   C5A 4731  17.766  17.765   8.520  0.1717  0.1042 -0.0144
  296loPI   C6A 4732  17.751  17.574   8.174  0.2060 -0.2891 -0.0892
  296loPI   C1B 4733  17.235  17.756   9.745 -0.0790  0.1609 -0.2275
  296loPI   C2B 4734  17.204  17.688   9.241 -0.2256 -0.2724  0.1619
  296loPI   C3B 4735  17.198  17.871   8.826 -0.0937  0.0190  0.1739
  296loPI   C4B 4736  17.253  17.700   8.314  0.1368  0.1714  0.0235
  297loPI    C1 4737   0.064   4.735  10.719 -0.1595 -0.1780 -0.2404
  297loPI    C2 4738  -0.304   4.847  10.828 -0.0846 -0.1209 -0.0432
  297loPI    C3 4739  -0.041   4.727  11.104  0.1026  0.0086 -0.1627
  297loPI   PO4 4740   0.042   4.512  10.516  0.2795  0.1376 -0.0613
  297loPI   GL1 4741   0.182   4.461  10.190  0.3416 -0.0709 -0.1572
  297loPI   GL2 4742   0.409   4.226  10.359 -0.0703 -0.0162 -0.2086
  297loPI   C1A 4743   0.071   4.662   9.794 -0.2320  0.1359  0.0475
  297loPI   C2A 4744   0.168   4.694   9.374  0.1238 -0.0786 -0.3098
  297loPI   C3A 4745   0.051   4.590   8.933 -0.2543 -0.1178 -0.2015
  297loPI   C4A 4746  -0.019   4.706   8.547 -0.1330 -0.2865 -0.0473
  297loPI   C5A 4747   0.068   4.968   8.093  0.2752  0.1900  0.2043
  297loPI   C6A 4748   0.426   5.256   8.154  0.2653 -0.0055 -0.1678
  297loPI   C1B 4749   0.351   4.208   9.832  0.1076  0.2904  0.0290
  297loPI   C2B 4750   0.423   4.203   9.396 -0.2365 -0.2631 -0.1796
  297loPI   C3B 4751   0.336   4.178   9.014  0.1732  0.3628 -0.3329
  297loPI   C4B 4752   0.260   4.161   8.586  0.0260 -0.0264  0.1106
  298loPI    C1 4753  18.397  11.487  11.028  0.1718  0.2339 -0.1299
  298loPI    C2 4754  18.507  11.471  11.412 -0.2131 -0.1526 -0.0286
  298loPI    C3 4755  18.266  11.764  11.286  0.0768  0.0924 -0.0250
  298loPI   PO4 4756  18.556  11.424  10.909  0.2611  0.1468 -0.2345
  298loPI   GL1 4757  18.506  11.276  10.490 -0.2971  0.0641 -0.0620
  298loPI   GL2 4758  18.171  11.413  10.534  0.5180 -0.1485  0.2593
  298loPI   C1A 4759  18.536  11.156  10.121 -0.1395  0.1207  0.1640
  298loPI   C2A 4760  18.731  10.942   9.730  0.0177 -0.3495 -0.3359
  298loPI   C3A 4761  18.822  10.975   9.243  0.0232  0.0266  0.2203
  298loPI   C4A 4762  18.701  10.981   8.855  0.0722 -0.3957 -0.4346
  298loPI   C5A 4763  18.456  10.983   8.442  0.1819  0.2876 -0.1667
  298loPI   C6A 4764  18.026  10.862   8.290 -0.0300  0.1061 -0.1043
  298loPI   C1B 4765  18.092  11.276  10.082  0.1675 -0.1597  0.0299
  298loPI   C2B 4766  18.268  11.112   9.605 -0.2253  0.1032 -0.4665
  298loPI   C3B 4767  18.321  11.128   9.187  0.4566 -0.1191  0.0268
  298loPI   C4B 4768  18.117  11.142   8.755 -0.0133  0.2444  0.0379
  299loPI    C1 4769  11.931   4.481  10.985 -0.0899  0.0638  0.0799
  299loPI    C2 4770  12.101   4.550  11.340  0.0257 -0.0696  0.0511
  299loPI    C3 4771  11.712   4.459  11.320  0.0337 -0.1273  0.1494
  299loPI   PO4 4772  12.130   4.360  10.889  0.0209 -0.0644 -0.1900
  299loPI   GL1 4773  12.154   4.099  10.419 -0.1270  0.2666 -0.0017
  299loPI   GL2 4774  11.823   3.947  10.326  0.1797 -0.2674  0.0224
  299loPI   C1A 4775  11.997   4.408  10.083  0.2740 -0.0237 -0.0141
  299loPI   C2A 4776  11.927   4.293   9.581 -0.1367 -0.1138 -0.2396
  299loPI   C3A 4777  12.030   4.385   9.260 -0.2655 -0.0117  0.0684
  299loPI   C4A 4778  12.064   4.526   8.797  0.0888 -0.2212  0.0782
  299loPI   C5A 4779  12.160   4.342   8.431  0.1024  0.0993  0.1529
  299loPI   C6A 4780  12.339   4.387   8.013 -0.0197  0.0555 -0.0364
  299loPI   C1B 4781  11.877   3.814   9.963  0.2602 -0.0856 -0.0110
  299loPI   C2B 4782  11.976   3.787   9.589 -0.3157  0.0017 -0.2649
  299loPI   C3B 4783  12.137   3.930   9.271 -0.0636  0.0357  0.0399
  299loPI   C4B 4784  12.239   3.977   8.836 -0.1940 -0.1730 -0.0694
  300loPI    C1 4785   6.358  15.931  10.142 -0.1646 -0.1723 -0.0441
  300loPI    C2 4786   5.981  16.020  10.239 -0.1783 -0.3682  0.0880
  300loPI    C3 4787   6.267  16.031  10.518 -0.0208  0.1137 -0.0832
  300loPI   PO4 4788   6.382  16.229   9.958  0.1882 -0.1188  0.2840
  300loPI   GL1 4789   6.149  16.534   9.733  0.0700 -0.1449 -0.0727
  300loPI   GL2 4790   5.865  16.501   9.970 -0.1624 -0.0959  0.1430
  300loPI   C1A 4791   6.210  16.562   9.331 -0.3384 -0.0840 -0.0836
  300loPI   C2A 4792   6.341  16.261   9.161  0.0052 -0.2116  0.1663
  300loPI   C3A 4793   6.475  16.243   8.711 -0.1382 -0.1247 -0.0059
  300loPI   C4A 4794   6.462  16.273   8.255 -0.1546 -0.1158  0.2183
  300loPI   C5A 4795   6.093  16.154   7.991 -0.1763  0.0513  0.0459
  300loPI   C6A 4796   5.718  16.413   7.744 -0.1284 -0.0957  0.0564
  300loPI   C1B 4797   5.460  16.478   9.620 -0.0524  0.2831  0.0722
  300loPI   C2B 4798   5.346  16.556   9.248 -0.3230  0.0657 -0.0924
  300loPI   C3B 4799   5.259  16.641   8.788 -0.0142  0.2766  0.0197
  300loPI   C4B 4800   5.240  16.677   8.354 -0.0904  0.1834 -0.2935
  301loPI    C1 4801   2.589  17.044  10.491  0.0295  0.1935 -0.1675
  301loPI    C2 4802   2.382  16.746  10.659  0.0557  0.1500 -0.2118
  301loPI    C3 4803   2.728  16.669  10.474  0.0702  0.2104 -0.2100
  301loPI   PO4 4804   2.390  17.168  10.332  0.0493 -0.3251  0.3742
  301loPI   GL1 4805   2.570  17.048   9.931 -0.1621 -0.1784  0.0409
  301loPI   GL2 4806   2.827  17.071   9.647 -0.1669  0.2696  0.3604
  301loPI   C1A 4807   2.313  17.103   9.643 -0.1039  0.1448 -0.0517
  301loPI   C2A 4808   2.265  17.068   9.195  0.1316  0.0597  0.0449
  301loPI   C3A 4809   2.260  17.009   8.721  0.0823 -0.2959  0.1911
  301loPI   C4A 4810   2.176  17.040   8.330 -0.0898 -0.2171  0.3397
  301loPI   C5A 4811   2.086  16.990   7.907  0.1051 -0.2631 -0.0500
  301loPI   C6A 4812   2.215  17.164   7.539 -0.0739 -0.3739 -0.0317
  301loPI   C1B 4813   2.814  16.999   9.268  0.0252  0.1435  0.1017
  301loPI   C2B 4814   2.806  16.970   8.804  0.1587 -0.0011 -0.0302
  301loPI   C3B 4815   2.723  17.102   8.406  0.1182  0.1666  0.2017
  301loPI   C4B 4816   2.572  17.147   8.011 -0.3063  0.0310 -0.0572
  302loPI    C1 4817   5.692   9.744  10.159 -0.0611 -0.0367 -0.2133
  302loPI    C2 4818   5.495   9.865  10.485  0.1382  0.0962 -0.1400
  302loPI    C3 4819   5.694   9.519  10.489  0.0679  0.0553 -0.1503
  302loPI   PO4 4820   5.510   9.766   9.968  0.2774 -0.2938 -0.1783
  302loPI   GL1 4821   5.372   9.717   9.646  0.1737 -0.0690 -0.1587
  302loPI   GL2 4822   5.008   9.900   9.749  0.2783  0.0256  0.1081
  302loPI   C1A 4823   5.411   9.728   9.194 -0.2581 -0.3835  0.0909
  302loPI   C2A 4824   5.531   9.596   8.786  0.2241 -0.0666 -0.3573
  302loPI   C3A 4825   5.403   9.508   8.354  0.0240  0.1334  0.3014
  302loPI   C4A 4826   5.605   9.353   7.925  0.0730  0.0336  0.3979
  302loPI   C5A 4827   5.666   9.294   7.473  0.0023 -0.0046  0.0565
  302loPI   C6A 4828   5.760   8.952   7.187 -0.1086  0.1647 -0.1360
  302loPI   C1B 4829   4.936   9.634   9.262 -0.0248  0.0710  0.4999
  302loPI   C2B 4830   4.971   9.685   8.791  0.1406 -0.2038  0.0583
  302loPI   C3B 4831   4.627   9.518   8.614  0.3607  0.2890 -0.1339
  302loPI   C4B 4832   4.210   9.585   8.613 -0.0310 -0.2193  0.1163
  303loPI    C1 4833  11.876   7.747  10.768  0.2136  0.0274  0.1666
  303loPI    C2 4834  11.922   7.379  10.918  0.2560 -0.0320  0.0101
  303loPI    C3 4835  11.633   7.618  11.059  0.0412 -0.2310 -0.0862
  303loPI   PO4 4836  11.933   7.731  10.487  0.0248  0.0705  0.1400
  303loPI   GL1 4837  11.737   7.802  10.122  0.1150  0.0402 -0.1757
  303loPI   GL2 4838  11.584   7.977  10.020  0.0049 -0.2743 -0.1539
  303loPI   C1A 4839  11.711   7.578   9.770 -0.0159 -0.2024  0.0626
  303loPI   C2A 4840  11.811   7.506   9.338  0.0929  0.2595 -0.0793
  303loPI   C3A 4841  11.836   7.611   8.980 -0.0748  0.3255 -0.0893
  303loPI   C4A 4842  11.973   7.672   8.645 -0.0003 -0.0964 -0.0463
  303loPI   C5A 4843  12.069   7.654   8.172  0.2148 -0.3739 -0.3517
  303loPI   C6A 4844  12.486   7.820   8.045  0.0472  0.3306 -0.2361
  303loPI   C1B 4845  11.594   8.107   9.638  0.2475 -0.1219 -0.0513
  303loPI   C2B 4846  11.523   8.132   9.216  0.0547  0.4803 -0.0397
  303loPI   C3B 4847  11.534   8.046   8.883  0.1903 -0.2256 -0.0028
  303loPI   C4B 4848  11.768   8.144   8.686  0.1436 -0.4828 -0.0828
  304loPI    C1 4849   7.972   2.682  10.106 -0.0245  0.0495  0.3425
  304loPI    C2 4850   7.758   2.547  10.416  0.1869 -0.0851  0.4321
  304loPI    C3 4851   7.771   2.939  10.338 -0.2986 -0.0944  0.2696
  304loPI   PO4 4852   7.933   2.435   9.820  0.0604 -0.0468  0.4685
  304loPI   GL1 4853   7.987   2.411   9.480  0.3112  0.0411 -0.1693
  304loPI   GL2 4854   8.266   2.374   9.372 -0.2123  0.2315 -0.0963
  304loPI   C1A 4855   7.918   2.499   9.045  0.2340  0.0477  0.1635
  304loPI   C2A 4856   8.105   2.399   8.756 -0.1858 -0.2816  0.0792
  304loPI   C3A 4857   8.414   2.294   8.509  0.2368  0.4033  0.3720
  304loPI   C4A 4858   8.658   2.232   8.288  0.0815  0.1429 -0.1795
  304loPI   C5A 4859   8.738   2.256   7.847  0.2654  0.0209  0.0855
  304loPI   C6A 4860   9.064   2.487   7.657  0.1532  0.0847 -0.1350
  304loPI   C1B 4861   8.368   2.061   9.174 -0.0128 -0.2242  0.1546
  304loPI   C2B 4862   8.397   1.857   8.698 -0.2370  0.1374  0.2178
  304loPI   C3B 4863   8.529   1.753   8.320 -0.1092  0.3089  0.0656
  304loPI   C4B 4864   8.501   1.812   7.864 -0.1895 -0.3873 -0.1579
  305loPI    C1 4865   7.321   6.658  10.313 -0.2579  0.0306 -0.0814
  305loPI    C2 4866   7.137   6.709  10.664  0.0779 -0.0877  0.1167
  305loPI    C3 4867   7.240   6.341  10.544 -0.0309 -0.0472 -0.1055
  305loPI   PO4 4868   7.123   6.846  10.166  0.1865 -0.1258  0.0987
  305loPI   GL1 4869   7.189   7.227   9.795  0.0555  0.1588 -0.1388
  305loPI   GL2 4870   6.837   7.117   9.779 -0.2601 -0.1295 -0.0306
  305loPI   C1A 4871   7.229   7.204   9.406  0.1336 -0.2985  0.2751
  305loPI   C2A 4872   7.271   7.108   8.999  0.3594  0.1266 -0.1498
  305loPI   C3A 4873   7.278   7.237   8.581  0.0261 -0.2481  0.0106
  305loPI   C4A 4874   6.955   7.391   8.193 -0.0841  0.0463  0.1727
  305loPI   C5A 4875   6.697   7.168   7.870 -0.2031  0.1353 -0.0765
  305loPI   C6A 4876   6.309   7.153   7.651 -0.1009  0.1561 -0.0270
  305loPI   C1B 4877   6.823   6.990   9.253  0.0454 -0.3042 -0.3763
  305loPI   C2B 4878   6.774   6.990   8.779  0.0416  0.2484 -0.2017
  305loPI   C3B 4879   6.707   6.981   8.318 -0.0942  0.3412 -0.1599
  305loPI   C4B 4880   6.826   6.711   7.938 -0.5093  0.2113  0.0251
  306loPI    C1 4881  11.443  16.439  10.078 -0.1311  0.0974  0.1574
  306loPI    C2 4882  11.568  16.213  10.384  0.1069 -0.1200 -0.0952
  306loPI    C3 4883  11.232  16.427  10.418  0.1165 -0.1611  0.3068
  306loPI   PO4 4884  11.794  16.605  10.054 -0.1395  0.0944 -0.0671
  306loPI   GL1 4885  12.064  16.654   9.857 -0.1155 -0.0699  0.1124
  306loPI   GL2 4886  12.330  16.546   9.664  0.3576 -0.0589 -0.3283
  306loPI   C1A 4887  12.032  17.034   9.596 -0.2580  0.0512 -0.1473
  306loPI   C2A 4888  11.831  17.031   9.276 -0.0301 -0.0395 -0.6105
  306loPI   C3A 4889  11.785  17.038   8.894 -0.1446  0.0287 -0.2343
  306loPI   C4A 4890  11.651  17.124   8.535  0.0425 -0.3181  0.1940
  306loPI   C5A 4891  11.738  17.182   8.139  0.1275  0.1949  0.2288
  306loPI   C6A 4892  11.815  16.975   7.684  0.0038  0.1010 -0.2159
  306loPI   C1B 4893  12.054  16.592   9.325  0.0537 -0.1191 -0.5433
  306loPI   C2B 4894  12.023  16.578   8.873 -0.0468  0.2937 -0.2587
  306loPI   C3B 4895  11.970  16.727   8.473 -0.0525  0.0826 -0.0164
  306loPI   C4B 4896  12.145  16.829   8.065  0.1224  0.0748  0.0154
  307loPI    C1 4897   7.091  14.698  10.524  0.0817  0.1689  0.2016
  307loPI    C2 4898   6.921  14.495  10.824  0.0314  0.0476  0.0920
  307loPI    C3 4899   7.308  14.441  10.741  0.0082 -0.0353  0.0364
  307loPI   PO4 4900   6.860  14.640  10.326 -0.1428 -0.0783 -0.0545
  307loPI   GL1 4901   6.799  14.462   9.979  0.3628 -0.0327 -0.0611
  307loPI   GL2 4902   6.846  14.254   9.797 -0.1536  0.1580 -0.2009
  307loPI   C1A 4903   6.856  14.655   9.518 -0.2385  0.1504  0.0502
  307loPI   C2A 4904   6.950  14.863   9.149  0.0963  0.1541  0.3208
  307loPI   C3A 4905   6.857  14.818   8.642 -0.1572  0.0228  0.2240
  307loPI   C4A 4906   6.777  14.854   8.223 -0.1515  0.2206 -0.0769
  307loPI   C5A 4907   6.631  15.027   7.815 -0.0507 -0.0536  0.0093
  307loPI   C6A 4908   6.696  15.435   7.641 -0.0953 -0.1673  0.1138
  307loPI   C1B 4909   6.940  14.068   9.466  0.0250 -0.1767  0.1188
  307loPI   C2B 4910   6.958  13.903   9.095 -0.2544  0.1396  0.0565
  307loPI   C3B 4911   6.812  13.904   8.708  0.1234  0.2626 -0.0159
  307loPI   C4B 4912   6.691  13.985   8.244  0.2994 -0.0834  0.0067
  308loPI    C1 4913   4.721  12.545  10.113  0.0224 -0.0460 -0.1113
  308loPI    C2 4914   4.859  12.198   9.970  0.1007  0.0064 -0.1635
  308loPI    C3 4915   4.691  12.212  10.332 -0.0129 -0.1093 -0.2111
  308loPI   PO4 4916   4.568  12.610   9.931  0.1451  0.2105 -0.1520
  308loPI   GL1 4917   4.474  12.343   9.631  0.1189  0.1446 -0.3997
  308loPI   GL2 4918   4.755  12.401   9.490  0.2204 -0.0390 -0.1821
  308loPI   C1A 4919   4.295  12.388   9.253  0.0796 -0.2695  0.0677
  308loPI   C2A 4920   4.255  12.266   8.827  0.2430  0.2354  0.1505
  308loPI   C3A 4921   4.228  12.258   8.461 -0.2728 -0.0436 -0.0060
  308loPI   C4A 4922   4.373  12.256   7.974  0.1038 -0.4168 -0.0385
  308loPI   C5A 4923   4.545  12.598   7.809  0.5352 -0.2212  0.0953
  308loPI   C6A 4924   4.915  12.817   7.879 -0.0772  0.1072  0.1299
  308loPI   C1B 4925   4.748  12.285   9.082 -0.2808  0.0137  0.1581
  308loPI   C2B 4926   4.732  12.214   8.708 -0.0421  0.1378  0.2234
  308loPI   C3B 4927   4.747  12.198   8.290 -0.1077 -0.2334  0.0836
  308loPI   C4B 4928   4.970  12.321   7.797 -0.0766 -0.0266 -0.1193
  309loPI    C1 4929  14.952  16.913  10.813 -0.0236 -0.2082  0.0305
  309loPI    C2 4930  14.819  17.267  10.942  0.0368 -0.1397 -0.0941
  309loPI    C3 4931  14.634  16.931  11.055 -0.1777 -0.0525 -0.1800
  309loPI   PO4 4932  14.968  17.000  10.456 -0.0267 -0.0308  0.1260
  309loPI   GL1 4933  15.063  17.149  10.098 -0.3930  0.0715 -0.0268
  309loPI   GL2 4934  14.855  17.249   9.775 -0.1386  0.2577 -0.3893
  309loPI   C1A 4935  15.291  17.090   9.775 -0.1248 -0.0244 -0.1742
  309loPI   C2A 4936  15.350  17.155   9.352  0.2452 -0.1115  0.1513
  309loPI   C3A 4937  15.402  17.199   9.025 -0.2626 -0.1361  0.0538
  309loPI   C4A 4938  15.455  17.190   8.581  0.0276 -0.2048 -0.0927
  309loPI   C5A 4939  15.354  17.035   8.273  0.0322 -0.2641  0.0663
  309loPI   C6A 4940  15.164  16.977   7.918 -0.2546  0.2228 -0.0293
  309loPI   C1B 4941  14.838  17.238   9.353  0.1449 -0.2157 -0.1842
  309loPI   C2B 4942  14.908  17.229   8.884 -0.1852  0.3550  0.3002
  309loPI   C3B 4943  14.904  17.236   8.428  0.0009 -0.0598  0.0721
  309loPI   C4B 4944  15.115  17.480   8.127  0.1280  0.1015 -0.1387
  310loPI    C1 4945   3.335   3.040  10.879 -0.1431  0.0517 -0.0334
  310loPI    C2 4946   3.465   3.416  10.839 -0.1001  0.0659  0.2231
  310loPI    C3 4947   3.486   3.234  11.194 -0.3878 -0.0799  0.1686
  310loPI   PO4 4948   3.473   2.932  10.524  0.0917 -0.0928  0.1471
  310loPI   GL1 4949   3.355   3.104  10.050 -0.3178  0.2432  0.1844
  310loPI   GL2 4950   3.565   2.818   9.898 -0.2481  0.0944 -0.1242
  310loPI   C1A 4951   3.328   3.263   9.592 -0.0557  0.1593 -0.0586
  310loPI   C2A 4952   3.371   3.341   9.281 -0.2682  0.1644 -0.2267
  310loPI   C3A 4953   3.319   3.373   8.888  0.1597  0.0887 -0.2893
  310loPI   C4A 4954   3.481   3.146   8.554 -0.1559  0.2765  0.0557
  310loPI   C5A 4955   3.456   3.105   8.089 -0.1115 -0.0150  0.1116
  310loPI   C6A 4956   3.338   3.176   7.685  0.1915 -0.1779  0.1474
  310loPI   C1B 4957   3.779   2.930   9.524  0.2057 -0.2952  0.1654
  310loPI   C2B 4958   3.742   2.999   9.067 -0.0185 -0.2664 -0.4083
  310loPI   C3B 4959   3.930   3.161   8.794  0.0715 -0.2388 -0.1484
  310loPI   C4B 4960   3.968   3.184   8.326 -0.0868  0.2023 -0.0065
  311loPI    C1 4961   8.684   3.872  10.082 -0.1654  0.1453 -0.0314
  311loPI    C2 4962   8.502   3.778   9.739  0.0621 -0.1000 -0.0887
  311loPI    C3 4963   8.618   3.489   9.989  0.2038  0.0617  0.0348
  311loPI   PO4 4964   8.922   4.001  10.024  0.1484  0.1379  0.1392
  311loPI   GL1 4965   9.041   3.990   9.690 -0.1030  0.1290  0.2392
  311loPI   GL2 4966   9.263   4.202   9.610  0.1214 -0.0631 -0.2630
  311loPI   C1A 4967   8.851   4.088   9.293  0.3059  0.0822  0.3261
  311loPI   C2A 4968   8.946   4.052   8.852  0.2440 -0.0412  0.2105
  311loPI   C3A 4969   8.974   4.156   8.405  0.0730 -0.0075  0.0835
  311loPI   C4A 4970   8.768   4.539   8.103  0.0142  0.0749 -0.1128
  311loPI   C5A 4971   8.751   4.604   7.595 -0.0847  0.3427  0.0931
  311loPI   C6A 4972   9.061   4.740   7.288 -0.0880 -0.0573  0.2575
  311loPI   C1B 4973   9.380   4.095   9.172 -0.0765  0.0408 -0.2194
  311loPI   C2B 4974   9.455   4.162   8.741 -0.0669  0.2424  0.1310
  311loPI   C3B 4975   9.506   4.188   8.277 -0.1848 -0.0711 -0.0746
  311loPI   C4B 4976   9.979   4.284   8.117 -0.1124  0.2056  0.0929
  312loPI    C1 4977  18.028  12.807  10.703 -0.0715 -0.1037 -0.0000
  312loPI    C2 4978  18.250  12.707  11.020  0.0873 -0.2387 -0.1519
  312loPI    C3 4979  17.876  12.570  10.987  0.0329 -0.1365  0.0290
  312loPI   PO4 4980  18.097  12.714  10.463  0.1549 -0.0231  0.0002
  312loPI   GL1 4981  18.067  12.634   9.992 -0.0210  0.1314 -0.0381
  312loPI   GL2 4982  17.992  13.054  10.119 -0.0835 -0.1996  0.1900
  312loPI   C1A 4983  18.035  12.595   9.568  0.2585  0.0045  0.3843
  312loPI   C2A 4984  17.933  12.530   9.216 -0.0021  0.1417  0.1166
  312loPI   C3A 4985  17.991  12.426   8.856  0.0062 -0.2678  0.0744
  312loPI   C4A 4986  18.009  12.469   8.415  0.0563  0.3078 -0.3681
  312loPI   C5A 4987  18.428  12.482   8.170 -0.0989  0.0093 -0.0210
  312loPI   C6A 4988  18.587  12.807   7.898 -0.2368 -0.2929  0.0076
  312loPI   C1B 4989  17.738  13.259   9.780  0.2988 -0.0774 -0.1086
  312loPI   C2B 4990  17.718  13.163   9.392  0.0289  0.4031 -0.1781
  312loPI   C3B 4991  17.707  12.958   9.020 -0.1068  0.0119 -0.1398
  312loPI   C4B 4992  17.644  12.898   8.559  0.0608  0.0860 -0.1212
  313loPI    C1 4993   1.786   9.415  10.803 -0.1013  0.1558 -0.1337
  313loPI    C2 4994   1.889   9.631  11.124  0.0198 -0.1260  0.0207
  313loPI    C3 4995   1.537   9.442  11.115 -0.0116 -0.0649 -0.0406
  313loPI   PO4 4996   1.943   9.519  10.603  0.0500  0.3152 -0.3596
  313loPI   GL1 4997   1.757   9.716  10.249 -0.0737 -0.1071  0.1290
  313loPI   GL2 4998   1.992   9.947  10.038  0.1717 -0.3613 -0.0838
  313loPI   C1A 4999   1.532   9.677   9.880 -0.0321  0.0231 -0.1215
  313loPI   C2A 5000   1.594   9.648   9.469  0.0638 -0.1593  0.0232
  313loPI   C3A 5001   1.519   9.694   8.996 -0.0111 -0.3325 -0.2096
  313loPI   C4A 5002   1.451   9.636   8.544  0.2996 -0.5203  0.0440
  313loPI   C5A 5003   1.523   9.410   8.211 -0.1710  0.1314 -0.0946
  313loPI   C6A 5004   1.451   9.478   7.687 -0.3162  0.0099  0.2895
  313loPI   C1B 5005   1.806  10.027   9.711 -0.0428 -0.2943  0.0117
  313loPI   C2B 5006   1.671  10.120   9.321 -0.0722  0.2166 -0.0819
  313loPI   C3B 5007   1.694  10.133   8.892 -0.1997 -0.1526 -0.0973
  313loPI   C4B 5008   1.693  10.047   8.518 -0.0097 -0.1583 -0.4611
  314loPI    C1 5009  10.768  11.111  10.193  0.1637 -0.0587  0.1591
  314loPI    C2 5010  10.991  11.390  10.372  0.2761 -0.0546  0.0149
  314loPI    C3 5011  10.604  11.352  10.466  0.3200 -0.0150  0.2152
  314loPI   PO4 5012  10.886  11.067   9.942  0.2662 -0.0627  0.2904
  314loPI   GL1 5013  11.208  11.027   9.547 -0.1396  0.1025 -0.0704
  314loPI   GL2 5014  11.323  11.412   9.353  0.1343  0.0971 -0.2118
  314loPI   C1A 5015  11.115  10.975   9.112 -0.2032  0.2636  0.1449
  314loPI   C2A 5016  10.992  10.847   8.756 -0.1528  0.0926 -0.1019
  314loPI   C3A 5017  10.929  11.070   8.304 -0.2426  0.2321  0.0366
  314loPI   C4A 5018  10.651  11.050   7.946 -0.0090 -0.0390  0.0945
  314loPI   C5A 5019  10.471  11.100   7.485 -0.4477  0.0786  0.0716
  314loPI   C6A 5020  10.412  11.233   7.112  0.0113 -0.0792  0.2012
  314loPI   C1B 5021  11.444  11.493   8.938 -0.0573 -0.0859  0.1742
  314loPI   C2B 5022  11.295  11.341   8.433 -0.1274 -0.0514  0.0150
  314loPI   C3B 5023  11.275  11.219   7.975 -0.0995 -0.0811  0.1129
  314loPI   C4B 5024  11.097  10.820   7.902  0.0766  0.0281 -0.2093
  315loPI    C1 5025   1.241   7.249  10.794  0.1574 -0.0207  0.0065
  315loPI    C2 5026   1.178   6.897  10.616  0.1329  0.0090 -0.0437
  315loPI    C3 5027   1.380   6.913  10.961 -0.3656 -0.1181  0.2646
  315loPI   PO4 5028   1.431   7.473  10.553 -0.0132 -0.2391  0.0442
  315loPI   GL1 5029   1.867   7.336  10.214 -0.0986  0.3821 -0.0118
  315loPI   GL2 5030   1.648   7.085  10.208  0.0530  0.0360  0.1208
  315loPI   C1A 5031   1.908   7.327   9.776 -0.1600 -0.0183  0.2112
  315loPI   C2A 5032   1.843   7.348   9.301 -0.0297 -0.2121  0.1311
  315loPI   C3A 5033   1.807   7.420   8.857 -0.0174  0.1893  0.0528
  315loPI   C4A 5034   1.623   7.394   8.383  0.0117  0.0222 -0.0704
  315loPI   C5A 5035   1.314   7.556   8.096 -0.4308 -0.1115  0.1440
  315loPI   C6A 5036   0.894   7.530   7.856 -0.1759  0.2036  0.3205
  315loPI   C1B 5037   1.546   6.933   9.757  0.0706 -0.1103  0.1606
  315loPI   C2B 5038   1.508   6.826   9.401  0.2269 -0.3150  0.0244
  315loPI   C3B 5039   1.551   6.770   8.937  0.2083  0.3587  0.1970
  315loPI   C4B 5040   1.633   6.905   8.577 -0.2100  0.0518 -0.0449
  316loPI    C1 5041   2.037   2.499  10.321 -0.0326  0.0806 -0.0946
  316loPI    C2 5042   1.856   2.644  10.647 -0.2284 -0.1222 -0.1110
  316loPI    C3 5043   2.090   2.321  10.676 -0.2259 -0.1253 -0.1668
  316loPI   PO4 5044   1.935   2.505  10.171  0.1912  0.2033  0.0049
  316loPI   GL1 5045   1.654   2.420   9.926  0.0809 -0.2594 -0.0099
  316loPI   GL2 5046   1.788   2.794   9.747  0.0218  0.0647  0.0748
  316loPI   C1A 5047   1.467   2.438   9.462  0.0335 -0.1299  0.0156
  316loPI   C2A 5048   1.283   2.379   9.015  0.0937 -0.0105  0.0032
  316loPI   C3A 5049   1.183   2.384   8.519  0.0352  0.0418  0.4505
  316loPI   C4A 5050   1.036   2.333   8.102  0.3451 -0.0167  0.1347
  316loPI   C5A 5051   1.245   2.641   7.756 -0.0775  0.0738 -0.0573
  316loPI   C6A 5052   1.388   2.698   7.308  0.1352  0.3034  0.0749
  316loPI   C1B 5053   1.810   2.837   9.415 -0.2165  0.2067 -0.0100
  316loPI   C2B 5054   1.585   2.761   9.074 -0.0565  0.0034  0.1223
  316loPI   C3B 5055   1.472   2.752   8.714  0.0549 -0.0250  0.2059
  316loPI   C4B 5056   1.425   2.738   8.253 -0.0738 -0.0472  0.2781
  317loPI    C1 5057   5.567   3.547  10.693 -0.2914 -0.1513  0.0425
  317loPI    C2 5058   5.573   3.947  10.680  0.1404 -0.1576 -0.0842
  317loPI    C3 5059   5.698   3.755  11.008 -0.1309 -0.1896  0.0022
  317loPI   PO4 5060   5.635   3.535  10.398  0.1939 -0.2684  0.3253
  317loPI   GL1 5061   5.385   3.519  10.006 -0.2239  0.3526 -0.0794
  317loPI   GL2 5062   5.593   3.443   9.868  0.1976  0.1683  0.0158
  317loPI   C1A 5063   5.294   3.517   9.492  0.2517  0.0300  0.2939
  317loPI   C2A 5064   5.355   3.490   9.030  0.1849  0.2335  0.0752
  317loPI   C3A 5065   5.465   3.442   8.627  0.1415  0.2263  0.0617
  317loPI   C4A 5066   5.771   3.393   8.164  0.1270 -0.1483  0.1445
  317loPI   C5A 5067   6.090   3.578   7.985  0.2547 -0.1925  0.1267
  317loPI   C6A 5068   6.466   3.851   7.895  0.0606 -0.1278  0.1818
  317loPI   C1B 5069   5.747   3.256   9.408 -0.1530  0.1781  0.0548
  317loPI   C2B 5070   5.857   3.164   9.068  0.3223  0.0303 -0.2938
  317loPI   C3B 5071   5.728   3.022   8.540 -0.2009 -0.3296 -0.2944
  317loPI   C4B 5072   5.769   2.922   8.015  0.1402 -0.1402  0.0063
  318loPI    C1 5073   9.919  18.253  10.612  0.0668  0.0727 -0.1193
  318loPI    C2 5074  10.061  18.618  10.533 -0.2877  0.1440 -0.4533
  318loPI    C3 5075   9.797  18.566  10.829  0.1067  0.0779 -0.1041
  318loPI   PO4 5076   9.898  18.142  10.384 -0.0093 -0.2384  0.2599
  318loPI   GL1 5077   9.966  17.966   9.967  0.2762 -0.0534  0.2905
  318loPI   GL2 5078   9.943  17.585   9.805  0.2456  0.0240  0.1853
  318loPI   C1A 5079   9.987  18.209   9.607  0.0192  0.2460  0.3382
  318loPI   C2A 5080  10.059  18.307   9.155  0.0060 -0.1424 -0.0990
  318loPI   C3A 5081  10.059  18.359   8.670  0.0500 -0.0856 -0.2208
  318loPI   C4A 5082  10.077  18.408   8.263  0.1569  0.0620 -0.1614
  318loPI   C5A 5083  10.045  18.435   7.791  0.3694  0.0512  0.1539
  318loPI   C6A 5084  10.252  18.093   7.566  0.1196 -0.1337 -0.0792
  318loPI   C1B 5085   9.955  17.431   9.399 -0.0531  0.1780 -0.1076
  318loPI   C2B 5086   9.868  17.401   9.038 -0.0635 -0.2123 -0.1877
  318loPI   C3B 5087   9.930  17.368   8.677 -0.0562 -0.1280 -0.1062
  318loPI   C4B 5088  10.027  17.580   8.284  0.0183  0.3610 -0.1278
  319loPI    C1 5089  16.927   8.517  10.874  0.1330 -0.0357 -0.1598
  319loPI    C2 5090  17.015   8.188  11.084 -0.1120 -0.1158 -0.1798
  319loPI    C3 5091  17.110   8.548  11.228  0.1384 -0.1929 -0.1478
  319loPI   PO4 5092  16.702   8.418  10.762  0.0521  0.0556  0.2483
  319loPI   GL1 5093  16.388   8.483  10.521  0.1177 -0.1849  0.0529
  319loPI   GL2 5094  16.060   8.638  10.455  0.0367  0.0122  0.3460
  319loPI   C1A 5095  16.562   8.536  10.106 -0.1386  0.0517  0.0193
  319loPI   C2A 5096  16.473   8.478   9.761 -0.0718  0.1603 -0.1673
  319loPI   C3A 5097  16.632   8.396   9.374 -0.1328  0.0679 -0.1036
  319loPI   C4A 5098  16.688   8.312   8.978  0.0583  0.1901  0.1848
  319loPI   C5A 5099  16.709   8.290   8.626  0.0616  0.4758 -0.2039
  319loPI   C6A 5100  16.529   8.297   8.256 -0.0678 -0.4874  0.2018
  319loPI   C1B 5101  16.045   8.539  10.068 -0.0975  0.3671 -0.0013
  319loPI   C2B 5102  15.964   8.427   9.581 -0.2307 -0.0417  0.1035
  319loPI   C3B 5103  16.145   8.458   9.254 -0.0974  0.1558  0.3143
  319loPI   C4B 5104  16.188   8.369   8.821 -0.0141 -0.1317 -0.0610
  320loPI    C1 5105   8.411  18.157   9.950  0.0719 -0.0051  0.0872
  320loPI    C2 5106   8.762  18.263  10.109  0.1024 -0.0979  0.0823
  320loPI    C3 5107   8.750  18.001   9.807  0.0348 -0.0313  0.0269
  320loPI   PO4 5108   8.215  18.415   9.968  0.0031 -0.2048  0.0143
  320loPI   GL1 5109   8.333  18.616   9.600 -0.2071 -0.1765 -0.1238
  320loPI   GL2 5110   8.525  18.384   9.512  0.0790  0.2504 -0.3769
  320loPI   C1A 5111   8.577  19.032   9.370  0.2698  0.0457 -0.1449
  320loPI   C2A 5112   8.682  18.955   9.021 -0.3695 -0.1319 -0.1304
  320loPI   C3A 5113   8.713  18.906   8.650 -0.1196  0.1880  0.0095
  320loPI   C4A 5114   8.476  19.050   8.282  0.1732 -0.0952 -0.1702
  320loPI   C5A 5115   8.484  19.334   7.884 -0.0084 -0.0291  0.3770
  320loPI   C6A 5116   8.160  19.712   7.755 -0.0807  0.0474 -0.1669
  320loPI   C1B 5117   8.463  18.540   9.097  0.0013  0.1353  0.0752
  320loPI   C2B 5118   8.349  18.482   8.691 -0.0315  0.2924  0.0762
  320loPI   C3B 5119   8.276  18.327   8.323  0.0265  0.2433 -0.0664
  320loPI   C4B 5120   8.347  18.260   7.870 -0.0108  0.2601  0.1438
  321loPI    C1 5121  14.557  10.761  10.545 -0.1155 -0.1761  0.3378
  321loPI    C2 5122  14.278  10.488  10.458 -0.1833 -0.0598  0.1853
  321loPI    C3 5123  14.183  10.807  10.678 -0.2855  0.2066 -0.2330
  321loPI   PO4 5124  14.704  10.754  10.287  0.0604 -0.2411  0.4389
  321loPI   GL1 5125  14.817  10.980   9.903  0.1444 -0.5437  0.0912
  321loPI   GL2 5126  15.067  11.175   9.706 -0.1309  0.0560  0.1883
  321loPI   C1A 5127  14.814  10.689   9.619 -0.0165  0.2669  0.2640
  321loPI   C2A 5128  14.869  10.723   9.232  0.0619 -0.2414 -0.0576
  321loPI   C3A 5129  14.931  10.703   8.758 -0.1380  0.0119  0.0905
  321loPI   C4A 5130  15.030  10.725   8.311  0.0242  0.0907  0.1191
  321loPI   C5A 5131  15.199  10.439   7.952 -0.0032 -0.3103 -0.1738
  321loPI   C6A 5132  15.410  10.520   7.714 -0.0952 -0.0230  0.0212
  321loPI   C1B 5133  15.076  11.174   9.201 -0.4139  0.1246 -0.0304
  321loPI   C2B 5134  15.156  11.168   8.924  0.0122 -0.3015 -0.0535
  321loPI   C3B 5135  15.196  11.187   8.453 -0.2567 -0.1700 -0.0138
  321loPI   C4B 5136  15.287  11.089   8.066  0.0901 -0.2367 -0.2303
  322loPI    C1 5137  15.557   8.251  10.898  0.1037  0.1305 -0.1623
  322loPI    C2 5138  15.501   8.445  11.243 -0.1711  0.1173 -0.1971
  322loPI    C3 5139  15.435   8.051  11.222  0.3807  0.0132 -0.1275
  322loPI   PO4 5140  15.777   8.412  10.809 -0.0491 -0.0244  0.1002
  322loPI   GL1 5141  15.891   8.157  10.429 -0.1217 -0.0246  0.0272
  322loPI   GL2 5142  16.109   8.018  10.294  0.4285 -0.2947  0.1637
  322loPI   C1A 5143  15.746   8.120  10.018  0.0508 -0.1701  0.1267
  322loPI   C2A 5144  15.767   7.999   9.618  0.2064  0.0143  0.0361
  322loPI   C3A 5145  15.926   8.036   9.195 -0.0333 -0.3283 -0.2273
  322loPI   C4A 5146  15.816   7.942   8.743  0.0243  0.0523 -0.0211
  322loPI   C5A 5147  15.706   7.732   8.423 -0.3715 -0.0908  0.1739
  322loPI   C6A 5148  15.319   7.451   8.301 -0.4662 -0.0987 -0.0199
  322loPI   C1B 5149  16.221   8.097   9.898  0.2252 -0.4578 -0.0890
  322loPI   C2B 5150  16.255   8.015   9.557 -0.1650 -0.0691 -0.1650
  322loPI   C3B 5151  16.370   7.897   9.089  0.0852 -0.2610  0.2931
  322loPI   C4B 5152  16.367   7.922   8.700 -0.0470 -0.1456 -0.0114
  323loPI    C1 5153  14.647   6.348  11.070 -0.1388  0.0992  0.1136
  323loPI    C2 5154  14.931   6.081  11.160 -0.1079  0.0222 -0.2005
  323loPI    C3 5155  14.705   6.238  11.450  0.1881  0.0104  0.0413
  323loPI   PO4 5156  14.539   6.213  10.856  0.1434 -0.2384  0.0154
  323loPI   GL1 5157  14.625   6.267  10.511  0.2335 -0.1347 -0.3320
  323loPI   GL2 5158  14.784   6.495  10.593 -0.3355 -0.2165  0.1556
  323loPI   C1A 5159  14.632   6.101  10.087 -0.1059  0.0237 -0.0342
  323loPI   C2A 5160  14.635   6.166   9.725  0.1402  0.1133  0.0712
  323loPI   C3A 5161  14.784   6.142   9.308 -0.1599  0.0475 -0.0787
  323loPI   C4A 5162  14.757   6.169   8.852 -0.2692  0.0345 -0.3027
  323loPI   C5A 5163  14.750   6.315   8.506 -0.1089 -0.1986  0.1773
  323loPI   C6A 5164  14.558   6.683   8.192 -0.1180  0.2339 -0.2816
  323loPI   C1B 5165  14.859   6.657  10.225  0.2691  0.1768  0.1740
  323loPI   C2B 5166  14.900   6.561   9.807  0.0731 -0.1045  0.2356
  323loPI   C3B 5167  14.949   6.558   9.424  0.1125 -0.1684 -0.1104
  323loPI   C4B 5168  15.029   6.588   9.057  0.1245  0.2307  0.3458
  324loPI    C1 5169   7.020  13.197  10.376  0.0522 -0.0174  0.0889
  324loPI    C2 5170   6.641  13.181  10.250  0.0714 -0.1185  0.0430
  324loPI    C3 5171   6.781  12.901  10.498  0.1454 -0.1396 -0.0222
  324loPI   PO4 5172   7.105  13.345  10.154 -0.0205  0.1500  0.0598
  324loPI   GL1 5173   6.873  13.355   9.818  0.1051  0.4016 -0.3425
  324loPI   GL2 5174   6.903  13.091   9.676 -0.3402 -0.2401 -0.0894
  324loPI   C1A 5175   7.015  13.579   9.431 -0.1527 -0.0056 -0.1542
  324loPI   C2A 5176   7.272  13.533   9.011  0.0357  0.2313 -0.0117
  324loPI   C3A 5177   7.250  13.696   8.662 -0.1259 -0.0030 -0.3160
  324loPI   C4A 5178   7.144  13.731   8.201  0.1820  0.1397  0.3332
  324loPI   C5A 5179   7.050  13.843   7.785 -0.4695  0.3096 -0.1628
  324loPI   C6A 5180   6.733  13.949   7.481 -0.2237 -0.1850 -0.0096
  324loPI   C1B 5181   6.680  12.898   9.381 -0.1548  0.1885  0.0129
  324loPI   C2B 5182   6.525  12.886   8.916 -0.3563 -0.3687 -0.1772
  324loPI   C3B 5183   6.400  13.072   8.443 -0.1586  0.2442 -0.2833
  324loPI   C4B 5184   6.456  13.130   8.102  0.0272  0.0446  0.0162
  325loPI    C1 5185   3.973  14.380  10.453 -0.1168  0.1415  0.0878
  325loPI    C2 5186   3.669  14.130  10.524 -0.1603  0.2321  0.2236
  325loPI    C3 5187   3.877  14.284  10.829  0.2282 -0.0800  0.1240
  325loPI   PO4 5188   3.817  14.595  10.276  0.0953  0.0601 -0.2702
  325loPI   GL1 5189   3.674  14.698   9.885  0.0273  0.1609 -0.1879
  325loPI   GL2 5190   4.001  14.733   9.834  0.1737 -0.1281  0.1397
  325loPI   C1A 5191   3.532  14.822   9.503  0.0493 -0.0311  0.0460
  325loPI   C2A 5192   3.497  14.727   9.095  0.0653  0.1605  0.2327
  325loPI   C3A 5193   3.615  14.621   8.725  0.0409  0.1295  0.1670
  325loPI   C4A 5194   3.445  14.556   8.300  0.0684 -0.0592 -0.0892
  325loPI   C5A 5195   3.503  14.431   7.823  0.0430 -0.3628 -0.2126
  325loPI   C6A 5196   3.849  14.361   7.555  0.0343 -0.1118  0.2388
  325loPI   C1B 5197   4.019  14.719   9.446  0.4144  0.2167 -0.1662
  325loPI   C2B 5198   4.082  14.695   8.966  0.0754  0.1043 -0.0303
  325loPI   C3B 5199   4.075  14.557   8.484 -0.1018  0.3249 -0.2623
  325loPI   C4B 5200   4.006  14.415   8.045  0.1522 -0.0248 -0.0558
  326loPI    C1 5201   0.669   7.336  10.894  0.0476  0.0091  0.1360
  326loPI    C2 5202   0.397   7.182  11.145 -0.1451 -0.0748 -0.1203
  326loPI    C3 5203   0.397   7.574  11.066  0.0967  0.0002  0.2270
  326loPI   PO4 5204   0.740   7.150  10.686  0.3601 -0.1012 -0.3025
  326loPI   GL1 5205   0.811   7.413  10.379 -0.0411 -0.1813  0.1642
  326loPI   GL2 5206   1.141   7.216  10.268  0.1245 -0.1008 -0.1542
  326loPI   C1A 5207   0.718   7.390  10.003  0.0723  0.2714  0.0669
  326loPI   C2A 5208   0.728   7.330   9.552  0.0744 -0.2009  0.1023
  326loPI   C3A 5209   0.838   7.343   9.162  0.1111  0.2802  0.0709
  326loPI   C4A 5210   0.740   7.503   8.763  0.0897  0.1152 -0.5117
  326loPI   C5A 5211   0.646   7.553   8.285 -0.2443 -0.1597  0.0793
  326loPI   C6A 5212   0.283   7.619   7.998  0.0065 -0.2371  0.1059
  326loPI   C1B 5213   1.301   7.388   9.868  0.0855  0.0181  0.0056
  326loPI   C2B 5214   1.336   7.367   9.404  0.1192  0.2052 -0.2429
  326loPI   C3B 5215   1.278   7.426   8.938  0.3096 -0.1632  0.0692
  326loPI   C4B 5216   1.143   7.384   8.507  0.1777 -0.1619 -0.1118
  327loPI    C1 5217  10.822   0.123  10.431 -0.2004  0.0688  0.0768
  327loPI    C2 5218  11.068   0.159  10.744  0.0135 -0.1302 -0.0650
  327loPI    C3 5219  10.890  -0.191  10.668  0.0075 -0.0990 -0.1983
  327loPI   PO4 5220  10.964   0.195  10.212 -0.1426  0.0861 -0.3296
  327loPI   GL1 5221  10.909   0.045   9.832  0.0438 -0.1526 -0.1508
  327loPI   GL2 5222  10.556  -0.081   9.897 -0.3095  0.0723  0.3232
  327loPI   C1A 5223  10.913  -0.116   9.479 -0.1526  0.3928  0.0220
  327loPI   C2A 5224  10.974   0.001   9.096 -0.0897 -0.1830 -0.0505
  327loPI   C3A 5225  11.030   0.067   8.668 -0.1343 -0.2772 -0.0590
  327loPI   C4A 5226  11.127   0.156   8.251  0.4327  0.1732  0.0028
  327loPI   C5A 5227  11.314   0.181   7.878 -0.3730  0.2821  0.1500
  327loPI   C6A 5228  11.733   0.171   7.530 -0.1150 -0.0717 -0.2746
  327loPI   C1B 5229  10.441  -0.129   9.470 -0.0225 -0.1299  0.0402
  327loPI   C2B 5230  10.516  -0.107   8.979 -0.1782 -0.0508 -0.2109
  327loPI   C3B 5231  10.492  -0.087   8.509  0.0066 -0.3093  0.0392
  327loPI   C4B 5232  10.604   0.174   8.168 -0.0649  0.1315  0.2632
  328loPI    C1 5233   6.951  17.401  10.783  0.2227  0.1706  0.2474
  328loPI    C2 5234   7.233  17.118  10.805  0.0069 -0.0532  0.1794
  328loPI    C3 5235   6.900  17.085  11.023 -0.2150 -0.0778 -0.1559
  328loPI   PO4 5236   6.900  17.476  10.531 -0.2612  0.4137  0.0231
  328loPI   GL1 5237   7.077  17.742  10.168 -0.0480  0.0820  0.0990
  328loPI   GL2 5238   7.158  17.483  10.017 -0.1057  0.0336 -0.2841
  328loPI   C1A 5239   7.155  17.862   9.678 -0.0762  0.1483 -0.1412
  328loPI   C2A 5240   7.003  18.025   9.275  0.1323  0.2288  0.3717
  328loPI   C3A 5241   7.068  17.872   8.844  0.1766  0.1563  0.2883
  328loPI   C4A 5242   7.054  17.842   8.476  0.0198 -0.1955  0.0539
  328loPI   C5A 5243   7.049  18.001   8.019 -0.0147 -0.1320 -0.3225
  328loPI   C6A 5244   7.053  18.050   7.577  0.1459  0.3273 -0.2484
  328loPI   C1B 5245   7.176  17.412   9.634 -0.2011  0.3451 -0.1129
  328loPI   C2B 5246   7.207  17.513   9.123 -0.2412 -0.4081  0.2236
  328loPI   C3B 5247   7.059  17.404   8.776 -0.2639 -0.0678 -0.0103
  328loPI   C4B 5248   7.098  17.071   8.573  0.0794 -0.2610 -0.0576
  329loPI    C1 5249   9.133  15.781  10.300 -0.0006 -0.0419  0.1649
  329loPI    C2 5250   9.374  15.504  10.460 -0.1921 -0.2443  0.1072
  329loPI    C3 5251   9.296  15.841  10.660  0.1676 -0.1594  0.1099
  329loPI   PO4 5252   9.126  15.736  10.051 -0.0898  0.0938  0.1683
  329loPI   GL1 5253   9.144  15.546   9.631  0.0799  0.0346  0.0290
  329loPI   GL2 5254   9.273  15.259   9.527 -0.2137 -0.4505  0.2823
  329loPI   C1A 5255   9.407  15.555   9.172  0.0391 -0.1241  0.0637
  329loPI   C2A 5256   9.361  15.676   8.736 -0.4086  0.0730  0.1615
  329loPI   C3A 5257   9.389  15.681   8.281  0.1181 -0.0197 -0.0031
  329loPI   C4A 5258   9.446  15.885   7.899  0.0959  0.3462 -0.1249
  329loPI   C5A 5259   9.515  16.143   7.508 -0.1246 -0.0287 -0.2011
  329loPI   C6A 5260   9.116  16.292   7.373 -0.0140 -0.3721 -0.2405
  329loPI   C1B 5261   9.071  15.234   9.172 -0.2378 -0.0880  0.1728
  329loPI   C2B 5262   9.068  15.139   8.713  0.1104 -0.2328  0.0887
  329loPI   C3B 5263   9.168  14.985   8.282  0.1877  0.0030  0.0785
  329loPI   C4B 5264   9.306  14.808   7.869 -0.0197  0.2268 -0.1464
  330loPI    C1 5265   8.698   3.075   9.778  0.0123  0.0270 -0.2841
  330loPI    C2 5266   8.795   2.689   9.737  0.0539  0.0038  0.0091
  330loPI    C3 5267   8.648   2.822  10.084 -0.1988  0.2033 -0.1702
  330loPI   PO4 5268   8.592   3.165   9.632 -0.3416 -0.0324  0.2054
  330loPI   GL1 5269   8.580   3.088   9.227  0.0127  0.1028 -0.1341
  330loPI   GL2 5270   8.494   2.781   9.249 -0.3176 -0.0174 -0.2090
  330loPI   C1A 5271   8.327   3.384   9.016 -0.1134  0.2190  0.0931
  330loPI   C2A 5272   8.220   3.694   8.687 -0.0137  0.1853  0.3352
  330loPI   C3A 5273   8.247   3.659   8.269 -0.0745  0.0563  0.0006
  330loPI   C4A 5274   8.231   3.848   7.787 -0.3982  0.0608 -0.1555
  330loPI   C5A 5275   7.957   4.094   7.364 -0.2043  0.2027  0.0397
  330loPI   C6A 5276   7.820   4.415   7.371 -0.1342  0.1868  0.0601
  330loPI   C1B 5277   8.627   2.426   8.943 -0.4236  0.0404 -0.2336
  330loPI   C2B 5278   8.924   2.387   8.668  0.0517  0.3271  0.0587
  330loPI   C3B 5279   9.049   2.541   8.184 -0.0439  0.1805  0.0489
  330loPI   C4B 5280   9.185   2.836   7.983 -0.0402 -0.2003 -0.3027
  331loPI    C1 5281   2.607   4.029  10.718  0.1721  0.1085 -0.0352
  331loPI    C2 5282   2.510   4.050  11.105 -0.4267  0.2185 -0.1804
  331loPI    C3 5283   2.868   3.908  10.995 -0.3132  0.0288  0.4007
  331loPI   PO4 5284   2.392   4.131  10.570 -0.1740  0.0090 -0.1979
  331loPI   GL1 5285   2.519   4.250  10.140 -0.1009 -0.3379 -0.0173
  331loPI   GL2 5286   2.415   4.564   9.960 -0.0873 -0.3221 -0.0347
  331loPI   C1A 5287   2.646   4.211   9.689  0.1525 -0.3221  0.0348
  331loPI   C2A 5288   2.479   4.173   9.127 -0.3322  0.2901  0.1030
  331loPI   C3A 5289   2.428   4.111   8.714 -0.3064 -0.1243  0.1791
  331loPI   C4A 5290   2.287   4.051   8.297  0.0740 -0.2334 -0.1746
  331loPI   C5A 5291   1.823   4.104   8.225  0.3020 -0.0785 -0.0358
  331loPI   C6A 5292   1.593   4.430   8.283 -0.0298 -0.0379  0.1554
  331loPI   C1B 5293   2.348   4.654   9.619  0.3921 -0.0820 -0.0330
  331loPI   C2B 5294   2.244   4.640   9.193 -0.1335  0.0963 -0.1388
  331loPI   C3B 5295   2.154   4.504   8.832 -0.0895  0.0398 -0.1006
  331loPI   C4B 5296   2.124   4.511   8.425  0.1143 -0.1157  0.3817
  332loPI    C1 5297  10.370   5.764  10.586 -0.2510 -0.3338  0.1063
  332loPI    C2 5298  10.130   5.739  10.905 -0.1456  0.0888  0.2256
  332loPI    C3 5299  10.511   5.621  10.932 -0.1324  0.1392  0.2614
  332loPI   PO4 5300  10.214   5.730  10.329  0.1450  0.4267 -0.0353
  332loPI   GL1 5301  10.160   5.983   9.972  0.0196  0.2010 -0.0837
  332loPI   GL2 5302  10.348   6.314   9.969 -0.0765 -0.4542 -0.1865
  332loPI   C1A 5303   9.968   6.227   9.580  0.0852 -0.1734 -0.0519
  332loPI   C2A 5304   9.927   6.249   9.212  0.0673 -0.1581 -0.1376
  332loPI   C3A 5305  10.036   6.328   8.753 -0.1030  0.1467  0.2117
  332loPI   C4A 5306  10.052   6.364   8.342  0.1172 -0.6677 -0.1890
  332loPI   C5A 5307  10.226   6.407   7.980  0.2433  0.0817 -0.0481
  332loPI   C6A 5308  10.561   6.248   7.754 -0.0226  0.1044  0.0638
  332loPI   C1B 5309  10.500   6.298   9.531 -0.0404 -0.4581 -0.0481
  332loPI   C2B 5310  10.438   6.280   9.091 -0.5735  0.2627 -0.1216
  332loPI   C3B 5311  10.501   6.367   8.671  0.1287  0.0380  0.0178
  332loPI   C4B 5312  10.621   6.335   8.274  0.2806  0.4127 -0.0580
  333loPI    C1 5313   9.630   2.406  10.305  0.0019 -0.2187 -0.0718
  333loPI    C2 5314   9.533   2.124  10.572 -0.4057  0.2556  0.3036
  333loPI    C3 5315   9.641   2.488  10.697 -0.0455  0.3234 -0.1762
  333loPI   PO4 5316   9.830   2.361  10.142 -0.1396  0.3192  0.1499
  333loPI   GL1 5317   9.844   2.464   9.635  0.0443  0.0403 -0.0462
  333loPI   GL2 5318  10.053   2.710   9.688  0.2267  0.2904  0.0929
  333loPI   C1A 5319   9.750   2.343   9.203  0.0440 -0.1951 -0.1130
  333loPI   C2A 5320   9.888   2.258   8.719 -0.0295 -0.1217  0.0816
  333loPI   C3A 5321   9.825   2.014   8.403 -0.1696  0.3262  0.1705
  333loPI   C4A 5322   9.946   1.696   8.068 -0.0961 -0.2821 -0.1753
  333loPI   C5A 5323  10.060   1.380   7.762 -0.2232 -0.1302  0.3937
  333loPI   C6A 5324  10.357   1.021   7.666  0.1992  0.0183 -0.4681
  333loPI   C1B 5325   9.893   2.850   9.290  0.0757 -0.2046  0.0352
  333loPI   C2B 5326   9.796   2.868   8.942  0.0272 -0.1786 -0.0973
  333loPI   C3B 5327   9.817   2.714   8.488  0.0370 -0.0584 -0.1601
  333loPI   C4B 5328   9.674   2.802   8.153  0.0370  0.1867 -0.2617
  334loPI    C1 5329   0.505  10.121  10.825 -0.0252  0.1324  0.3642
  334loPI    C2 5330   0.151   9.966  10.721 -0.0151  0.1304  0.3327
  334loPI    C3 5331   0.167  10.277  10.972 -0.0493  0.2528  0.1842
  334loPI   PO4 5332   0.644   9.942  10.752 -0.3007 -0.1645  0.0841
  334loPI   GL1 5333   0.873   9.638  10.483 -0.4076 -0.1967  0.1279
  334loPI   GL2 5334   0.545   9.602  10.437  0.2406  0.0407  0.0127
  334loPI   C1A 5335   1.051   9.731  10.025 -0.2425  0.1145 -0.1191
  334loPI   C2A 5336   0.878   9.693   9.659 -0.0706  0.0747  0.0603
  334loPI   C3A 5337   1.027   9.599   9.289  0.0007 -0.1165  0.0995
  334loPI   C4A 5338   0.996   9.725   8.979  0.1371 -0.0107 -0.0315
  334loPI   C5A 5339   0.912   9.811   8.557 -0.0056 -0.2960  0.1482
  334loPI   C6A 5340   0.513   9.918   8.169 -0.0476  0.1930  0.1206
  334loPI   C1B 5341   0.498   9.748   9.963 -0.0007  0.2511 -0.1616
  334loPI   C2B 5342   0.416   9.716   9.499 -0.0901 -0.0001 -0.0146
  334loPI   C3B 5343   0.534   9.733   9.172  0.3223  0.0668  0.1085
  334loPI   C4B 5344   0.404   9.725   8.767  0.1801 -0.3069  0.0691
  335loPI    C1 5345  13.746  11.382  10.581  0.1167 -0.2306  0.0725
  335loPI    C2 5346  13.554  11.462  10.923  0.0460 -0.0741 -0.0029
  335loPI    C3 5347  13.834  11.714  10.786  0.0812 -0.1412 -0.0553
  335loPI   PO4 5348  13.581  11.375  10.381 -0.4716  0.0536 -0.2803
  335loPI   GL1 5349  13.649  11.246   9.975 -0.0179  0.0513 -0.1851
  335loPI   GL2 5350  13.473  11.268   9.766  0.0621  0.1514 -0.1794
  335loPI   C1A 5351  13.965  11.290   9.734  0.0167  0.2302 -0.2044
  335loPI   C2A 5352  14.056  11.132   9.351  0.0216  0.0026  0.2869
  335loPI   C3A 5353  14.109  11.177   8.965  0.0383 -0.5119 -0.0982
  335loPI   C4A 5354  14.177  11.059   8.586 -0.0048 -0.0561 -0.2086
  335loPI   C5A 5355  14.158  10.997   8.195  0.1839  0.0784 -0.0666
  335loPI   C6A 5356  14.160  11.148   7.865  0.0779  0.1601  0.1638
  335loPI   C1B 5357  13.539  11.141   9.279  0.1713 -0.1345  0.4022
  335loPI   C2B 5358  13.645  11.140   8.801  0.2328 -0.0523 -0.1908
  335loPI   C3B 5359  13.594  11.277   8.443 -0.2831 -0.1973 -0.0262
  335loPI   C4B 5360  13.697  11.038   8.077  0.2730 -0.2192 -0.1732
  336loPI    C1 5361  16.353   7.606  10.848 -0.0500  0.1153 -0.1383
  336loPI    C2 5362  16.716   7.463  10.761 -0.0035  0.0651  0.1296
  336loPI    C3 5363  16.567   7.420  11.130 -0.2363  0.1842  0.0516
  336loPI   PO4 5364  16.231   7.534  10.687  0.0870 -0.1322 -0.2755
  336loPI   GL1 5365  15.914   7.529  10.370  0.1676 -0.2937  0.1050
  336loPI   GL2 5366  15.556   7.424  10.424 -0.3159  0.0072 -0.2000
  336loPI   C1A 5367  16.011   7.648   9.959 -0.2968 -0.0444 -0.4424
  336loPI   C2A 5368  16.003   7.606   9.421 -0.2271  0.2809  0.0454
  336loPI   C3A 5369  16.001   7.420   9.039  0.0911 -0.0607 -0.6136
  336loPI   C4A 5370  16.093   7.447   8.582 -0.0565  0.1454  0.0969
  336loPI   C5A 5371  15.867   7.263   8.343  0.3089 -0.0190 -0.0474
  336loPI   C6A 5372  15.396   6.986   8.490 -0.2224 -0.1303  0.0246
  336loPI   C1B 5373  15.475   7.506   9.997 -0.3194 -0.0656 -0.0943
  336loPI   C2B 5374  15.471   7.565   9.610  0.0221 -0.2369 -0.0413
  336loPI   C3B 5375  15.579   7.620   9.187 -0.1185 -0.2113  0.1793
  336loPI   C4B 5376  15.585   7.355   8.753 -0.2911 -0.0621  0.0479
  337loPI    C1 5377   4.607  15.072  10.546 -0.0091 -0.1308 -0.3159
  337loPI    C2 5378   4.744  15.344  10.805  0.0316 -0.1410 -0.3267
  337loPI    C3 5379   4.944  15.003  10.748 -0.2017 -0.3279 -0.0550
  337loPI   PO4 5380   4.523  15.162  10.336  0.1295 -0.0381  0.0454
  337loPI   GL1 5381   4.519  15.439   9.991 -0.0257  0.3501  0.0797
  337loPI   GL2 5382   4.368  15.204   9.809 -0.1202  0.0656  0.0010
  337loPI   C1A 5383   4.573  15.554   9.592 -0.0058 -0.0017 -0.1279
  337loPI   C2A 5384   4.667  15.457   9.158 -0.1505 -0.0726 -0.0586
  337loPI   C3A 5385   4.744  15.588   8.778 -0.1248 -0.0908 -0.0417
  337loPI   C4A 5386   4.515  15.479   8.455 -0.2529 -0.1163  0.0156
  337loPI   C5A 5387   4.353  15.517   8.037 -0.4207  0.1398  0.0609
  337loPI   C6A 5388   4.017  15.708   7.785  0.0914  0.1256  0.2161
  337loPI   C1B 5389   4.319  15.136   9.354  0.0569  0.0676 -0.2096
  337loPI   C2B 5390   4.301  15.119   8.892  0.1107  0.1401 -0.1926
  337loPI   C3B 5391   4.304  14.977   8.484 -0.2029 -0.1031  0.2206
  337loPI   C4B 5392   4.253  14.890   8.111 -0.1168 -0.4193  0.1542
  338loPI    C1 5393   9.437   4.292  10.120 -0.0998  0.0603  0.1783
  338loPI    C2 5394   9.135   4.382  10.366 -0.1779 -0.2253  0.1905
  338loPI    C3 5395   9.336   4.038  10.412 -0.1151 -0.2255 -0.0697
  338loPI   PO4 5396   9.557   4.514  10.034 -0.2476 -0.0823 -0.1560
  338loPI   GL1 5397   9.426   4.684   9.761 -0.0657 -0.1257 -0.3426
  338loPI   GL2 5398   9.475   4.944   9.509  0.1438 -0.1604  0.1392
  338loPI   C1A 5399   9.160   4.608   9.384 -0.2940 -0.0170  0.1701
  338loPI   C2A 5400   8.942   4.492   8.998 -0.0333 -0.0204 -0.1069
  338loPI   C3A 5401   8.505   4.496   8.736  0.0020  0.0948 -0.0770
  338loPI   C4A 5402   8.256   4.641   8.335  0.0514  0.0577  0.0881
  338loPI   C5A 5403   8.217   5.016   8.083  0.0554 -0.1252 -0.0426
  338loPI   C6A 5404   8.468   5.345   7.889 -0.0317 -0.2460  0.0374
  338loPI   C1B 5405   9.301   4.988   9.126  0.2378 -0.0390 -0.1045
  338loPI   C2B 5406   9.386   4.999   8.700  0.2123 -0.0157 -0.0335
  338loPI   C3B 5407   9.414   4.905   8.223 -0.0296  0.0105  0.3356
  338loPI   C4B 5408   9.612   4.574   7.933 -0.1198  0.0019  0.0884
  339loPI    C1 5409   7.160   3.483   9.983 -0.2184  0.1088  0.0049
  339loPI    C2 5410   7.370   3.155  10.075 -0.3646  0.0707  0.2074
  339loPI    C3 5411   7.438   3.498  10.270 -0.3911  0.0949  0.1742
  339loPI   PO4 5412   7.099   3.536   9.736  0.3267 -0.1525 -0.0506
  339loPI   GL1 5413   7.050   3.985   9.459 -0.3449 -0.0715  0.0100
  339loPI   GL2 5414   7.347   3.812   9.386 -0.0133  0.0635  0.1249
  339loPI   C1A 5415   6.934   4.102   9.053  0.0220 -0.0735  0.0990
  339loPI   C2A 5416   6.697   4.073   8.730 -0.2796  0.0438  0.0012
  339loPI   C3A 5417   6.661   4.281   8.253 -0.0020 -0.3657 -0.0321
  339loPI   C4A 5418   6.896   4.319   7.838  0.0573  0.1868 -0.0042
  339loPI   C5A 5419   7.272   3.976   7.871 -0.1502  0.2343 -0.2772
  339loPI   C6A 5420   7.630   3.940   7.781  0.0453 -0.0584  0.0330
  339loPI   C1B 5421   7.270   3.686   9.009 -0.0174  0.0479 -0.2835
  339loPI   C2B 5422   7.239   3.744   8.640  0.0841  0.0684  0.2471
  339loPI   C3B 5423   6.928   3.779   8.269 -0.2759  0.1596 -0.0677
  339loPI   C4B 5424   6.792   3.486   8.018 -0.0117 -0.0663 -0.3412
  340loPI    C1 5425  16.252   1.351  11.098  0.1045  0.0810 -0.1074
  340loPI    C2 5426  16.320   0.999  11.277 -0.1245  0.1073  0.0356
  340loPI    C3 5427  16.554   1.314  11.357  0.2363 -0.0719 -0.2795
  340loPI   PO4 5428  16.188   1.288  10.822  0.1847  0.0850 -0.2155
  340loPI   GL1 5429  15.974   1.275  10.496 -0.1505  0.1677  0.2038
  340loPI   GL2 5430  16.110   1.075  10.321 -0.0142  0.3060 -0.0059
  340loPI   C1A 5431  15.826   1.472  10.017 -0.0803  0.1859 -0.4263
  340loPI   C2A 5432  15.954   1.494   9.615  0.4012 -0.2088 -0.0895
  340loPI   C3A 5433  16.069   1.626   9.289  0.1330  0.2018 -0.0029
  340loPI   C4A 5434  16.030   1.583   8.869 -0.2636  0.1584 -0.1013
  340loPI   C5A 5435  15.956   1.692   8.480 -0.0292 -0.1214  0.1666
  340loPI   C6A 5436  15.969   1.854   8.038  0.4987 -0.1521 -0.2121
  340loPI   C1B 5437  16.173   1.084   9.872  0.1154 -0.3676  0.4132
  340loPI   C2B 5438  16.242   1.158   9.398 -0.2267  0.2783 -0.1800
  340loPI   C3B 5439  16.299   1.178   8.983  0.0704  0.1745 -0.0042
  340loPI   C4B 5440  16.223   1.182   8.536  0.2055 -0.0047  0.0825
  341loPI    C1 5441   1.891  15.834  10.704 -0.1771 -0.0683 -0.1678
  341loPI    C2 5442   1.540  15.709  10.561 -0.2014 -0.1264 -0.0587
  341loPI    C3 5443   1.654  15.603  10.929 -0.1956  0.1237  0.0127
  341loPI   PO4 5444   2.089  15.839  10.401  0.3357  0.1211 -0.2711
  341loPI   GL1 5445   2.002  15.749   9.924  0.0734 -0.3790  0.1707
  341loPI   GL2 5446   2.299  15.765   9.925 -0.2396  0.0669  0.0238
  341loPI   C1A 5447   1.932  15.640   9.511 -0.3939 -0.2120 -0.1290
  341loPI   C2A 5448   1.923  15.676   9.038 -0.2330  0.1183 -0.0517
  341loPI   C3A 5449   1.919  15.713   8.615 -0.2469 -0.1041  0.0869
  341loPI   C4A 5450   2.162  15.679   8.256 -0.2812 -0.2724  0.2622
  341loPI   C5A 5451   2.385  15.645   7.905  0.2115  0.1989  0.2334
  341loPI   C6A 5452   2.707  15.944   7.612  0.5951 -0.2840  0.2014
  341loPI   C1B 5453   2.458  15.651   9.517 -0.2333  0.2731  0.1785
  341loPI   C2B 5454   2.452  15.712   9.131 -0.1423 -0.0556  0.2688
  341loPI   C3B 5455   2.507  15.665   8.704 -0.2898 -0.2360 -0.0543
  341loPI   C4B 5456   2.724  15.547   8.296 -0.0218 -0.0019  0.2055
  342loPI    C1 5457   5.151   0.186  10.805 -0.0967 -0.0066 -0.1811
  342loPI    C2 5458   5.550   0.164  10.823 -0.0887  0.0295 -0.3039
  342loPI    C3 5459   5.329   0.050  11.137  0.0183  0.0189 -0.2317
  342loPI   PO4 5460   5.065   0.004  10.483  0.1877 -0.2929 -0.2252
  342loPI   GL1 5461   5.157  -0.199  10.145  0.1849  0.1084  0.0436
  342loPI   GL2 5462   5.145   0.013   9.958 -0.2247 -0.2191  0.1911
  342loPI   C1A 5463   5.437  -0.340   9.758  0.2014 -0.0503  0.1256
  342loPI   C2A 5464   5.614  -0.495   9.405  0.0472  0.2089 -0.1421
  342loPI   C3A 5465   5.727  -0.580   8.947 -0.0177 -0.1045 -0.2279
  342loPI   C4A 5466   5.575  -0.569   8.528  0.2482  0.2688  0.3332
  342loPI   C5A 5467   5.687  -0.627   8.116 -0.1769 -0.1722  0.0061
  342loPI   C6A 5468   5.619  -1.041   7.885 -0.0067 -0.1452  0.0368
  342loPI   C1B 5469   4.924  -0.230   9.691  0.0706 -0.1785  0.1277
  342loPI   C2B 5470   5.035  -0.390   9.274  0.1186 -0.2526 -0.0993
  342loPI   C3B 5471   5.194  -0.368   8.891  0.0944  0.3298 -0.2273
  342loPI   C4B 5472   5.011  -0.245   8.592  0.1074  0.1410 -0.2556
  343loPI    C1 5473  15.404   1.518  10.864 -0.0582  0.1229  0.0032
  343loPI    C2 5474  15.435   1.242  11.151 -0.2713 -0.0204 -0.1091
  343loPI    C3 5475  15.748   1.473  11.062 -0.1581 -0.0770  0.1347
  343loPI   PO4 5476  15.303   1.361  10.712 -0.0241  0.0302 -0.3537
  343loPI   GL1 5477  15.399   1.314  10.380 -0.2019 -0.0466 -0.1247
  343loPI   GL2 5478  15.432   0.990  10.190 -0.0130 -0.1808  0.3137
  343loPI   C1A 5479  15.317   1.458   9.955  0.1165 -0.6112 -0.0275
  343loPI   C2A 5480  15.418   1.534   9.521 -0.1118 -0.0170  0.2454
  343loPI   C3A 5481  15.569   1.622   9.129 -0.1917  0.0151  0.0568
  343loPI   C4A 5482  15.474   1.639   8.734 -0.0048 -0.2289  0.1077
  343loPI   C5A 5483  15.403   1.536   8.329  0.1108  0.1017 -0.0275
  343loPI   C6A 5484  15.498   1.824   8.136 -0.1762  0.2247 -0.1057
  343loPI   C1B 5485  15.594   1.079   9.760 -0.0268 -0.0138 -0.2374
  343loPI   C2B 5486  15.702   1.092   9.282 -0.0621 -0.2000 -0.2966
  343loPI   C3B 5487  15.788   1.186   8.872 -0.0083 -0.0263  0.2432
  343loPI   C4B 5488  15.763   1.223   8.387  0.1328 -0.1501 -0.0807
  344loPI    C1 5489   1.635   1.656  10.426 -0.1255  0.0796 -0.0991
  344loPI    C2 5490   1.964   1.543  10.624 -0.3026 -0.1170  0.0880
  344loPI    C3 5491   1.770   1.876  10.731 -0.0939  0.0703 -0.1064
  344loPI   PO4 5492   1.630   1.599  10.201 -0.2088 -0.0399 -0.1698
  344loPI   GL1 5493   1.717   1.429   9.911  0.0760 -0.0264  0.1127
  344loPI   GL2 5494   1.511   1.109  10.062 -0.1429 -0.0505  0.1882
  344loPI   C1A 5495   1.864   1.541   9.557  0.1009  0.0442 -0.1486
  344loPI   C2A 5496   1.813   1.474   9.127  0.1397 -0.0579  0.2284
  344loPI   C3A 5497   1.752   1.520   8.701  0.0710  0.1283 -0.3111
  344loPI   C4A 5498   1.696   1.451   8.363 -0.0347  0.2336 -0.3945
  344loPI   C5A 5499   1.501   1.388   7.963  0.1303  0.4587  0.1919
  344loPI   C6A 5500   1.107   1.325   7.829 -0.0096 -0.1432  0.1905
  344loPI   C1B 5501   1.395   1.229   9.656 -0.1046  0.0664  0.2283
  344loPI   C2B 5502   1.267   1.437   9.241 -0.1577 -0.2555 -0.1702
  344loPI   C3B 5503   1.188   1.485   8.788 -0.0822 -0.2437 -0.0271
  344loPI   C4B 5504   1.125   1.453   8.358 -0.1445 -0.0887  0.0701
  345loPI    C1 5505  15.903  14.070  10.719  0.0864 -0.0535 -0.0263
  345loPI    C2 5506  15.673  14.395  10.758  0.1247 -0.0279 -0.0123
  345loPI    C3 5507  15.853  14.238  11.079  0.2622  0.0520 -0.0499
  345loPI   PO4 5508  15.857  13.991  10.459  0.3536 -0.0617  0.2171
  345loPI   GL1 5509  15.790  14.000  10.054  0.0107 -0.0028  0.1182
  345loPI   GL2 5510  15.597  14.225   9.820  0.1326 -0.0964 -0.1513
  345loPI   C1A 5511  15.982  13.813   9.679 -0.0756 -0.1610  0.0012
  345loPI   C2A 5512  16.162  13.953   9.320 -0.1866 -0.4702  0.1310
  345loPI   C3A 5513  16.242  13.878   8.943 -0.2123  0.0778 -0.1700
  345loPI   C4A 5514  16.141  13.870   8.490 -0.2496  0.2579 -0.2535
  345loPI   C5A 5515  15.886  13.916   8.113 -0.0575 -0.0780 -0.0049
  345loPI   C6A 5516  15.649  13.879   7.761 -0.2799 -0.1947  0.2156
  345loPI   C1B 5517  15.797  14.359   9.373 -0.0330  0.1119 -0.0671
  345loPI   C2B 5518  15.890  14.369   8.939 -0.0148 -0.3051  0.0356
  345loPI   C3B 5519  16.015  14.297   8.488 -0.1049 -0.1956  0.1150
  345loPI   C4B 5520  16.160  14.485   8.104 -0.2123 -0.1453  0.1661
  346loPI    C1 5521  16.300   5.014  10.957 -0.0451  0.0915 -0.1198
  346loPI    C2 5522  16.404   5.214  11.287 -0.1708 -0.0802  0.0263
  346loPI    C3 5523  16.019   5.138  11.213 -0.1174 -0.3754  0.0372
  346loPI   PO4 5524  16.451   5.177  10.817  0.0474 -0.0579  0.0581
  346loPI   GL1 5525  16.520   5.130  10.319 -0.1768 -0.0970 -0.3353
  346loPI   GL2 5526  16.241   5.184  10.279 -0.0870  0.3043 -0.2752
  346loPI   C1A 5527  16.697   5.128   9.946 -0.1501 -0.0030 -0.0263
  346loPI   C2A 5528  16.716   5.308   9.463 -0.2168  0.0282 -0.0255
  346loPI   C3A 5529  16.832   5.227   9.002  0.0693 -0.0802  0.1838
  346loPI   C4A 5530  16.747   5.274   8.569  0.1142  0.1138  0.2020
  346loPI   C5A 5531  16.682   5.282   8.128  0.0014 -0.1856 -0.3076
  346loPI   C6A 5532  16.653   5.214   7.735 -0.1871 -0.4382  0.1888
  346loPI   C1B 5533  16.152   5.166   9.857  0.2817  0.0812 -0.2229
  346loPI   C2B 5534  16.230   5.222   9.454 -0.1149 -0.1382  0.2178
  346loPI   C3B 5535  16.295   5.246   8.999  0.2878  0.2356 -0.3794
  346loPI   C4B 5536  16.239   5.310   8.579 -0.1333  0.2331  0.0330
  347loPI    C1 5537  14.582   2.077  11.509 -0.3627  0.3680  0.2025
  347loPI    C2 5538  14.726   2.356  11.758  0.1575  0.2336  0.0661
  347loPI    C3 5539  14.750   1.969  11.856 -0.2305  0.2119  0.0914
  347loPI   PO4 5540  14.666   2.106  11.152 -0.1154  0.1030  0.4221
  347loPI   GL1 5541  14.708   2.205  10.721  0.1551  0.2387 -0.0659
  347loPI   GL2 5542  14.824   1.895  10.575 -0.5970 -0.0832  0.0178
  347loPI   C1A 5543  14.803   2.342  10.334 -0.1038  0.1117  0.1238
  347loPI   C2A 5544  14.904   2.376   9.928 -0.3220  0.0238  0.1634
  347loPI   C3A 5545  14.957   2.545   9.527  0.2032 -0.1217  0.0632
  347loPI   C4A 5546  15.059   2.560   9.093  0.2371  0.0622 -0.0598
  347loPI   C5A 5547  15.317   2.464   8.740  0.1340  0.0872  0.0928
  347loPI   C6A 5548  15.641   2.608   8.538 -0.0338  0.0281  0.0335
  347loPI   C1B 5549  15.094   1.868  10.195 -0.0224  0.3281 -0.0459
  347loPI   C2B 5550  15.143   1.935   9.851 -0.1106 -0.1013  0.1031
  347loPI   C3B 5551  15.219   2.092   9.450 -0.2766 -0.1366  0.0289
  347loPI   C4B 5552  15.315   2.040   9.097  0.3409 -0.1770  0.0685
  348loPI    C1 5553   1.114   9.669  10.900 -0.1515  0.1659  0.1562
  348loPI    C2 5554   0.740   9.542  10.957 -0.1885  0.0542 -0.3002
  348loPI    C3 5555   0.871   9.866  11.149 -0.3930 -0.1244  0.1563
  348loPI   PO4 5556   1.195   9.311  10.825 -0.0725 -0.3208  0.0223
  348loPI   GL1 5557   1.122   9.234  10.408 -0.1110  0.1024 -0.2609
  348loPI   GL2 5558   1.391   9.432  10.371 -0.7696  0.0988  0.0592
  348loPI   C1A 5559   0.852   9.249  10.019 -0.0600  0.0743 -0.1721
  348loPI   C2A 5560   0.880   9.140   9.604  0.3500 -0.1263 -0.0511
  348loPI   C3A 5561   0.718   9.230   9.208 -0.0945  0.1592  0.0275
  348loPI   C4A 5562   0.655   9.252   8.798  0.0002 -0.1905 -0.1165
  348loPI   C5A 5563   0.594   9.458   8.331  0.1323  0.4951  0.0676
  348loPI   C6A 5564   0.889   9.551   8.032  0.1643 -0.1039  0.2200
  348loPI   C1B 5565   1.329   9.227   9.939 -0.1537 -0.2079 -0.0579
  348loPI   C2B 5566   1.364   9.219   9.535 -0.0896  0.0862 -0.2199
  348loPI   C3B 5567   1.257   9.240   9.053  0.0318 -0.1665  0.1254
  348loPI   C4B 5568   1.102   9.352   8.620 -0.2830  0.1421 -0.1933
  349loPI    C1 5569  12.169  12.316  10.155  0.1424 -0.1857  0.2615
  349loPI    C2 5570  12.088  12.684  10.287  0.0566 -0.0430 -0.1711
  349loPI    C3 5571  12.013  12.367  10.519 -0.2021  0.1887  0.0687
  349loPI   PO4 5572  12.452  12.242  10.005 -0.1655  0.3137  0.0756
  349loPI   GL1 5573  12.631  12.028   9.601 -0.0744  0.2302  0.1303
  349loPI   GL2 5574  12.807  12.192   9.534  0.1610  0.0512  0.3160
  349loPI   C1A 5575  12.597  11.757   9.346  0.0890  0.2840  0.0460
  349loPI   C2A 5576  12.636  11.639   8.962  0.1207  0.0394  0.0608
  349loPI   C3A 5577  12.613  11.585   8.491 -0.2561  0.3293 -0.2185
  349loPI   C4A 5578  12.637  11.778   8.248 -0.0904  0.5262 -0.6847
  349loPI   C5A 5579  12.783  11.794   7.782  0.1041  0.1990 -0.0558
  349loPI   C6A 5580  13.152  11.710   7.688 -0.1840  0.2276  0.2003
  349loPI   C1B 5581  12.887  12.072   9.092  0.0893  0.3061 -0.2048
  349loPI   C2B 5582  12.862  12.084   8.682 -0.0941  0.0401  0.1164
  349loPI   C3B 5583  12.830  12.243   8.226  0.0442  0.4204  0.3237
  349loPI   C4B 5584  12.874  12.343   7.757  0.0569  0.2680  0.2860
  350loPI    C1 5585  18.051  16.383  10.736 -0.0430  0.3583 -0.1005
  350loPI    C2 5586  17.973  16.631  11.039  0.0202  0.0412  0.1815
  350loPI    C3 5587  17.683  16.399  10.890 -0.0257  0.2402 -0.0457
  350loPI   PO4 5588  18.154  16.569  10.556 -0.2687 -0.2127  0.0660
  350loPI   GL1 5589  18.131  16.818  10.273  0.4022  0.0589 -0.1881
  350loPI   GL2 5590  18.502  16.587  10.227 -0.1562  0.0113 -0.1434
  350loPI   C1A 5591  18.182  16.889   9.838 -0.1697 -0.2762 -0.0907
  350loPI   C2A 5592  18.140  16.886   9.486 -0.3509 -0.1954 -0.0259
  350loPI   C3A 5593  18.212  16.781   8.987 -0.1804  0.0198 -0.1082
  350loPI   C4A 5594  18.211  16.606   8.575 -0.1213 -0.1359 -0.0219
  350loPI   C5A 5595  18.229  16.700   8.146 -0.0647 -0.4603 -0.2915
  350loPI   C6A 5596  18.098  16.999   7.813 -0.2995 -0.4289  0.1334
  350loPI   C1B 5597  18.410  16.498   9.825 -0.2373 -0.2641 -0.2500
  350loPI   C2B 5598  18.425  16.473   9.388 -0.0286  0.2454  0.2048
  350loPI   C3B 5599  18.427  16.297   9.016  0.0877  0.0534  0.1859
  350loPI   C4B 5600  18.507  16.082   8.665 -0.2722  0.2913 -0.2594
  351loPI    C1 5601   3.277  16.479  10.291 -0.0884  0.1945  0.1022
  351loPI    C2 5602   3.553  16.380  10.563 -0.0050  0.0423 -0.0358
  351loPI    C3 5603   3.217  16.565  10.677 -0.0242 -0.1245  0.1865
  351loPI   PO4 5604   3.308  16.240  10.060 -0.1496  0.1045 -0.0137
  351loPI   GL1 5605   3.347  16.113   9.619  0.3198  0.2405  0.3766
  351loPI   GL2 5606   3.495  15.831   9.826 -0.1639 -0.0228  0.1165
  351loPI   C1A 5607   3.378  16.117   9.234  0.0076 -0.0558  0.1233
  351loPI   C2A 5608   3.314  16.085   8.805 -0.2229 -0.0087 -0.2100
  351loPI   C3A 5609   3.500  16.164   8.409 -0.0158  0.2795  0.1834
  351loPI   C4A 5610   3.701  16.185   8.003  0.0797 -0.1935 -0.2933
  351loPI   C5A 5611   3.893  16.157   7.614 -0.4103  0.0310 -0.0900
  351loPI   C6A 5612   3.671  16.104   7.276  0.0230 -0.0567 -0.1755
  351loPI   C1B 5613   3.586  15.612   9.448 -0.0180 -0.1221 -0.3405
  351loPI   C2B 5614   3.571  15.570   8.971  0.0004  0.0629  0.0479
  351loPI   C3B 5615   3.552  15.563   8.601 -0.1367 -0.1941 -0.0944
  351loPI   C4B 5616   3.600  15.756   8.201 -0.1421 -0.4057  0.2793
  352loPI    C1 5617   5.213   3.222  10.566 -0.0643  0.0749 -0.0647
  352loPI    C2 5618   5.139   2.829  10.589  0.2451  0.0181  0.0111
  352loPI    C3 5619   5.286   3.024  10.906  0.3792  0.1329 -0.1197
  352loPI   PO4 5620   5.087   3.311  10.388  0.1999  0.0618 -0.2101
  352loPI   GL1 5621   5.133   3.034  10.002  0.2435  0.1978 -0.1400
  352loPI   GL2 5622   5.016   2.719   9.721  0.0046  0.0502  0.3474
  352loPI   C1A 5623   4.872   3.230   9.755 -0.1007  0.1188  0.0605
  352loPI   C2A 5624   4.867   3.327   9.330  0.1906  0.1612 -0.1338
  352loPI   C3A 5625   4.888   3.329   8.931 -0.1427  0.0256  0.3081
  352loPI   C4A 5626   5.022   3.320   8.526  0.1097 -0.1374  0.0713
  352loPI   C5A 5627   5.283   3.355   8.199  0.1256 -0.0739  0.2534
  352loPI   C6A 5628   5.344   3.258   7.766  0.3632 -0.1393  0.2268
  352loPI   C1B 5629   4.829   2.749   9.313 -0.0147  0.2526 -0.2610
  352loPI   C2B 5630   4.816   2.766   8.913  0.4054 -0.0371 -0.2330
  352loPI   C3B 5631   4.802   2.775   8.463  0.0895  0.0349  0.1789
  352loPI   C4B 5632   4.722   2.427   8.175 -0.0499 -0.0068 -0.0226
  353loPI    C1 5633  18.295   1.390  10.662 -0.0477  0.1198 -0.0836
  353loPI    C2 5634  18.261   1.745  10.480 -0.1163  0.1525 -0.0081
  353loPI    C3 5635  18.391   1.726  10.857 -0.1980  0.1050  0.0180
  353loPI   PO4 5636  18.328   1.245  10.422  0.0322  0.2019 -0.0103
  353loPI   GL1 5637  18.161   1.076  10.020  0.2648 -0.0405  0.1529
  353loPI   GL2 5638  17.991   1.426  10.005 -0.1808  0.0316 -0.0777
  353loPI   C1A 5639  18.508   1.059   9.634  0.0668  0.0647  0.1848
  353loPI   C2A 5640  18.343   1.063   9.236  0.1318  0.1247 -0.4139
  353loPI   C3A 5641  18.301   1.150   8.657 -0.0196 -0.0105  0.1809
  353loPI   C4A 5642  18.494   1.054   8.353 -0.2380  0.1440 -0.1585
  353loPI   C5A 5643  18.713   1.236   8.060  0.0528 -0.0937 -0.3389
  353loPI   C6A 5644  18.598   1.041   7.706  0.0830  0.1867  0.1759
  353loPI   C1B 5645  18.188   1.445   9.610 -0.2859 -0.3811  0.1211
  353loPI   C2B 5646  18.140   1.528   9.193  0.0167 -0.1501 -0.0265
  353loPI   C3B 5647  17.986   1.520   8.784  0.1810  0.2803 -0.0572
  353loPI   C4B 5648  18.054   1.519   8.362 -0.0732  0.1845  0.1268
  354loPI    C1 5649  11.246   3.866  10.818  0.2074 -0.0981 -0.4026
  354loPI    C2 5650  11.135   3.484  10.777  0.1847 -0.1197 -0.1559
  354loPI    C3 5651  10.892   3.744  10.960  0.3197 -0.0502 -0.0743
  354loPI   PO4 5652  11.286   3.953  10.539 -0.1095 -0.2869 -0.1142
  354loPI   GL1 5653  11.258   4.243  10.085  0.0549  0.2597  0.0635
  354loPI   GL2 5654  11.515   4.365  10.080  0.4334 -0.3977 -0.0747
  354loPI   C1A 5655  11.294   4.346   9.618  0.1425 -0.0460 -0.0809
  354loPI   C2A 5656  11.520   4.564   9.287  0.1909  0.0697 -0.1764
  354loPI   C3A 5657  11.543   4.677   8.912 -0.0312 -0.2219  0.1472
  354loPI   C4A 5658  11.549   4.569   8.504  0.1062  0.1930  0.0361
  354loPI   C5A 5659  11.787   4.518   8.121 -0.1792 -0.2685 -0.3415
  354loPI   C6A 5660  11.868   4.179   7.824 -0.0052  0.2985 -0.1315
  354loPI   C1B 5661  11.447   3.935   9.759  0.1062  0.1445 -0.1478
  354loPI   C2B 5662  11.602   4.040   9.274  0.2448 -0.2136 -0.1632
  354loPI   C3B 5663  11.674   4.042   8.916  0.1330 -0.2990 -0.1147
  354loPI   C4B 5664  11.754   4.075   8.525  0.1269  0.0432  0.1182
  355loPI    C1 5665  13.638   1.874  10.719 -0.1388  0.2199  0.0896
  355loPI    C2 5666  13.586   1.661  11.053 -0.1953 -0.1148 -0.1283
  355loPI    C3 5667  13.595   2.060  11.071 -0.0292 -0.1318  0.2938
  355loPI   PO4 5668  13.734   1.732  10.543 -0.2041 -0.0480  0.1329
  355loPI   GL1 5669  13.681   1.606  10.110  0.2281 -0.2904 -0.0608
  355loPI   GL2 5670  13.497   1.358  10.199  0.0350 -0.2543 -0.3578
  355loPI   C1A 5671  13.824   1.691   9.752 -0.0163  0.2481  0.0753
  355loPI   C2A 5672  13.884   1.643   9.391  0.1008  0.0177  0.0207
  355loPI   C3A 5673  13.910   1.760   9.004 -0.1173 -0.0522 -0.0270
  355loPI   C4A 5674  14.085   1.655   8.595 -0.0095  0.3165  0.2813
  355loPI   C5A 5675  14.059   1.896   8.128 -0.0826 -0.3078  0.0599
  355loPI   C6A 5676  13.762   1.965   7.827  0.1006 -0.2006  0.0476
  355loPI   C1B 5677  13.564   1.251   9.759  0.2103 -0.1625  0.0760
  355loPI   C2B 5678  13.577   1.163   9.331  0.1431  0.4875  0.2538
  355loPI   C3B 5679  13.690   1.284   8.984 -0.1088  0.1239 -0.1084
  355loPI   C4B 5680  13.772   1.144   8.596 -0.1738 -0.1319 -0.0391
  356loPI    C1 5681   4.060   8.783  10.388  0.0936 -0.1053  0.0812
  356loPI    C2 5682   4.028   8.962  10.745 -0.0506 -0.2903  0.1628
  356loPI    C3 5683   3.781   8.662  10.648 -0.1859 -0.0708 -0.1960
  356loPI   PO4 5684   3.980   8.947  10.238  0.1670 -0.0819  0.1625
  356loPI   GL1 5685   4.040   8.921   9.847 -0.2110 -0.1552 -0.2521
  356loPI   GL2 5686   4.060   8.585   9.741  0.1917 -0.2184 -0.1655
  356loPI   C1A 5687   4.034   8.865   9.306 -0.0110  0.1657  0.2162
  356loPI   C2A 5688   3.941   8.686   8.968  0.2004 -0.0347 -0.0804
  356loPI   C3A 5689   3.593   8.712   8.664 -0.2390  0.0399  0.1454
  356loPI   C4A 5690   3.528   8.700   8.189 -0.3237 -0.2131  0.2262
  356loPI   C5A 5691   3.600   8.518   7.710  0.1794 -0.2233  0.2489
  356loPI   C6A 5692   3.266   8.533   7.604 -0.0388  0.0775 -0.2132
  356loPI   C1B 5693   3.668   8.572   9.491 -0.0716 -0.0571 -0.1679
  356loPI   C2B 5694   3.418   8.300   9.192  0.1563  0.0758 -0.3575
  356loPI   C3B 5695   3.402   8.134   8.815  0.2467  0.1850  0.2281
  356loPI   C4B 5696   3.391   8.302   8.510 -0.0715 -0.1237  0.1576
  357loPI    C1 5697   0.034  18.147  10.688 -0.1698  0.1387  0.2039
  357loPI    C2 5698   0.405  18.029  10.781 -0.1188  0.1369  0.0016
  357loPI    C3 5699   0.099  17.935  11.021 -0.0309 -0.1181  0.0161
  357loPI   PO4 5700   0.052  18.130  10.435 -0.1350 -0.2853  0.2266
  357loPI   GL1 5701  -0.079  18.206  10.099 -0.0192  0.0391 -0.0614
  357loPI   GL2 5702  -0.373  18.187  10.069  0.0965 -0.3698 -0.2116
  357loPI   C1A 5703   0.171  18.146   9.690 -0.3327 -0.0827 -0.1321
  357loPI   C2A 5704   0.092  18.103   9.270 -0.2373 -0.0963 -0.0902
  357loPI   C3A 5705   0.116  18.099   8.848  0.1894  0.1245 -0.2292
  357loPI   C4A 5706   0.141  18.118   8.449  0.0712  0.4337  0.3319
  357loPI   C5A 5707   0.136  18.363   8.125  0.0188  0.1349  0.0945
  357loPI   C6A 5708   0.054  18.345   7.674 -0.2602 -0.3257  0.0013
  357loPI   C1B 5709  -0.404  18.187   9.670  0.0324  0.0455 -0.0789
  357loPI   C2B 5710  -0.457  18.132   9.159  0.0346 -0.2282 -0.4463
  357loPI   C3B 5711  -0.433  18.238   8.715 -0.2331  0.2916 -0.0472
  357loPI   C4B 5712  -0.304  17.907   8.315  0.0259 -0.1851 -0.1273
  358loPI    C1 5713   1.750   4.202  10.643  0.1617 -0.0834  0.0978
  358loPI    C2 5714   1.737   4.592  10.729  0.1424 -0.0788  0.0742
  358loPI    C3 5715   1.897   4.335  10.990  0.0102 -0.0752  0.1599
  358loPI   PO4 5716   1.536   4.182  10.501 -0.0332 -0.2971 -0.1517
  358loPI   GL1 5717   1.480   3.970  10.136  0.2402  0.1980  0.1068
  358loPI   GL2 5718   1.671   3.797   9.883  0.1195 -0.0439 -0.1122
  358loPI   C1A 5719   1.379   4.207   9.731  0.1401 -0.0564  0.2486
  358loPI   C2A 5720   1.402   4.160   9.182  0.0598  0.1706  0.0164
  358loPI   C3A 5721   1.372   4.003   8.741  0.2019  0.1498  0.0614
  358loPI   C4A 5722   1.221   3.994   8.284  0.0078 -0.2763 -0.0840
  358loPI   C5A 5723   1.327   3.958   7.918  0.1965  0.2868  0.1953
  358loPI   C6A 5724   1.755   4.100   7.727  0.0757 -0.1509 -0.2771
  358loPI   C1B 5725   1.697   3.708   9.454 -0.1100  0.0215  0.1158
  358loPI   C2B 5726   1.612   3.628   9.060  0.1589 -0.1087 -0.0884
  358loPI   C3B 5727   1.711   3.619   8.704 -0.0606 -0.1627  0.0426
  358loPI   C4B 5728   1.533   3.612   8.254 -0.1649 -0.1428 -0.0414
  359loPI    C1 5729   7.820   8.902  10.233  0.1779 -0.2734  0.2002
  359loPI    C2 5730   7.718   8.854  10.617 -0.0070 -0.0691  0.1782
  359loPI    C3 5731   7.795   9.220  10.475  0.2116 -0.1605  0.0566
  359loPI   PO4 5732   7.933   8.702  10.158 -0.0055  0.2237  0.0618
  359loPI   GL1 5733   8.059   8.532   9.822  0.2003  0.1246 -0.1008
  359loPI   GL2 5734   7.858   8.832   9.664  0.0816 -0.1411  0.0190
  359loPI   C1A 5735   8.060   8.257   9.456  0.2182  0.2093 -0.0035
  359loPI   C2A 5736   8.036   8.261   9.022  0.3436 -0.2919 -0.2976
  359loPI   C3A 5737   7.872   8.100   8.721  0.4657  0.1039 -0.2078
  359loPI   C4A 5738   7.808   7.888   8.370  0.1115  0.0124 -0.4927
  359loPI   C5A 5739   7.651   7.836   7.995  0.1279 -0.2449 -0.0194
  359loPI   C6A 5740   7.468   7.460   7.974 -0.0149  0.2400 -0.3159
  359loPI   C1B 5741   7.962   8.736   9.285 -0.2087 -0.1572  0.2298
  359loPI   C2B 5742   7.892   8.682   8.874 -0.2426  0.1499 -0.0606
  359loPI   C3B 5743   7.744   8.802   8.516 -0.2291  0.1654 -0.0541
  359loPI   C4B 5744   7.523   9.004   8.226 -0.2897  0.3920 -0.0289
  360loPI    C1 5745   3.210  17.138  10.187 -0.2676  0.1076 -0.1141
  360loPI    C2 5746   3.190  17.173  10.585 -0.3397  0.0876 -0.1160
  360loPI    C3 5747   3.438  17.407  10.376  0.0191 -0.1969 -0.0174
  360loPI   PO4 5748   3.005  17.079  10.136  0.0254 -0.0788 -0.0301
  360loPI   GL1 5749   2.923  16.680   9.994  0.2312  0.0135 -0.1220
  360loPI   GL2 5750   3.052  16.580   9.751  0.3927 -0.0434  0.1579
  360loPI   C1A 5751   2.598  16.580   9.607  0.1764  0.0178 -0.1311
  360loPI   C2A 5752   2.599  16.571   9.170  0.2775  0.1320  0.2671
  360loPI   C3A 5753   2.534  16.575   8.699 -0.2564  0.0503  0.2047
  360loPI   C4A 5754   2.464  16.588   8.310  0.2261 -0.1885  0.2325
  360loPI   C5A 5755   2.708  16.641   8.050 -0.2486  0.0084  0.0234
  360loPI   C6A 5756   3.063  16.893   7.866 -0.1016  0.1132  0.1417
  360loPI   C1B 5757   3.143  16.555   9.216 -0.0302 -0.0337 -0.0083
  360loPI   C2B 5758   3.085  16.569   8.827 -0.0031 -0.2210  0.0890
  360loPI   C3B 5759   3.083  16.468   8.371  0.0078 -0.0058  0.0199
  360loPI   C4B 5760   3.128  16.209   8.044 -0.0931  0.3813  0.3855
  361loPI    C1 5761  13.404  11.834  10.450  0.1463  0.0537  0.1033
  361loPI    C2 5762  13.185  11.925  10.772  0.1123 -0.0933  0.1222
  361loPI    C3 5763  13.080  11.618  10.538  0.2967 -0.1639  0.1306
  361loPI   PO4 5764  13.383  12.032  10.258 -0.0360 -0.3289 -0.0918
  361loPI   GL1 5765  13.416  11.975   9.876 -0.3241 -0.1469 -0.0910
  361loPI   GL2 5766  13.695  11.756   9.988  0.1702  0.2067 -0.2191
  361loPI   C1A 5767  13.337  12.176   9.506 -0.2028  0.1196 -0.2064
  361loPI   C2A 5768  13.459  12.091   9.135  0.0631 -0.0404 -0.0964
  361loPI   C3A 5769  13.534  12.118   8.754 -0.4395  0.3458 -0.2376
  361loPI   C4A 5770  13.644  11.989   8.383  0.0788 -0.0888  0.3773
  361loPI   C5A 5771  13.564  11.626   8.117 -0.0421  0.0666  0.0287
  361loPI   C6A 5772  13.528  11.369   7.770  0.0135 -0.0706  0.1371
  361loPI   C1B 5773  13.662  11.669   9.545  0.1163  0.1107  0.0333
  361loPI   C2B 5774  13.781  11.672   9.180  0.2235 -0.0026 -0.0701
  361loPI   C3B 5775  13.832  11.614   8.779  0.2538 -0.1586 -0.0791
  361loPI   C4B 5776  14.031  11.486   8.299  0.1200 -0.0828 -0.2297
  362loPI    C1 5777   7.202   7.518  10.340  0.1679 -0.1759  0.1479
  362loPI    C2 5778   7.252   7.194  10.570 -0.0932 -0.1487  0.2466
  362loPI    C3 5779   7.271   7.559  10.732 -0.1072 -0.1242  0.1934
  362loPI   PO4 5780   7.386   7.528  10.168 -0.2615 -0.0123  0.2989
  362loPI   GL1 5781   7.387   7.894   9.930  0.0480  0.0635 -0.2126
  362loPI   GL2 5782   7.167   8.205   9.986 -0.1323  0.2667 -0.0068
  362loPI   C1A 5783   7.293   7.737   9.584  0.1843 -0.2621  0.1136
  362loPI   C2A 5784   7.436   7.676   9.167 -0.0867  0.1011 -0.1256
  362loPI   C3A 5785   7.583   7.637   8.748 -0.0622  0.1345  0.4517
  362loPI   C4A 5786   7.893   7.392   8.349  0.0057 -0.3749 -0.3329
  362loPI   C5A 5787   8.213   7.142   7.937 -0.0698  0.2824  0.0602
  362loPI   C6A 5788   8.385   6.701   7.778 -0.0132  0.0167  0.1536
  362loPI   C1B 5789   6.881   8.113   9.624  0.1122  0.1118 -0.1870
  362loPI   C2B 5790   6.797   7.959   9.243  0.0106 -0.2583  0.1290
  362loPI   C3B 5791   6.678   7.979   8.818  0.2074 -0.0502 -0.0861
  362loPI   C4B 5792   6.373   7.827   8.559 -0.2125  0.0266  0.1485
  363loPI    C1 5793  10.550   9.680  10.297 -0.0496 -0.2924 -0.0379
  363loPI    C2 5794  10.774   9.830  10.593  0.0547 -0.1343 -0.1951
  363loPI    C3 5795  10.383   9.766  10.651  0.0604 -0.0393 -0.0455
  363loPI   PO4 5796  10.623   9.822  10.104  0.0281  0.3594 -0.1893
  363loPI   GL1 5797  10.611   9.589   9.754 -0.1654  0.0575  0.1346
  363loPI   GL2 5798  10.611   9.343   9.941 -0.1748  0.1061  0.1480
  363loPI   C1A 5799  10.627   9.532   9.462  0.1200  0.0337  0.1302
  363loPI   C2A 5800  10.796   9.438   9.030 -0.0121 -0.1474  0.1911
  363loPI   C3A 5801  10.873   9.372   8.496  0.2472 -0.2497  0.1853
  363loPI   C4A 5802  10.867   9.562   8.093  0.1246 -0.3828  0.2745
  363loPI   C5A 5803  11.131   9.753   7.774  0.2504 -0.1346  0.1563
  363loPI   C6A 5804  11.250   9.741   7.339 -0.2600 -0.0535  0.1475
  363loPI   C1B 5805  10.425   9.120   9.622 -0.1429 -0.3178 -0.1882
  363loPI   C2B 5806  10.591   9.061   9.307 -0.2045  0.1111  0.0141
  363loPI   C3B 5807  10.524   8.970   8.895 -0.2924  0.2206 -0.0510
  363loPI   C4B 5808  10.675   8.949   8.544  0.0611 -0.1218 -0.0218
  364loPI    C1 5809  11.600  14.005  10.074  0.1064  0.3813  0.1820
  364loPI    C2 5810  11.263  13.948  10.282  0.0426 -0.2495 -0.0710
  364loPI    C3 5811  11.613  13.978  10.473 -0.1064  0.0139  0.1686
  364loPI   PO4 5812  11.597  14.106   9.956  0.2402 -0.3048  0.0042
  364loPI   GL1 5813  11.635  14.224   9.531  0.3984  0.0395 -0.0016
  364loPI   GL2 5814  11.684  14.540   9.741 -0.2380  0.1135 -0.0377
  364loPI   C1A 5815  11.707  14.324   9.154  0.1950 -0.0357  0.0277
  364loPI   C2A 5816  11.793  14.394   8.778  0.0543  0.2325 -0.2691
  364loPI   C3A 5817  11.697  14.260   8.266  0.0724  0.0420  0.0993
  364loPI   C4A 5818  11.639  14.129   7.899 -0.1815  0.1404 -0.1684
  364loPI   C5A 5819  11.773  13.977   7.481 -0.2374  0.2144 -0.1282
  364loPI   C6A 5820  11.709  13.929   7.010 -0.0430 -0.1232  0.0618
  364loPI   C1B 5821  12.049  14.711   9.550  0.2694  0.1903  0.1220
  364loPI   C2B 5822  12.080  14.677   9.113 -0.0360 -0.1674 -0.0161
  364loPI   C3B 5823  12.105  14.801   8.737  0.1424  0.2630 -0.0347
  364loPI   C4B 5824  12.045  14.635   8.319  0.2179 -0.1659  0.5174
  365loPI    C1 5825  11.729   9.806  10.632 -0.0631  0.2674 -0.0688
  365loPI    C2 5826  11.334   9.787  10.573 -0.0608  0.0659 -0.0265
  365loPI    C3 5827  11.480   9.804  10.945 -0.0197 -0.1475 -0.0319
  365loPI   PO4 5828  11.817   9.932  10.428 -0.0809  0.1467  0.1322
  365loPI   GL1 5829  11.965   9.960   9.965  0.3273 -0.0746 -0.1846
  365loPI   GL2 5830  11.887  10.236   9.808 -0.1383  0.1909  0.0338
  365loPI   C1A 5831  12.217   9.809   9.595 -0.3302  0.0469  0.0179
  365loPI   C2A 5832  12.256   9.927   9.186 -0.4722  0.1052  0.0701
  365loPI   C3A 5833  12.177   9.920   8.843 -0.0167  0.0644  0.0998
  365loPI   C4A 5834  12.152   9.699   8.498 -0.1855 -0.2512 -0.1317
  365loPI   C5A 5835  12.248   9.648   8.014  0.2373 -0.0165 -0.2584
  365loPI   C6A 5836  12.371   9.544   7.754  0.0752 -0.0355 -0.0763
  365loPI   C1B 5837  12.019  10.396   9.334 -0.3367 -0.0798 -0.3067
  365loPI   C2B 5838  12.013  10.312   9.013  0.2149  0.0079  0.2208
  365loPI   C3B 5839  11.958  10.211   8.521  0.0584 -0.3896 -0.1379
  365loPI   C4B 5840  11.978  10.116   8.150  0.0275  0.0950  0.2555
  366loPI    C1 5841  15.601  15.476  10.639 -0.0342  0.1521 -0.1127
  366loPI    C2 5842  15.289  15.362  10.416 -0.0131 -0.1788  0.0212
  366loPI    C3 5843  15.304  15.264  10.803  0.2053 -0.0680  0.0423
  366loPI   PO4 5844  15.688  15.711  10.428  0.3180 -0.3140 -0.1093
  366loPI   GL1 5845  15.591  15.803   9.980  0.2125  0.2830 -0.0768
  366loPI   GL2 5846  15.400  16.195   9.849 -0.1671 -0.2120  0.2830
  366loPI   C1A 5847  15.547  15.754   9.542  0.4758  0.0538  0.0256
  366loPI   C2A 5848  15.723  15.892   9.191  0.1372 -0.1865 -0.0263
  366loPI   C3A 5849  15.665  15.893   8.802  0.0305  0.0749  0.2508
  366loPI   C4A 5850  15.819  15.701   8.353  0.0846  0.0080  0.0392
  366loPI   C5A 5851  15.738  15.385   8.125 -0.2314  0.1485  0.0219
  366loPI   C6A 5852  15.881  15.034   7.981  0.0505  0.1194 -0.1146
  366loPI   C1B 5853  15.429  16.283   9.377 -0.1434 -0.1934 -0.1372
  366loPI   C2B 5854  15.416  16.255   8.994 -0.0535  0.1071 -0.1345
  366loPI   C3B 5855  15.467  16.296   8.528  0.2238 -0.0455 -0.1460
  366loPI   C4B 5856  15.691  16.237   8.193 -0.2733  0.0760  0.0045
  367loPI    C1 5857  15.484   1.897  11.203  0.1024  0.1751  0.1099
  367loPI    C2 5858  15.832   1.850  11.394  0.2016 -0.2327 -0.1579
  367loPI    C3 5859  15.514   1.634  11.503 -0.0497  0.3211  0.2551
  367loPI   PO4 5860  15.625   1.954  10.949 -0.0146  0.2674 -0.1041
  367loPI   GL1 5861  15.729   1.683  10.494 -0.0061 -0.5303 -0.1221
  367loPI   GL2 5862  15.991   1.747  10.428  0.0057 -0.0079 -0.0211
  367loPI   C1A 5863  15.564   1.861  10.196 -0.1013  0.0622  0.2616
  367loPI   C2A 5864  15.648   1.854   9.797 -0.1139 -0.0565 -0.2386
  367loPI   C3A 5865  15.741   2.049   9.398  0.2104  0.3574 -0.0781
  367loPI   C4A 5866  15.787   2.008   8.960 -0.1404  0.1501  0.3285
  367loPI   C5A 5867  15.813   2.157   8.515  0.0050  0.2650  0.1169
  367loPI   C6A 5868  16.316   2.114   8.300 -0.1059 -0.1450  0.0182
  367loPI   C1B 5869  16.114   1.993  10.120  0.1238  0.4414  0.3032
  367loPI   C2B 5870  16.272   1.925   9.621  0.0482 -0.0699 -0.0834
  367loPI   C3B 5871  16.329   2.018   9.115 -0.2376 -0.0564  0.0539
  367loPI   C4B 5872  16.233   2.163   8.794  0.1780 -0.1894 -0.1133
  368loPI    C1 5873   2.541   2.777  10.459  0.0330  0.0561  0.4210
  368loPI    C2 5874   2.436   3.161  10.420  0.1482  0.0818  0.3589
  368loPI    C3 5875   2.233   2.922  10.668 -0.1622  0.0881  0.1163
  368loPI   PO4 5876   2.534   2.694  10.210 -0.0474  0.4172 -0.0982
  368loPI   GL1 5877   2.635   2.648   9.819  0.1035  0.1527 -0.0579
  368loPI   GL2 5878   2.302   2.748   9.739  0.0718  0.0721 -0.2164
  368loPI   C1A 5879   2.670   2.731   9.396  0.2887  0.0003 -0.0125
  368loPI   C2A 5880   2.572   2.771   8.964  0.2344  0.0211  0.0073
  368loPI   C3A 5881   2.645   2.718   8.541 -0.3880 -0.1905 -0.0834
  368loPI   C4A 5882   2.594   2.770   8.138  0.0125 -0.2368 -0.0586
  368loPI   C5A 5883   2.483   2.922   7.702  0.3814  0.0511 -0.1524
  368loPI   C6A 5884   2.701   2.940   7.339  0.1155  0.1933 -0.0358
  368loPI   C1B 5885   2.242   2.931   9.318  0.0341 -0.3131 -0.0911
  368loPI   C2B 5886   2.080   2.734   8.937 -0.0178  0.1889  0.3505
  368loPI   C3B 5887   2.080   2.700   8.468 -0.1708 -0.1050  0.3140
  368loPI   C4B 5888   1.955   2.699   8.143  0.4054 -0.4192  0.0983
  369loPI    C1 5889  17.157  16.179  10.834  0.1736 -0.2379 -0.0918
  369loPI    C2 5890  17.397  15.894  10.981  0.2256 -0.0273  0.2435
  369loPI    C3 5891  17.234  16.165  11.226 -0.2487 -0.0831  0.0019
  369loPI   PO4 5892  17.219  16.130  10.569  0.1910  0.0658  0.0418
  369loPI   GL1 5893  17.435  16.210  10.213 -0.1381  0.0155 -0.2213
  369loPI   GL2 5894  17.695  16.434  10.366 -0.1639 -0.3845  0.0920
  369loPI   C1A 5895  17.453  16.282   9.794 -0.1945 -0.0975 -0.2150
  369loPI   C2A 5896  17.451  16.394   9.340  0.3610  0.3034  0.0512
  369loPI   C3A 5897  17.525  16.291   8.880  0.2087  0.1815 -0.2371
  369loPI   C4A 5898  17.587  16.274   8.404  0.1779  0.0555 -0.0301
  369loPI   C5A 5899  18.038  16.209   8.277  0.1634 -0.1886 -0.0401
  369loPI   C6A 5900  18.536  16.210   8.151  0.2587 -0.2062  0.0578
  369loPI   C1B 5901  17.935  16.500   9.954 -0.1335  0.0294 -0.0183
  369loPI   C2B 5902  17.919  16.449   9.588 -0.0704  0.0377 -0.0303
  369loPI   C3B 5903  17.954  16.371   9.175 -0.3327 -0.3778 -0.1282
  369loPI   C4B 5904  18.002  16.092   8.768  0.2845 -0.3136  0.0412
  370loPI    C1 5905  10.761  13.299  10.025  0.0012 -0.0614 -0.1279
  370loPI    C2 5906  10.548  13.068  10.273 -0.3232  0.0708 -0.2777
  370loPI    C3 5907  10.698  13.415  10.403 -0.4385  0.1096 -0.2474
  370loPI   PO4 5908  10.807  13.147   9.806  0.4364 -0.1339  0.2800
  370loPI   GL1 5909  10.705  13.093   9.449  0.0160 -0.0127 -0.0043
  370loPI   GL2 5910  10.923  12.871   9.396 -0.0642  0.0858  0.0363
  370loPI   C1A 5911  10.519  13.264   9.092 -0.0666 -0.0655 -0.0732
  370loPI   C2A 5912  10.477  13.094   8.574 -0.0402 -0.1704  0.1961
  370loPI   C3A 5913  10.302  13.191   8.234 -0.1537 -0.3321 -0.1332
  370loPI   C4A 5914  10.145  13.253   7.827  0.1544 -0.1359 -0.2704
  370loPI   C5A 5915   9.892  13.077   7.526  0.1135 -0.0533  0.2778
  370loPI   C6A 5916   9.512  13.208   7.428 -0.1834 -0.0196  0.1900
  370loPI   C1B 5917  10.852  12.805   8.990  0.3429  0.0524 -0.1899
  370loPI   C2B 5918  10.931  12.890   8.671  0.2942  0.0274  0.1590
  370loPI   C3B 5919  10.913  12.953   8.225  0.2850 -0.0056  0.2118
  370loPI   C4B 5920  11.048  12.751   7.895  0.1098  0.1622 -0.0473
  371loPI    C1 5921  16.620   8.866  11.250  0.2665  0.0224  0.0747
  371loPI    C2 5922  16.594   8.470  11.294 -0.1576  0.0327 -0.0427
  371loPI    C3 5923  16.699   8.698  11.605  0.1055 -0.1696  0.0211
  371loPI   PO4 5924  16.615   8.912  10.924 -0.0558  0.2177 -0.0605
  371loPI   GL1 5925  16.579   8.918  10.515 -0.3080 -0.1691 -0.0843
  371loPI   GL2 5926  16.889   8.921  10.411 -0.1140  0.3685 -0.0722
  371loPI   C1A 5927  16.254   8.956  10.077 -0.0646 -0.3110  0.3063
  371loPI   C2A 5928  16.270   8.974   9.703 -0.0623  0.4157  0.1100
  371loPI   C3A 5929  16.350   8.904   9.218  0.0238 -0.1043  0.2819
  371loPI   C4A 5930  16.496   8.749   8.799 -0.1020 -0.1488 -0.1448
  371loPI   C5A 5931  16.699   8.773   8.413 -0.0894 -0.0300 -0.0484
  371loPI   C6A 5932  16.962   8.582   8.265  0.0485  0.0326  0.1566
  371loPI   C1B 5933  16.769   8.959   9.930  0.3901 -0.0299 -0.1235
  371loPI   C2B 5934  16.733   8.941   9.522 -0.2009 -0.1794  0.1772
  371loPI   C3B 5935  16.966   8.855   9.154  0.1123 -0.0930  0.1012
  371loPI   C4B 5936  16.989   8.744   8.760  0.1516  0.1397  0.0623
  372loPI    C1 5937  13.622   0.830  10.717  0.0511  0.3841 -0.1231
  372loPI    C2 5938  13.266   0.649  10.751  0.0533  0.3235 -0.4011
  372loPI    C3 5939  13.377   0.924  11.019  0.0820 -0.1361  0.0747
  372loPI   PO4 5940  13.600   0.872  10.501  0.1922  0.1120  0.0349
  372loPI   GL1 5941  13.468   0.890  10.070 -0.2388  0.2827  0.2700
  372loPI   GL2 5942  13.244   0.667  10.158 -0.3194  0.1152  0.0876
  372loPI   C1A 5943  13.947   1.062   9.983  0.0079 -0.2210  0.0351
  372loPI   C2A 5944  14.074   1.230   9.615  0.2099  0.1929  0.0673
  372loPI   C3A 5945  14.146   1.205   9.134 -0.0943 -0.1694 -0.1640
  372loPI   C4A 5946  14.320   1.184   8.729  0.0911  0.0304 -0.1002
  372loPI   C5A 5947  14.419   1.208   8.255  0.0630 -0.2019 -0.1404
  372loPI   C6A 5948  14.726   1.145   7.948  0.3748 -0.4088  0.4283
  372loPI   C1B 5949  13.321   0.651   9.683 -0.2374 -0.1446  0.0272
  372loPI   C2B 5950  13.291   0.802   9.283 -0.2765 -0.0202 -0.0980
  372loPI   C3B 5951  13.439   0.807   8.789  0.0633  0.0007 -0.0271
  372loPI   C4B 5952  13.408   0.808   8.336  0.2748 -0.3664 -0.0100
  373loPI    C1 5953   8.247   4.060  10.100 -0.1263 -0.0469  0.0180
  373loPI    C2 5954   8.514   4.354  10.148 -0.3353  0.1715 -0.1353
  373loPI    C3 5955   8.306   4.220  10.462  0.2379 -0.2829  0.0681
  373loPI   PO4 5956   8.027   4.124   9.922  0.4187 -0.2510  0.1838
  373loPI   GL1 5957   8.012   3.891   9.540 -0.1907  0.0636  0.0646
  373loPI   GL2 5958   7.837   4.117   9.395  0.0025  0.1451  0.0276
  373loPI   C1A 5959   8.289   3.799   9.338  0.0878 -0.2120  0.3523
  373loPI   C2A 5960   8.503   3.955   8.959  0.0456  0.0100 -0.1727
  373loPI   C3A 5961   8.548   4.003   8.546  0.1295 -0.1915 -0.3944
  373loPI   C4A 5962   8.459   4.134   8.131  0.1587  0.0037  0.2180
  373loPI   C5A 5963   8.324   4.586   7.866  0.1930 -0.3210 -0.2444
  373loPI   C6A 5964   7.969   4.834   7.630 -0.1810  0.0964  0.0990
  373loPI   C1B 5965   7.843   3.790   9.105  0.0215  0.0191  0.0164
  373loPI   C2B 5966   7.745   3.713   8.627 -0.0977 -0.4572  0.0454
  373loPI   C3B 5967   7.794   3.501   8.253 -0.1511 -0.1237  0.3131
  373loPI   C4B 5968   7.856   3.413   7.917  0.1969 -0.1194  0.2382
  374loPI    C1 5969  13.681   3.320  11.008 -0.1912 -0.1035  0.1314
  374loPI    C2 5970  13.672   3.023  11.275  0.2028 -0.1393  0.1111
  374loPI    C3 5971  13.720   3.400  11.398  0.2981 -0.1468  0.0969
  374loPI   PO4 5972  13.450   3.270  10.769 -0.1024  0.1742 -0.0248
  374loPI   GL1 5973  13.426   3.149  10.312  0.1661 -0.0817 -0.1878
  374loPI   GL2 5974  13.477   3.444  10.292 -0.3905  0.2902 -0.2586
  374loPI   C1A 5975  13.454   3.058   9.952  0.1560 -0.2744 -0.3347
  374loPI   C2A 5976  13.623   3.151   9.484  0.0155  0.1140  0.0163
  374loPI   C3A 5977  13.783   3.123   9.149 -0.2650  0.0164  0.0063
  374loPI   C4A 5978  13.876   2.995   8.706 -0.0241 -0.1845 -0.0456
  374loPI   C5A 5979  14.112   2.806   8.405  0.1643 -0.0446 -0.1108
  374loPI   C6A 5980  14.536   2.873   8.294 -0.2454  0.0438  0.4335
  374loPI   C1B 5981  13.611   3.661   9.869  0.0190 -0.2460  0.1027
  374loPI   C2B 5982  13.715   3.727   9.480  0.0528  0.1082  0.1674
  374loPI   C3B 5983  13.690   3.808   9.186 -0.1883  0.1946 -0.1007
  374loPI   C4B 5984  13.889   3.986   8.782  0.0214  0.0016  0.2266
  375loPI    C1 5985   5.775  11.615  10.097 -0.0767 -0.3875 -0.0702
  375loPI    C2 5986   5.673  11.322  10.350 -0.2071 -0.1962  0.1021
  375loPI    C3 5987   5.416  11.619  10.274 -0.0082 -0.0302  0.0691
  375loPI   PO4 5988   5.821  11.556   9.914 -0.2510  0.1976  0.0048
  375loPI   GL1 5989   5.853  11.703   9.505 -0.0722  0.0942 -0.0417
  375loPI   GL2 5990   5.633  11.887   9.517  0.1853 -0.1923  0.1857
  375loPI   C1A 5991   5.961  11.532   9.078  0.1241  0.0059 -0.0166
  375loPI   C2A 5992   5.882  11.362   8.677  0.0208  0.0427 -0.1420
  375loPI   C3A 5993   5.899  11.335   8.233  0.0589 -0.0879  0.1598
  375loPI   C4A 5994   6.182  11.421   7.893 -0.1110  0.3571 -0.1497
  375loPI   C5A 5995   6.304  11.400   7.571 -0.2828 -0.3187 -0.0288
  375loPI   C6A 5996   6.457  11.278   7.178 -0.0336 -0.2264  0.0585
  375loPI   C1B 5997   5.534  11.973   9.089  0.3092  0.0558 -0.2392
  375loPI   C2B 5998   5.663  11.845   8.686 -0.0572 -0.0951 -0.1650
  375loPI   C3B 5999   5.520  11.689   8.322 -0.2677 -0.1115  0.2577
  375loPI   C4B 6000   5.514  11.576   7.946 -0.3585  0.1427 -0.1097
  376loPI    C1 6001  12.289  18.122  10.544  0.0103 -0.1484  0.0406
  376loPI    C2 6002  12.543  18.308  10.789  0.0823 -0.2514  0.0446
  376loPI    C3 6003  12.228  18.112  10.939 -0.1888  0.1537  0.0207
  376loPI   PO4 6004  12.282  18.278  10.383  0.1421 -0.3678 -0.0017
  376loPI   GL1 6005  12.585  18.261   9.994 -0.1769 -0.0516 -0.2017
  376loPI   GL2 6006  12.363  18.283   9.836  0.3639  0.2613 -0.0259
  376loPI   C1A 6007  12.794  18.251   9.573  0.0322  0.3588  0.1108
  376loPI   C2A 6008  12.788  18.196   9.135 -0.2920 -0.2360 -0.0345
  376loPI   C3A 6009  12.903  18.229   8.671 -0.0415 -0.0794  0.0038
  376loPI   C4A 6010  12.854  18.337   8.228  0.1219  0.0964 -0.1074
  376loPI   C5A 6011  13.051  18.268   7.947 -0.0696 -0.0101  0.1237
  376loPI   C6A 6012  13.441  18.454   7.784 -0.0582 -0.2544  0.1590
  376loPI   C1B 6013  12.335  18.281   9.380  0.1436  0.0023 -0.0617
  376loPI   C2B 6014  12.373  18.145   8.814 -0.1971 -0.0623 -0.0560
  376loPI   C3B 6015  12.409  18.195   8.403  0.0746 -0.0945 -0.2217
  376loPI   C4B 6016  12.411  18.421   7.994 -0.3719 -0.0328 -0.0186
  377loPI    C1 6017  11.173   2.807  10.367  0.1684 -0.2866  0.0690
  377loPI    C2 6018  10.795   2.674  10.377  0.0313  0.0708 -0.1613
  377loPI    C3 6019  11.071   2.513  10.619 -0.2399 -0.2736 -0.0742
  377loPI   PO4 6020  11.162   2.887  10.152  0.0400 -0.0241  0.2540
  377loPI   GL1 6021  11.375   2.740   9.733 -0.0943  0.1900 -0.3010
  377loPI   GL2 6022  11.247   2.491   9.609  0.2476 -0.0956 -0.0400
  377loPI   C1A 6023  11.574   2.840   9.398 -0.3343  0.2945 -0.4403
  377loPI   C2A 6024  11.675   2.958   9.005 -0.1629  0.0684 -0.0075
  377loPI   C3A 6025  11.583   3.129   8.673 -0.3302 -0.2618 -0.2094
  377loPI   C4A 6026  11.756   2.952   8.270 -0.1192 -0.0794  0.1948
  377loPI   C5A 6027  12.178   2.735   8.046 -0.3364  0.0374 -0.0043
  377loPI   C6A 6028  12.301   2.872   7.754  0.1922 -0.2092 -0.1764
  377loPI   C1B 6029  11.172   2.273   9.232  0.1118  0.1880  0.1918
  377loPI   C2B 6030  11.203   2.261   8.735 -0.0339 -0.0872 -0.0204
  377loPI   C3B 6031  11.207   2.174   8.294  0.3378  0.2205 -0.2373
  377loPI   C4B 6032  11.262   2.140   7.853  0.1677 -0.3482  0.0046
  378loPI    C1 6033   9.544   0.399  10.501 -0.3043  0.2125  0.2414
  378loPI    C2 6034   9.644   0.778  10.421 -0.1386  0.1269  0.0338
  378loPI    C3 6035   9.838   0.575  10.706 -0.0802  0.1302 -0.0033
  378loPI   PO4 6036   9.599   0.253  10.266  0.2877 -0.1810 -0.2713
  378loPI   GL1 6037   9.710   0.302   9.782  0.0661  0.2679 -0.4574
  378loPI   GL2 6038   9.829   0.595   9.627 -0.1199 -0.3982  0.3147
  378loPI   C1A 6039   9.623  -0.002   9.440  0.0856  0.1829  0.4381
  378loPI   C2A 6040   9.554   0.025   9.074  0.1747 -0.0107 -0.0493
  378loPI   C3A 6041   9.536  -0.096   8.680 -0.0879  0.1784 -0.0842
  378loPI   C4A 6042   9.511  -0.113   8.283  0.2928 -0.1228  0.1356
  378loPI   C5A 6043   9.502   0.069   7.884  0.0084  0.0568 -0.1641
  378loPI   C6A 6044   9.289  -0.054   7.537  0.0702  0.1613  0.1671
  378loPI   C1B 6045   9.581   0.483   9.297 -0.1450  0.4185  0.3138
  378loPI   C2B 6046   9.626   0.522   8.920  0.1058  0.1248  0.1741
  378loPI   C3B 6047   9.701   0.347   8.456  0.0765 -0.0255 -0.2897
  378loPI   C4B 6048  10.015   0.393   8.083  0.2189  0.2361 -0.0221
  379loPI    C1 6049   8.725  14.269  10.388  0.4381 -0.1894  0.4381
  379loPI    C2 6050   8.885  14.634  10.416 -0.0674  0.0893 -0.1126
  379loPI    C3 6051   8.553  14.545  10.621  0.1088 -0.0970  0.0955
  379loPI   PO4 6052   8.854  14.200  10.114  0.1973 -0.3201  0.1357
  379loPI   GL1 6053   8.975  14.229   9.684 -0.0097  0.0091  0.1758
  379loPI   GL2 6054   9.109  14.625   9.740 -0.1798  0.4104  0.0307
  379loPI   C1A 6055   8.924  14.356   9.256  0.0901  0.0072 -0.1068
  379loPI   C2A 6056   9.012  14.187   8.859  0.2809  0.0253 -0.2995
  379loPI   C3A 6057   9.177  14.152   8.369 -0.4665  0.0845 -0.6469
  379loPI   C4A 6058   9.142  13.944   8.076  0.0237 -0.1499 -0.4094
  379loPI   C5A 6059   9.363  13.980   7.698 -0.0843 -0.0221 -0.2058
  379loPI   C6A 6060   9.397  13.648   7.407  0.0051  0.3223 -0.0718
  379loPI   C1B 6061   9.231  14.774   9.374 -0.2799  0.0255 -0.0180
  379loPI   C2B 6062   9.261  14.680   8.971  0.1484 -0.2412 -0.0185
  379loPI   C3B 6063   9.393  14.599   8.530 -0.1021 -0.1885  0.3943
  379loPI   C4B 6064   9.634  14.786   8.197 -0.0326  0.2356 -0.1182
  380loPI    C1 6065  16.716  18.465  10.662  0.0720 -0.0473 -0.1941
  380loPI    C2 6066  16.647  18.073  10.623 -0.2552 -0.0233  0.0959
  380loPI    C3 6067  16.853  18.210  10.937 -0.0090  0.0263 -0.0846
  380loPI   PO4 6068  16.852  18.526  10.456 -0.1992 -0.1186 -0.1876
  380loPI   GL1 6069  17.049  18.412  10.106  0.1135  0.1723 -0.2754
  380loPI   GL2 6070  16.966  18.177   9.905 -0.3149 -0.0650 -0.3671
  380loPI   C1A 6071  17.190  18.583   9.717 -0.2367 -0.5003  0.0259
  380loPI   C2A 6072  17.310  18.668   9.288  0.2124  0.1523  0.0376
  380loPI   C3A 6073  17.230  18.620   8.871 -0.0694  0.1630  0.0482
  380loPI   C4A 6074  17.167  18.514   8.277 -0.4161  0.0743  0.4334
  380loPI   C5A 6075  17.239  18.168   7.928  0.2420 -0.1262  0.1752
  380loPI   C6A 6076  16.963  17.948   7.559  0.0594  0.2301  0.1246
  380loPI   C1B 6077  16.998  18.217   9.405 -0.0582  0.1623  0.0571
  380loPI   C2B 6078  16.946  18.223   8.964  0.1130 -0.2122 -0.0063
  380loPI   C3B 6079  16.861  18.125   8.542  0.1780  0.1747 -0.0426
  380loPI   C4B 6080  16.738  18.235   8.168  0.2452 -0.0578 -0.2163
  381loPI    C1 6081   5.105  16.308  10.626 -0.2121 -0.1197  0.2119
  381loPI    C2 6082   5.148  16.038  10.335 -0.2596  0.0226  0.0718
  381loPI    C3 6083   5.402  16.040  10.644 -0.2195 -0.1402  0.0412
  381loPI   PO4 6084   4.988  16.542  10.495 -0.1451  0.4871  0.2127
  381loPI   GL1 6085   4.906  16.472  10.081  0.1661  0.1761  0.5564
  381loPI   GL2 6086   5.047  16.237   9.886 -0.2425 -0.2926  0.0505
  381loPI   C1A 6087   4.958  16.657   9.534 -0.0216  0.1044 -0.0391
  381loPI   C2A 6088   4.885  16.603   9.078 -0.0957 -0.0080 -0.0895
  381loPI   C3A 6089   4.860  16.875   8.665  0.2375 -0.2173  0.0405
  381loPI   C4A 6090   4.630  16.898   8.319  0.3170  0.0992 -0.0966
  381loPI   C5A 6091   4.419  16.706   7.975  0.2735  0.1693 -0.0148
  381loPI   C6A 6092   3.956  16.627   7.856  0.1932  0.2881 -0.0396
  381loPI   C1B 6093   4.888  16.076   9.438 -0.0094  0.0136  0.1123
  381loPI   C2B 6094   4.921  16.022   8.966  0.0553  0.0730 -0.3988
  381loPI   C3B 6095   5.014  16.036   8.473  0.2160  0.0484  0.0570
  381loPI   C4B 6096   5.146  16.148   7.997 -0.2475 -0.0270  0.0213
  382loPI    C1 6097   5.243  14.599  10.113  0.1476  0.3355 -0.1963
  382loPI    C2 6098   4.994  14.877  10.258 -0.1556 -0.0977  0.1442
  382loPI    C3 6099   5.197  14.641  10.509  0.2893 -0.0268 -0.1381
  382loPI   PO4 6100   5.345  14.681   9.839  0.0397 -0.0141 -0.2259
  382loPI   GL1 6101   5.614  14.715   9.499 -0.1790 -0.2093 -0.0845
  382loPI   GL2 6102   5.787  14.953   9.428  0.1009  0.1097  0.2619
  382loPI   C1A 6103   5.945  14.647   9.088 -0.2546  0.1150 -0.0801
  382loPI   C2A 6104   6.038  14.582   8.682 -0.0842 -0.0719 -0.0733
  382loPI   C3A 6105   5.966  14.601   8.306 -0.0986 -0.1045  0.1073
  382loPI   C4A 6106   5.843  14.394   7.887 -0.1095  0.0078  0.0278
  382loPI   C5A 6107   5.710  14.102   7.621  0.0362 -0.1399 -0.0270
  382loPI   C6A 6108   5.581  14.257   7.141 -0.0581  0.0822 -0.1386
  382loPI   C1B 6109   5.488  15.213   9.163  0.1570  0.1068 -0.0171
  382loPI   C2B 6110   5.463  15.192   8.827 -0.3775  0.2305 -0.0584
  382loPI   C3B 6111   5.364  15.111   8.423 -0.1188 -0.0106 -0.2553
  382loPI   C4B 6112   5.232  15.139   7.997 -0.0048  0.2163 -0.2031
  383loPI    C1 6113   3.907   8.164  10.606  0.0347 -0.1717  0.0272
  383loPI    C2 6114   3.565   8.202  10.810  0.1391 -0.2712  0.2240
  383loPI    C3 6115   3.895   8.072  10.995  0.2415 -0.3439 -0.0050
  383loPI   PO4 6116   3.811   8.236  10.376 -0.2229  0.0663 -0.0926
  383loPI   GL1 6117   3.895   8.066   9.913 -0.0032  0.2644 -0.0838
  383loPI   GL2 6118   4.163   8.057   9.812  0.2003  0.3503 -0.0874
  383loPI   C1A 6119   3.490   8.113   9.711 -0.0578 -0.2249 -0.0709
  383loPI   C2A 6120   3.230   7.761   9.447  0.2697 -0.1327  0.0581
  383loPI   C3A 6121   3.047   7.741   9.044  0.0761 -0.4458 -0.1520
  383loPI   C4A 6122   3.075   7.759   8.661  0.0246 -0.0948  0.0525
  383loPI   C5A 6123   3.485   7.800   8.334  0.2176 -0.0678  0.1304
  383loPI   C6A 6124   3.540   7.751   7.840  0.1217 -0.0383 -0.0950
  383loPI   C1B 6125   4.114   8.277   9.388 -0.1697  0.0648  0.2771
  383loPI   C2B 6126   4.059   8.124   8.864 -0.1841  0.4580  0.1420
  383loPI   C3B 6127   3.995   8.099   8.418 -0.1763 -0.0789  0.2887
  383loPI   C4B 6128   3.725   8.151   8.052 -0.1003 -0.0427 -0.0791
  384loPI    C1 6129   2.868   9.639  10.468  0.3312  0.0971  0.1785
  384loPI    C2 6130   2.756   9.954  10.688  0.2788  0.2163 -0.0166
  384loPI    C3 6131   2.716   9.584  10.834 -0.0941  0.2726  0.0346
  384loPI   PO4 6132   2.840   9.795  10.226  0.0877 -0.2111 -0.2533
  384loPI   GL1 6133   2.858   9.733   9.827  0.3463 -0.1540 -0.0986
  384loPI   GL2 6134   3.047   9.988   9.796  0.2855 -0.0822 -0.1299
  384loPI   C1A 6135   2.746   9.620   9.423 -0.2883  0.0924  0.3098
  384loPI   C2A 6136   2.653   9.581   9.001 -0.4966  0.0095  0.0244
  384loPI   C3A 6137   2.502   9.603   8.616 -0.1450 -0.2181 -0.1651
  384loPI   C4A 6138   2.466   9.425   8.132  0.0177  0.1140  0.1694
  384loPI   C5A 6139   2.659   9.425   7.758  0.3093  0.1721  0.4795
  384loPI   C6A 6140   2.739   9.189   7.344  0.0074 -0.0422  0.0460
  384loPI   C1B 6141   3.020  10.210   9.327 -0.2529  0.0377 -0.1390
  384loPI   C2B 6142   2.893  10.130   8.899  0.1335 -0.0823 -0.0765
  384loPI   C3B 6143   2.797  10.065   8.493  0.0102 -0.3314  0.2849
  384loPI   C4B 6144   2.429   9.915   8.229 -0.1197  0.4067  0.2588
  385loPI    C1 6145   6.929   5.373  10.543  0.0297  0.0690 -0.0074
  385loPI    C2 6146   6.610   5.147  10.624  0.1415 -0.0984 -0.0296
  385loPI    C3 6147   6.716   5.439  10.876  0.0052 -0.0794  0.0068
  385loPI   PO4 6148   7.035   5.383  10.276  0.4663  0.0918  0.1891
  385loPI   GL1 6149   7.141   5.552   9.926 -0.0916  0.2522  0.1544
  385loPI   GL2 6150   6.704   5.584   9.960  0.1073 -0.5982  0.0614
  385loPI   C1A 6151   7.115   5.569   9.497  0.1516  0.4166 -0.1358
  385loPI   C2A 6152   7.325   5.399   9.172 -0.0245  0.2257 -0.1968
  385loPI   C3A 6153   7.495   5.306   8.750  0.0481  0.1954  0.1929
  385loPI   C4A 6154   7.560   5.217   8.343  0.1480  0.0466 -0.1898
  385loPI   C5A 6155   7.591   5.081   7.927 -0.3565  0.2588  0.2811
  385loPI   C6A 6156   7.170   4.749   7.784  0.3880 -0.0435  0.0933
  385loPI   C1B 6157   6.648   5.350   9.517  0.3053  0.1759 -0.2448
  385loPI   C2B 6158   6.772   5.513   9.136 -0.2393 -0.0118  0.1722
  385loPI   C3B 6159   6.861   5.481   8.685 -0.3145  0.0061 -0.2208
  385loPI   C4B 6160   6.792   5.256   8.359  0.0200 -0.0818  0.1307
  386loPI    C1 6161  17.021   9.814  11.021  0.1748 -0.0932 -0.0750
  386loPI    C2 6162  16.982  10.200  11.118  0.0370 -0.0952 -0.1200
  386loPI    C3 6163  17.089   9.933  11.397 -0.0294 -0.0499 -0.0506
  386loPI   PO4 6164  17.110   9.794  10.856 -0.0794  0.1402  0.5869
  386loPI   GL1 6165  16.969  10.096  10.582  0.0438  0.1347 -0.0672
  386loPI   GL2 6166  16.952  10.283  10.379 -0.3818 -0.1776  0.1174
  386loPI   C1A 6167  16.899   9.858  10.063 -0.1994 -0.1969  0.1831
  386loPI   C2A 6168  16.869   9.774   9.596 -0.1061  0.1922  0.0135
  386loPI   C3A 6169  16.868   9.754   9.211 -0.1861 -0.1532  0.1549
  386loPI   C4A 6170  16.825   9.683   8.891 -0.0071 -0.0479 -0.0443
  386loPI   C5A 6171  16.822   9.800   8.480 -0.1263 -0.2173  0.2379
  386loPI   C6A 6172  16.778  10.048   8.155  0.2673  0.1973 -0.0702
  386loPI   C1B 6173  17.079  10.318   9.922  0.0877 -0.1025  0.0002
  386loPI   C2B 6174  17.081  10.205   9.561  0.1947  0.0348 -0.2389
  386loPI   C3B 6175  17.125  10.199   9.140 -0.0074 -0.0409 -0.1682
  386loPI   C4B 6176  17.058  10.191   8.757 -0.0224  0.0793 -0.0241
  387loPI    C1 6177   9.590   7.050  10.474  0.0055  0.1468  0.0184
  387loPI    C2 6178   9.374   6.833  10.732 -0.0410  0.0939 -0.0647
  387loPI    C3 6179   9.772   6.851  10.769 -0.0356 -0.0169 -0.0656
  387loPI   PO4 6180   9.535   6.971  10.249  0.0035 -0.4111 -0.1927
  387loPI   GL1 6181   9.340   6.880   9.964 -0.2871 -0.0691  0.1259
  387loPI   GL2 6182   9.336   6.565   9.861 -0.0421 -0.4561  0.0635
  387loPI   C1A 6183   9.342   6.974   9.563  0.2259  0.0155  0.1463
  387loPI   C2A 6184   9.334   6.884   9.244 -0.0303 -0.1482  0.3989
  387loPI   C3A 6185   9.220   6.781   8.821 -0.1294  0.1014 -0.1201
  387loPI   C4A 6186   9.299   6.721   8.390 -0.0397 -0.0440 -0.2255
  387loPI   C5A 6187   9.057   6.767   8.045 -0.1478 -0.0856  0.2891
  387loPI   C6A 6188   8.911   6.730   7.571  0.0876 -0.3302  0.0095
  387loPI   C1B 6189   9.460   6.314   9.527 -0.0651  0.3202 -0.3647
  387loPI   C2B 6190   9.439   6.359   9.024  0.0747 -0.0019  0.0777
  387loPI   C3B 6191   9.472   6.240   8.521  0.2303  0.0060 -0.0672
  387loPI   C4B 6192   9.410   6.373   8.049 -0.2999  0.0766 -0.0235
  388loPI    C1 6193  17.251  13.282  10.706 -0.0107  0.0528  0.0160
  388loPI    C2 6194  16.995  12.989  10.800 -0.1705  0.1540 -0.1001
  388loPI    C3 6195  17.064  13.286  11.060 -0.1777  0.1312 -0.0720
  388loPI   PO4 6196  17.205  13.346  10.383 -0.1374  0.2217 -0.0114
  388loPI   GL1 6197  17.076  13.616  10.095  0.2391 -0.0857 -0.1681
  388loPI   GL2 6198  17.448  13.539   9.989  0.2127 -0.2875  0.1127
  388loPI   C1A 6199  16.891  13.545   9.754  0.0986 -0.0096 -0.2051
  388loPI   C2A 6200  16.935  13.502   9.356  0.0330 -0.0657  0.2161
  388loPI   C3A 6201  16.938  13.417   8.818 -0.1852  0.3125 -0.1579
  388loPI   C4A 6202  16.957  13.444   8.388  0.2997 -0.2990 -0.2299
  388loPI   C5A 6203  17.018  13.758   8.069 -0.2556 -0.3093  0.1650
  388loPI   C6A 6204  16.993  14.152   8.011  0.0689  0.2170 -0.0253
  388loPI   C1B 6205  17.435  13.572   9.508  0.1756  0.0502  0.0100
  388loPI   C2B 6206  17.495  13.403   9.063  0.0752 -0.2969  0.0069
  388loPI   C3B 6207  17.425  13.410   8.668  0.1536 -0.1296  0.0347
  388loPI   C4B 6208  17.522  13.347   8.219 -0.1311  0.3397 -0.0093
  389loPI    C1 6209   4.564   8.210  10.708 -0.0766  0.1709 -0.0925
  389loPI    C2 6210   4.588   8.595  10.601 -0.0408  0.2424  0.1655
  389loPI    C3 6211   4.249   8.452  10.758 -0.2129  0.0523 -0.3560
  389loPI   PO4 6212   4.688   8.086  10.410  0.0800  0.2356 -0.2106
  389loPI   GL1 6213   4.865   8.082   9.981 -0.2332 -0.1680  0.1017
  389loPI   GL2 6214   4.630   7.850   9.991 -0.3634 -0.4171  0.1930
  389loPI   C1A 6215   4.597   8.376   9.801  0.0557  0.1246  0.0661
  389loPI   C2A 6216   4.482   8.657   9.506  0.2266  0.3393 -0.2828
  389loPI   C3A 6217   4.420   8.500   9.034 -0.0931 -0.3460  0.0413
  389loPI   C4A 6218   4.366   8.383   8.572  0.1750 -0.0157 -0.4074
  389loPI   C5A 6219   4.451   8.184   8.230 -0.2610  0.0601  0.0980
  389loPI   C6A 6220   4.182   8.045   7.910 -0.1499 -0.0017 -0.0859
  389loPI   C1B 6221   4.547   7.864   9.503  0.1342  0.1525  0.2206
  389loPI   C2B 6222   4.328   7.790   9.335  0.0369 -0.2074  0.2926
  389loPI   C3B 6223   4.182   7.642   9.037  0.2551 -0.5506 -0.0141
  389loPI   C4B 6224   3.845   7.268   8.952  0.2064  0.0206 -0.1888
  390loPI    C1 6225   0.670   4.196  10.890  0.0280  0.3514  0.0281
  390loPI    C2 6226   0.974   4.119  11.139  0.0067 -0.0162 -0.0526
  390loPI    C3 6227   0.597   4.089  11.269 -0.0008  0.1376 -0.0364
  390loPI   PO4 6228   0.768   4.056  10.609  0.2309  0.2059 -0.2398
  390loPI   GL1 6229   0.970   4.158  10.200 -0.0100  0.0155 -0.4313
  390loPI   GL2 6230   1.268   4.398  10.143  0.5886 -0.0630  0.2382
  390loPI   C1A 6231   0.827   4.226   9.698 -0.0223 -0.1177  0.1305
  390loPI   C2A 6232   0.917   4.210   9.286 -0.0138  0.0098 -0.0535
  390loPI   C3A 6233   0.840   4.179   8.818  0.3243 -0.1974  0.0651
  390loPI   C4A 6234   0.770   4.089   8.436 -0.1537 -0.0442 -0.0584
  390loPI   C5A 6235   0.567   4.182   8.011  0.0463  0.0392 -0.3031
  390loPI   C6A 6236   0.121   4.133   8.004  0.1172  0.0229  0.1009
  390loPI   C1B 6237   1.303   4.676   9.794 -0.3329  0.2129  0.1232
  390loPI   C2B 6238   1.216   4.664   9.339  0.0997  0.1670 -0.0740
  390loPI   C3B 6239   1.161   4.642   8.918  0.0561 -0.0285  0.2869
  390loPI   C4B 6240   1.140   4.524   8.553 -0.2140  0.2021  0.1113
  391loPI    C1 6241  13.723   0.302  10.736  0.0449  0.0237  0.0810
  391loPI    C2 6242  13.406   0.168  10.939 -0.0690 -0.0272 -0.1273
  391loPI    C3 6243  13.606   0.488  11.070 -0.2296  0.0288 -0.0149
  391loPI   PO4 6244  13.880   0.060  10.598  0.2291  0.1361  0.0966
  391loPI   GL1 6245  13.945   0.045  10.147 -0.4015 -0.1655 -0.2344
  391loPI   GL2 6246  14.188   0.201   9.958  0.2080  0.2261 -0.1812
  391loPI   C1A 6247  13.770   0.461   9.959 -0.0542  0.3943 -0.0228
  391loPI   C2A 6248  13.822   0.772   9.572  0.0966  0.0135  0.0631
  391loPI   C3A 6249  13.864   0.790   9.102  0.0029 -0.1324  0.3794
  391loPI   C4A 6250  14.043   0.731   8.717 -0.3089  0.2018  0.0558
  391loPI   C5A 6251  13.992   0.689   8.349  0.0103 -0.1065 -0.0321
  391loPI   C6A 6252  13.894   0.961   8.033  0.0062  0.0009 -0.0779
  391loPI   C1B 6253  14.253   0.204   9.483  0.0979 -0.3428 -0.3314
  391loPI   C2B 6254  14.359   0.223   9.138 -0.3174 -0.2205 -0.2495
  391loPI   C3B 6255  14.124   0.235   8.797 -0.0567  0.1778  0.1232
  391loPI   C4B 6256  14.080   0.214   8.282  0.2072  0.2315  0.1039
  392loPI    C1 6257  18.023  11.811  10.826 -0.0760  0.1098  0.0284
  392loPI    C2 6258  17.884  12.085  11.082 -0.3046 -0.1518  0.1896
  392loPI    C3 6259  17.783  11.701  11.126 -0.0983 -0.2448 -0.1153
  392loPI   PO4 6260  17.966  11.907  10.602 -0.3893  0.1569  0.2447
  392loPI   GL1 6261  18.008  11.828  10.200 -0.3249 -0.0627  0.2528
  392loPI   GL2 6262  18.330  11.790  10.070 -0.0806 -0.0411  0.2534
  392loPI   C1A 6263  17.804  11.687   9.927  0.0650  0.1215 -0.2339
  392loPI   C2A 6264  17.971  11.568   9.599  0.2775 -0.2220 -0.1485
  392loPI   C3A 6265  17.945  11.583   9.264 -0.0229 -0.1127 -0.0234
  392loPI   C4A 6266  18.023  11.670   8.778 -0.0021  0.1351 -0.2909
  392loPI   C5A 6267  18.074  11.625   8.355  0.0794 -0.2298 -0.0878
  392loPI   C6A 6268  18.125  11.318   7.981 -0.0103  0.0735 -0.0681
  392loPI   C1B 6269  18.429  11.566   9.761  0.3704  0.2054  0.1879
  392loPI   C2B 6270  18.469  11.663   9.284  0.4038 -0.0043  0.0074
  392loPI   C3B 6271  18.464  11.494   8.960 -0.3510 -0.1360  0.1983
  392loPI   C4B 6272  18.457  11.444   8.576 -0.0430 -0.0175  0.0746
  393loPI    C1 6273   4.362   3.509  10.283  0.2401  0.2313 -0.1333
  393loPI    C2 6274   4.626   3.610  10.567  0.1068 -0.0856  0.1100
  393loPI    C3 6275   4.350   3.330  10.641 -0.2681  0.2018 -0.1583
  393loPI   PO4 6276   4.277   3.638  10.232 -0.1452 -0.1101  0.0997
  393loPI   GL1 6277   4.324   4.071   9.962 -0.1503 -0.1583  0.0249
  393loPI   GL2 6278   4.167   3.855   9.734  0.0689 -0.1678 -0.0584
  393loPI   C1A 6279   4.451   4.164   9.519  0.2763  0.2752 -0.0792
  393loPI   C2A 6280   4.422   4.048   9.087  0.1987  0.2765 -0.0122
  393loPI   C3A 6281   4.585   3.898   8.622  0.0389  0.3295  0.0375
  393loPI   C4A 6282   4.775   3.644   8.267  0.3014  0.0524  0.1150
  393loPI   C5A 6283   4.814   3.390   7.941 -0.1340  0.1374 -0.0728
  393loPI   C6A 6284   4.803   2.943   7.863 -0.0173 -0.3600  0.1132
  393loPI   C1B 6285   4.013   3.890   9.366 -0.2176  0.0862  0.1212
  393loPI   C2B 6286   3.858   3.997   8.866 -0.3038  0.1530  0.1613
  393loPI   C3B 6287   3.949   4.014   8.449 -0.1184  0.0669  0.0341
  393loPI   C4B 6288   3.877   3.935   7.994 -0.3573  0.0762  0.1780
  394loPI    C1 6289  13.687  13.599  10.367 -0.0757 -0.1885  0.1298
  394loPI    C2 6290  14.023  13.740  10.532 -0.1133  0.1027 -0.0361
  394loPI    C3 6291  13.669  13.897  10.634 -0.1723  0.0021 -0.0855
  394loPI   PO4 6292  13.845  13.567  10.087  0.1162  0.1583 -0.1603
  394loPI   GL1 6293  13.920  13.378   9.856  0.3551 -0.1845 -0.0633
  394loPI   GL2 6294  13.611  13.497   9.657  0.0138 -0.2796 -0.2963
  394loPI   C1A 6295  13.878  13.124   9.471 -0.1985 -0.0250 -0.0175
  394loPI   C2A 6296  13.950  13.026   9.037 -0.2655  0.3556  0.0151
  394loPI   C3A 6297  14.025  12.863   8.657 -0.2860  0.0967 -0.2805
  394loPI   C4A 6298  14.136  12.746   8.251  0.0336  0.0069  0.1564
  394loPI   C5A 6299  14.250  12.674   7.918  0.0800  0.0674 -0.1866
  394loPI   C6A 6300  14.467  12.674   7.454  0.0794 -0.3038  0.1217
  394loPI   C1B 6301  13.650  13.515   9.238 -0.0966  0.1274 -0.1715
  394loPI   C2B 6302  13.806  13.599   8.806 -0.1181 -0.0360 -0.0902
  394loPI   C3B 6303  13.883  13.418   8.345  0.1279 -0.1471 -0.3781
  394loPI   C4B 6304  13.968  13.617   7.968 -0.0707 -0.1924 -0.0120
  395loPI    C1 6305  12.526   3.392  10.841 -0.1029  0.1322 -0.1799
  395loPI    C2 6306  12.159   3.338  10.692 -0.0998 -0.1769 -0.0813
  395loPI    C3 6307  12.265   3.158  11.034  0.0631  0.1108  0.0229
  395loPI   PO4 6308  12.604   3.525  10.650 -0.1576 -0.1398  0.0464
  395loPI   GL1 6309  12.774   3.445  10.268 -0.1552 -0.1561 -0.1354
  395loPI   GL2 6310  12.637   3.295  10.031  0.0713  0.1130 -0.1762
  395loPI   C1A 6311  13.097   3.378  10.012 -0.0016 -0.0219  0.0870
  395loPI   C2A 6312  13.278   3.451   9.622 -0.1112 -0.0318 -0.0218
  395loPI   C3A 6313  13.377   3.446   9.124  0.2167 -0.3215 -0.3921
  395loPI   C4A 6314  13.490   3.599   8.698 -0.0294 -0.1963 -0.0221
  395loPI   C5A 6315  13.601   3.816   8.325  0.1029 -0.3756 -0.1338
  395loPI   C6A 6316  13.717   4.200   8.189 -0.1422 -0.3085  0.0041
  395loPI   C1B 6317  12.750   3.389   9.673 -0.2986 -0.0946  0.0660
  395loPI   C2B 6318  12.864   3.458   9.270  0.1343  0.0611  0.0228
  395loPI   C3B 6319  12.948   3.414   8.836 -0.1272 -0.3168  0.0981
  395loPI   C4B 6320  13.072   3.602   8.367 -0.2205  0.1163 -0.2283
  396loPI    C1 6321  16.891   4.322  11.169 -0.1919 -0.0386  0.0858
  396loPI    C2 6322  16.589   4.060  11.177 -0.0113 -0.2549 -0.0721
  396loPI    C3 6323  16.885   4.032  11.444 -0.1010 -0.0768  0.0479
  396loPI   PO4 6324  16.963   4.266  10.865 -0.1178  0.1116  0.0270
  396loPI   GL1 6325  16.938   4.565  10.572 -0.0536  0.1378  0.1357
  396loPI   GL2 6326  17.244   4.644  10.572 -0.3789  0.1483  0.0429
  396loPI   C1A 6327  16.861   4.604  10.072  0.1130 -0.0315 -0.0457
  396loPI   C2A 6328  16.937   4.699   9.646 -0.0802 -0.1725 -0.0411
  396loPI   C3A 6329  17.104   4.736   9.102 -0.1242  0.1275  0.2746
  396loPI   C4A 6330  16.976   4.741   8.752 -0.2761 -0.1172  0.0676
  396loPI   C5A 6331  16.998   4.720   8.321 -0.0502  0.1655 -0.2101
  396loPI   C6A 6332  17.112   5.047   8.046 -0.2097 -0.6216 -0.1634
  396loPI   C1B 6333  17.411   4.638  10.136 -0.1929 -0.3092 -0.0611
  396loPI   C2B 6334  17.427   4.663   9.694 -0.3834  0.3254 -0.2458
  396loPI   C3B 6335  17.542   4.691   9.271 -0.2215 -0.0487 -0.0540
  396loPI   C4B 6336  17.546   4.806   8.869  0.0159 -0.1554  0.1904
  397loPI    C1 6337  16.128   9.074  10.945 -0.0207 -0.1414  0.0074
  397loPI    C2 6338  15.810   8.920  10.759  0.2378 -0.5231 -0.1313
  397loPI    C3 6339  15.830   8.914  11.158 -0.0284 -0.2864 -0.1109
  397loPI   PO4 6340  16.255   9.314  10.772  0.2897  0.1105  0.1402
  397loPI   GL1 6341  16.258   9.438  10.355 -0.4264  0.0816 -0.1804
  397loPI   GL2 6342  16.510   9.426  10.204 -0.0512  0.0871  0.0258
  397loPI   C1A 6343  16.019   9.477   9.941 -0.0617  0.1263  0.2464
  397loPI   C2A 6344  16.043   9.395   9.538  0.0514  0.0074  0.1386
  397loPI   C3A 6345  16.127   9.375   9.096  0.0355  0.2166  0.1711
  397loPI   C4A 6346  16.190   9.098   8.628 -0.2251 -0.0235  0.0690
  397loPI   C5A 6347  16.178   8.711   8.254 -0.0158  0.0145  0.0448
  397loPI   C6A 6348  16.091   8.200   8.338  0.0833 -0.0536 -0.1711
  397loPI   C1B 6349  16.597   9.472   9.871 -0.0510  0.0604  0.1651
  397loPI   C2B 6350  16.542   9.365   9.441  0.0523 -0.0853 -0.0628
  397loPI   C3B 6351  16.622   9.243   9.008 -0.0256 -0.3532 -0.3630
  397loPI   C4B 6352  16.673   9.240   8.560  0.1479  0.0438  0.2480
  398loPI    C1 6353  10.046  10.488  10.361 -0.0633  0.2216 -0.0593
  398loPI    C2 6354   9.738  10.620  10.142 -0.2061  0.0406  0.0301
  398loPI    C3 6355   9.700  10.580  10.539 -0.0371  0.1045  0.0538
  398loPI   PO4 6356  10.304  10.569  10.131  0.1545 -0.2331  0.3268
  398loPI   GL1 6357  10.215  10.634   9.749  0.1529  0.2926  0.2697
  398loPI   GL2 6358  10.471  10.770   9.678 -0.0831 -0.2269 -0.0800
  398loPI   C1A 6359  10.284  10.490   9.254 -0.1670 -0.3049 -0.0516
  398loPI   C2A 6360  10.378  10.404   8.803  0.0875  0.0057  0.0513
  398loPI   C3A 6361  10.331  10.300   8.488  0.1871  0.1091 -0.1072
  398loPI   C4A 6362  10.462  10.175   8.127 -0.2752  0.0829 -0.0869
  398loPI   C5A 6363  10.627   9.911   7.770  0.2580 -0.1892 -0.0294
  398loPI   C6A 6364  10.660   9.516   7.576  0.0993  0.0343  0.1078
  398loPI   C1B 6365  10.602  11.026   9.367 -0.0536  0.0801  0.2242
  398loPI   C2B 6366  10.551  11.006   8.937  0.1277  0.1106 -0.1444
  398loPI   C3B 6367  10.581  10.707   8.526 -0.3175 -0.1544  0.0445
  398loPI   C4B 6368  10.558  10.653   8.205 -0.2821 -0.1377  0.0218
  399loPI    C1 6369   2.193   3.636  10.584 -0.0928 -0.1473 -0.1271
  399loPI    C2 6370   2.197   3.361  10.874  0.2537 -0.0426 -0.0285
  399loPI    C3 6371   2.095   3.739  10.957  0.0841 -0.0717 -0.1006
  399loPI   PO4 6372   2.157   3.583  10.348  0.1029  0.2648 -0.1768
  399loPI   GL1 6373   2.205   3.596   9.951 -0.1398  0.0849  0.1149
  399loPI   GL2 6374   2.096   3.341   9.756  0.0095  0.0183 -0.0589
  399loPI   C1A 6375   2.305   3.745   9.458 -0.2646 -0.0624 -0.2335
  399loPI   C2A 6376   2.229   3.740   9.119  0.1280 -0.1685  0.1775
  399loPI   C3A 6377   2.180   3.675   8.659 -0.2002  0.2036  0.0544
  399loPI   C4A 6378   2.097   3.572   8.255  0.3770 -0.2083  0.1053
  399loPI   C5A 6379   2.208   3.771   7.912  0.0110  0.0826  0.4847
  399loPI   C6A 6380   2.439   3.821   7.432 -0.1045 -0.2250  0.0028
  399loPI   C1B 6381   2.002   3.344   9.330 -0.0437 -0.0141  0.0666
  399loPI   C2B 6382   1.895   3.193   8.942  0.1592 -0.2213  0.2920
  399loPI   C3B 6383   1.866   3.163   8.472  0.1259 -0.1686 -0.2785
  399loPI   C4B 6384   1.676   3.119   8.063 -0.0766  0.2194 -0.2546
  400loPI    C1 6385  18.257   4.320  10.936  0.0026  0.0987  0.3851
  400loPI    C2 6386  18.341   3.934  11.001 -0.0013  0.0939  0.3612
  400loPI    C3 6387  18.636   4.193  10.923 -0.0170  0.0579  0.1785
  400loPI   PO4 6388  18.062   4.293  10.703 -0.2333  0.2792  0.1784
  400loPI   GL1 6389  18.090   4.309  10.300 -0.2454  0.2634  0.0855
  400loPI   GL2 6390  18.162   4.618  10.190 -0.0779 -0.4167 -0.3475
  400loPI   C1A 6391  18.295   4.191   9.878 -0.1139 -0.2528 -0.1082
  400loPI   C2A 6392  18.393   4.209   9.402  0.1621  0.1922  0.1996
  400loPI   C3A 6393  18.195   4.218   9.020  0.2049 -0.3210 -0.1622
  400loPI   C4A 6394  18.182   4.180   8.580 -0.0799 -0.1630  0.0078
  400loPI   C5A 6395  18.214   4.439   8.196 -0.0023 -0.1770  0.0999
  400loPI   C6A 6396  18.089   4.828   8.053  0.1764  0.0582  0.0866
  400loPI   C1B 6397  18.033   4.677   9.816 -0.1978 -0.1378 -0.0464
  400loPI   C2B 6398  18.139   4.647   9.392  0.0880 -0.1012  0.0355
  400loPI   C3B 6399  18.053   4.683   9.016  0.2259 -0.0267 -0.1041
  400loPI   C4B 6400  17.916   4.674   8.531  0.0066  0.0179 -0.3021
  401loPI    C1 6401  12.338  10.439  10.169  0.1256  0.0820  0.0474
  401loPI    C2 6402  11.954  10.391  10.270  0.1387  0.0171  0.0667
  401loPI    C3 6403  12.154  10.715  10.392  0.0430  0.1347 -0.0851
  401loPI   PO4 6404  12.411  10.354   9.888  0.2142 -0.3626  0.1386
  401loPI   GL1 6405  12.517  10.369   9.510 -0.1065  0.0387 -0.1121
  401loPI   GL2 6406  12.852  10.379   9.553  0.0182 -0.2316  0.0673
  401loPI   C1A 6407  12.546  10.332   9.013  0.0278  0.1339 -0.0205
  401loPI   C2A 6408  12.323  10.568   8.676 -0.0155  0.1533 -0.2069
  401loPI   C3A 6409  12.305  10.514   8.136 -0.2391  0.1362  0.2739
  401loPI   C4A 6410  12.287  10.207   7.781  0.3706 -0.0928  0.2526
  401loPI   C5A 6411  12.007   9.896   7.660  0.0036  0.0834 -0.0955
  401loPI   C6A 6412  11.737   9.937   7.407 -0.2336 -0.0674  0.1073
  401loPI   C1B 6413  13.059  10.324   9.089 -0.1094 -0.2350 -0.1437
  401loPI   C2B 6414  13.053  10.216   8.664 -0.1725  0.1288 -0.1748
  401loPI   C3B 6415  13.144  10.220   8.245 -0.1815 -0.2547 -0.1308
  401loPI   C4B 6416  13.290  10.431   7.853 -0.1453  0.3953  0.1411
  402loPI    C1 6417   2.149   7.162  10.542  0.0023  0.1313 -0.0301
  402loPI    C2 6418   1.799   7.121  10.730 -0.0055  0.1029 -0.0506
  402loPI    C3 6419   2.125   7.231  10.935 -0.0497  0.2383 -0.0521
  402loPI   PO4 6420   2.175   6.955  10.337 -0.1960  0.3006  0.0549
  402loPI   GL1 6421   2.086   6.867   9.959  0.0383  0.0342 -0.2523
  402loPI   GL2 6422   1.905   6.641  10.035 -0.0478  0.3207 -0.4631
  402loPI   C1A 6423   2.144   6.936   9.559 -0.2662 -0.1010 -0.1783
  402loPI   C2A 6424   2.027   6.840   9.149 -0.1919 -0.1299 -0.1414
  402loPI   C3A 6425   2.111   6.960   8.748 -0.0771  0.0991  0.1109
  402loPI   C4A 6426   2.045   6.997   8.283 -0.3326 -0.1515  0.3030
  402loPI   C5A 6427   1.565   6.937   8.111 -0.1176  0.0253  0.3238
  402loPI   C6A 6428   1.164   7.074   8.040  0.2331 -0.0795 -0.0318
  402loPI   C1B 6429   1.880   6.497   9.549  0.0772 -0.1761 -0.2135
  402loPI   C2B 6430   1.851   6.334   9.183 -0.0900 -0.2203 -0.0412
  402loPI   C3B 6431   1.681   6.339   8.763  0.2601 -0.2966 -0.2245
  402loPI   C4B 6432   1.749   6.526   8.347 -0.2735  0.0376  0.0956
  403loPI    C1 6433   9.323   5.953  10.424 -0.0671  0.0093 -0.1615
  403loPI    C2 6434   8.969   6.025  10.594 -0.0036  0.2525 -0.1280
  403loPI    C3 6435   9.303   6.168  10.761  0.1251 -0.0872 -0.0868
  403loPI   PO4 6436   9.266   5.797  10.223 -0.0434 -0.0160 -0.0701
  403loPI   GL1 6437   9.177   5.817   9.737 -0.1260  0.0397 -0.0716
  403loPI   GL2 6438   9.487   5.863   9.726  0.2602  0.1682  0.0841
  403loPI   C1A 6439   9.101   6.003   9.384  0.1340  0.1125 -0.2264
  403loPI   C2A 6440   9.106   5.905   9.027  0.1509  0.0558 -0.0959
  403loPI   C3A 6441   9.222   5.772   8.588 -0.0205  0.1968 -0.0331
  403loPI   C4A 6442   9.306   5.869   8.177  0.0963 -0.1674  0.2303
  403loPI   C5A 6443   9.325   5.915   7.744 -0.1820  0.3873  0.0423
  403loPI   C6A 6444   9.171   6.295   7.572  0.1058 -0.0643 -0.0757
  403loPI   C1B 6445   9.604   5.910   9.323 -0.2710  0.1143 -0.1753
  403loPI   C2B 6446   9.712   5.914   8.947  0.0054  0.0857 -0.2226
  403loPI   C3B 6447   9.785   5.836   8.536 -0.1617 -0.1170  0.5331
  403loPI   C4B 6448   9.782   6.012   8.021 -0.0129 -0.1065 -0.2128
  404loPI    C1 6449  13.771   9.592  10.726 -0.1181  0.0564  0.1851
  404loPI    C2 6450  13.451   9.397  10.585 -0.0650  0.2340 -0.1941
  404loPI    C3 6451  13.593   9.311  10.949 -0.3206 -0.1040 -0.1690
  404loPI   PO4 6452  13.844   9.783  10.566 -0.0356  0.3780 -0.1646
  404loPI   GL1 6453  13.723  10.044  10.197  0.2575  0.5403  0.0215
  404loPI   GL2 6454  14.033  10.055  10.182  0.4936  0.0684  0.0668
  404loPI   C1A 6455  13.639   9.917   9.800 -0.1014 -0.1696  0.1713
  404loPI   C2A 6456  13.785   9.840   9.385  0.1308  0.0088 -0.0804
  404loPI   C3A 6457  13.848   9.882   8.931  0.0507  0.2356 -0.1512
  404loPI   C4A 6458  13.870   9.813   8.609 -0.1930 -0.1288  0.2016
  404loPI   C5A 6459  13.787   9.622   8.310 -0.0590  0.0674 -0.0947
  404loPI   C6A 6460  13.720   9.626   7.934 -0.0074  0.0120 -0.0863
  404loPI   C1B 6461  14.218   9.935   9.857 -0.2233 -0.3174 -0.3011
  404loPI   C2B 6462  14.298   9.948   9.406  0.0304 -0.0011  0.1886
  404loPI   C3B 6463  14.358   9.769   9.024 -0.2381  0.1342 -0.0609
  404loPI   C4B 6464  14.407   9.843   8.630  0.1809  0.1511  0.1579
  405loPI    C1 6465   8.193  12.397   9.993 -0.0737 -0.1712 -0.1125
  405loPI    C2 6466   8.391  12.326  10.333 -0.0196  0.2079 -0.0605
  405loPI    C3 6467   8.034  12.506  10.344 -0.1448 -0.0283 -0.1883
  405loPI   PO4 6468   8.429  12.517   9.843 -0.2363 -0.1140 -0.1864
  405loPI   GL1 6469   8.787  12.509   9.540  0.2213 -0.0349  0.0745
  405loPI   GL2 6470   8.898  12.820   9.666  0.1498 -0.2058 -0.2941
  405loPI   C1A 6471   8.632  12.458   9.069  0.1353 -0.1914 -0.0439
  405loPI   C2A 6472   8.653  12.343   8.570 -0.2795  0.0816  0.0822
  405loPI   C3A 6473   8.770  12.227   8.156 -0.2675 -0.1520  0.2780
  405loPI   C4A 6474   9.064  12.256   7.787  0.2292  0.1373 -0.1988
  405loPI   C5A 6475   9.153  12.411   7.379  0.0768 -0.1055 -0.1601
  405loPI   C6A 6476   8.766  12.593   7.149  0.0407  0.2526  0.1982
  405loPI   C1B 6477   9.099  12.708   9.306 -0.1403  0.2014  0.1555
  405loPI   C2B 6478   9.178  12.783   8.854  0.1398  0.1126 -0.0309
  405loPI   C3B 6479   9.031  12.666   8.525 -0.0489  0.0681 -0.0230
  405loPI   C4B 6480   9.103  12.683   8.139 -0.2091 -0.1496  0.0688
  406loPI    C1 6481   3.368   6.438  10.659  0.2072  0.0424  0.4213
  406loPI    C2 6482   3.449   6.819  10.571 -0.0143  0.0307  0.1549
  406loPI    C3 6483   3.175   6.732  10.849 -0.0896  0.0660  0.0919
  406loPI   PO4 6484   3.431   6.335  10.421  0.4074 -0.2575  0.0924
  406loPI   GL1 6485   3.344   6.565  10.035  0.0898  0.0503 -0.0785
  406loPI   GL2 6486   3.339   6.970  10.033 -0.0712  0.1820 -0.1768
  406loPI   C1A 6487   3.404   6.408   9.607  0.0098 -0.0966 -0.0411
  406loPI   C2A 6488   3.403   6.380   9.255  0.1798  0.0327  0.1025
  406loPI   C3A 6489   3.434   6.340   8.854  0.4792  0.1510  0.1549
  406loPI   C4A 6490   3.326   6.442   8.533 -0.2596 -0.2090  0.1488
  406loPI   C5A 6491   3.272   6.548   8.118  0.0214  0.0661  0.1584
  406loPI   C6A 6492   3.168   6.344   7.752 -0.0366  0.0254 -0.0741
  406loPI   C1B 6493   3.202   6.910   9.602  0.1256  0.0426 -0.2674
  406loPI   C2B 6494   3.078   6.795   9.186  0.0337  0.0815 -0.0043
  406loPI   C3B 6495   3.130   6.772   8.831  0.3317  0.2650 -0.1732
  406loPI   C4B 6496   3.042   6.924   8.472 -0.3552 -0.1922 -0.2495
  407loPI    C1 6497  16.285  17.767  10.746 -0.1007  0.3301 -0.0187
  407loPI    C2 6498  16.010  17.572  10.961  0.0335  0.0319 -0.1123
  407loPI    C3 6499  16.310  17.761  11.146  0.0809 -0.1209 -0.0308
  407loPI   PO4 6500  16.138  17.853  10.583 -0.2169  0.1275  0.0650
  407loPI   GL1 6501  16.069  17.770  10.244  0.1029  0.0041 -0.0984
  407loPI   GL2 6502  15.777  18.046  10.149  0.2136 -0.1391 -0.1159
  407loPI   C1A 6503  16.182  17.741   9.782  0.0909  0.1404  0.0586
  407loPI   C2A 6504  16.136  17.759   9.433  0.1349  0.1272 -0.0730
  407loPI   C3A 6505  16.178  17.798   9.082 -0.1086  0.3461 -0.2323
  407loPI   C4A 6506  16.224  17.582   8.651 -0.1456 -0.2687  0.1727
  407loPI   C5A 6507  16.231  17.607   8.251  0.0571 -0.1542 -0.2197
  407loPI   C6A 6508  16.169  17.541   7.819  0.0656 -0.2614  0.0139
  407loPI   C1B 6509  16.006  18.239   9.857  0.1230  0.2065  0.0386
  407loPI   C2B 6510  15.991  18.236   9.465 -0.0617  0.0455  0.1427
  407loPI   C3B 6511  15.957  18.353   9.091 -0.2430  0.1538  0.1194
  407loPI   C4B 6512  15.975  18.320   8.763  0.0724  0.1792 -0.1918
  408loPI    C1 6513  17.272  16.640  10.941 -0.1178  0.1189  0.2212
  408loPI    C2 6514  17.483  16.959  11.055 -0.0480  0.0190  0.3744
  408loPI    C3 6515  17.482  16.629  11.281  0.0633 -0.1699  0.1041
  408loPI   PO4 6516  17.314  16.645  10.612 -0.0014  0.2140  0.1152
  408loPI   GL1 6517  17.177  16.604  10.195 -0.0171  0.0864  0.1351
  408loPI   GL2 6518  17.397  16.899  10.206  0.1837 -0.0016 -0.1339
  408loPI   C1A 6519  17.147  16.621   9.712 -0.1338  0.0381 -0.1140
  408loPI   C2A 6520  17.185  16.832   9.324 -0.1386  0.0831 -0.1076
  408loPI   C3A 6521  17.232  16.716   8.965  0.2798  0.0721 -0.1486
  408loPI   C4A 6522  17.141  16.647   8.590 -0.1219 -0.1432  0.0811
  408loPI   C5A 6523  17.279  16.816   8.102 -0.1613 -0.1113 -0.2404
  408loPI   C6A 6524  17.266  16.498   7.770 -0.1643  0.3667  0.2071
  408loPI   C1B 6525  17.654  16.942   9.850 -0.1657  0.0288  0.1717
  408loPI   C2B 6526  17.676  16.837   9.354  0.1348  0.0439  0.0470
  408loPI   C3B 6527  17.698  16.784   8.912  0.0766  0.0325  0.1335
  408loPI   C4B 6528  17.694  16.793   8.503 -0.1046  0.2397  0.0725
  409loPI    C1 6529   0.531  14.204  10.670  0.1119  0.2221  0.1167
  409loPI    C2 6530   0.631  13.826  10.588 -0.2266  0.1445  0.0473
  409loPI    C3 6531   0.857  14.043  10.836 -0.0131 -0.0923  0.0647
  409loPI   PO4 6532   0.427  14.280  10.418 -0.1036  0.3527  0.3998
  409loPI   GL1 6533   0.379  14.085  10.029  0.3133 -0.1897 -0.2570
  409loPI   GL2 6534   0.651  13.918  10.065  0.0064 -0.1494 -0.2753
  409loPI   C1A 6535   0.390  13.999   9.587 -0.2410 -0.0716  0.1085
  409loPI   C2A 6536   0.306  13.952   9.147  0.3409  0.0641  0.2420
  409loPI   C3A 6537   0.349  13.783   8.802 -0.2020 -0.0344 -0.0246
  409loPI   C4A 6538   0.352  13.656   8.391 -0.0781 -0.0138  0.0644
  409loPI   C5A 6539   0.486  13.863   8.117 -0.0009 -0.2087  0.0228
  409loPI   C6A 6540   0.759  14.139   7.851  0.1115 -0.1047 -0.3131
  409loPI   C1B 6541   0.865  14.058   9.631 -0.0398 -0.1036  0.0021
  409loPI   C2B 6542   0.801  13.928   9.219  0.1282  0.4324  0.2502
  409loPI   C3B 6543   0.835  13.821   8.789  0.3302 -0.1818 -0.0217
  409loPI   C4B 6544   0.895  13.805   8.418 -0.0863  0.2057  0.1593
  410loPI    C1 6545   1.320   4.900  10.917  0.1045  0.0664 -0.0606
  410loPI    C2 6546   1.476   5.261  10.994  0.0384  0.0529  0.1437
  410loPI    C3 6547   1.175   5.121  11.217 -0.0133 -0.0815 -0.0073
  410loPI   PO4 6548   1.365   4.903  10.559 -0.0409  0.0143 -0.3131
  410loPI   GL1 6549   1.590   5.006  10.171 -0.0776 -0.1861  0.1515
  410loPI   GL2 6550   1.710   4.631  10.252  0.0552 -0.1963 -0.3086
  410loPI   C1A 6551   1.499   5.144   9.679 -0.2075 -0.1360  0.0296
  410loPI   C2A 6552   1.534   5.191   9.200  0.0327 -0.3606  0.3789
  410loPI   C3A 6553   1.403   5.063   8.846 -0.1546 -0.0543  0.1262
  410loPI   C4A 6554   1.404   4.947   8.442 -0.2188  0.1325  0.2049
  410loPI   C5A 6555   1.210   4.786   8.081  0.1315 -0.0167 -0.1074
  410loPI   C6A 6556   1.042   4.343   8.015 -0.2040  0.0277 -0.1131
  410loPI   C1B 6557   1.826   4.615   9.821  0.2117  0.2476  0.1024
  410loPI   C2B 6558   1.748   4.737   9.410  0.1182  0.0565 -0.2750
  410loPI   C3B 6559   1.695   4.729   9.074 -0.0767  0.1663 -0.1606
  410loPI   C4B 6560   1.597   4.462   8.815 -0.0348  0.0949  0.2926
  411loPI    C1 6561   7.329  11.864  10.289 -0.0907 -0.1718  0.1406
  411loPI    C2 6562   7.132  11.548  10.433 -0.2417 -0.1250  0.0393
  411loPI    C3 6563   6.931  11.877  10.328 -0.1036 -0.0577 -0.0164
  411loPI   PO4 6564   7.491  11.822  10.055  0.0322 -0.1155  0.4309
  411loPI   GL1 6565   7.525  11.896   9.557 -0.0153 -0.2042 -0.1979
  411loPI   GL2 6566   7.846  11.792   9.513 -0.1045 -0.0127 -0.0065
  411loPI   C1A 6567   7.655  12.151   9.214 -0.6377 -0.0661  0.0792
  411loPI   C2A 6568   7.716  12.246   8.790 -0.2915  0.1079  0.2261
  411loPI   C3A 6569   7.730  12.332   8.280 -0.0258  0.0679  0.0208
  411loPI   C4A 6570   8.027  12.587   7.993  0.5490 -0.1486 -0.1438
  411loPI   C5A 6571   8.471  12.507   7.890  0.1434 -0.1488  0.0586
  411loPI   C6A 6572   8.772  12.730   7.767  0.0834  0.4209 -0.2372
  411loPI   C1B 6573   7.704  11.654   9.044 -0.1096  0.0310 -0.1372
  411loPI   C2B 6574   7.528  11.523   8.745 -0.0176 -0.2198 -0.0307
  411loPI   C3B 6575   7.340  11.369   8.509 -0.2076  0.0130  0.2950
  411loPI   C4B 6576   6.887  11.198   8.329  0.1454  0.1574  0.3931
  412loPI    C1 6577   6.162   5.356  10.423 -0.1486  0.0762 -0.2237
  412loPI    C2 6578   6.430   5.647  10.477  0.0111 -0.1198  0.0662
  412loPI    C3 6579   6.219   5.510  10.787  0.0884 -0.4556 -0.0251
  412loPI   PO4 6580   6.045   5.433  10.216  0.2522 -0.0299  0.2277
  412loPI   GL1 6581   6.198   5.465   9.817 -0.0592  0.3700 -0.0391
  412loPI   GL2 6582   6.218   5.196   9.632  0.0218  0.0802  0.0971
  412loPI   C1A 6583   6.249   5.789   9.525  0.3742 -0.1099  0.0497
  412loPI   C2A 6584   6.334   5.811   9.160 -0.0311  0.1954  0.0300
  412loPI   C3A 6585   6.354   5.589   8.809  0.1297  0.2931  0.1891
  412loPI   C4A 6586   6.409   5.547   8.341 -0.3793  0.2049  0.0323
  412loPI   C5A 6587   6.699   5.446   7.919  0.0986  0.1271 -0.4966
  412loPI   C6A 6588   6.939   5.156   7.581  0.3213  0.1742 -0.2715
  412loPI   C1B 6589   6.230   5.275   9.197 -0.0237  0.2977 -0.0852
  412loPI   C2B 6590   5.979   5.302   8.811  0.0452  0.1343 -0.0384
  412loPI   C3B 6591   5.974   5.369   8.335 -0.0123  0.0904  0.3271
  412loPI   C4B 6592   5.771   5.586   8.025 -0.2216  0.0149  0.0528
  413loPI    C1 6593   6.529   9.058  10.388 -0.0285 -0.2571 -0.3975
  413loPI    C2 6594   6.868   8.915  10.230  0.2592 -0.0294 -0.0065
  413loPI    C3 6595   6.882   9.216  10.493 -0.2547  0.0121 -0.0165
  413loPI   PO4 6596   6.385   9.023  10.186  0.2764 -0.0007  0.0868
  413loPI   GL1 6597   6.209   9.054   9.748  0.1095 -0.1424  0.1094
  413loPI   GL2 6598   5.837   8.791   9.907 -0.0187 -0.1618  0.0073
  413loPI   C1A 6599   6.223   8.941   9.343  0.0531  0.5685 -0.0692
  413loPI   C2A 6600   6.219   8.830   8.927 -0.1755  0.2701  0.0289
  413loPI   C3A 6601   6.017   8.796   8.650 -0.1236 -0.1651 -0.2000
  413loPI   C4A 6602   5.998   8.654   8.340 -0.1225  0.2760  0.2110
  413loPI   C5A 6603   5.799   8.246   8.171  0.2155  0.0132  0.2027
  413loPI   C6A 6604   6.045   7.982   8.017  0.0089  0.1091  0.0243
  413loPI   C1B 6605   5.768   8.953   9.552  0.0763  0.2458  0.1370
  413loPI   C2B 6606   5.537   8.770   9.227 -0.0408 -0.1000  0.1853
  413loPI   C3B 6607   5.402   8.807   8.766  0.1271  0.1114 -0.0086
  413loPI   C4B 6608   5.464   8.998   8.367 -0.1929 -0.0486  0.1329
  414loPI    C1 6609   6.061   1.430  10.218 -0.0780  0.0422 -0.0586
  414loPI    C2 6610   5.683   1.305  10.250 -0.0868  0.1211  0.1616
  414loPI    C3 6611   5.873   1.451  10.570  0.2027 -0.1211  0.1049
  414loPI   PO4 6612   6.013   1.574  10.004  0.0432  0.0909 -0.3093
  414loPI   GL1 6613   6.040   1.403   9.557  0.1366 -0.1994  0.0859
  414loPI   GL2 6614   5.797   1.558   9.558 -0.3446 -0.0812 -0.0798
  414loPI   C1A 6615   6.067   1.046   9.166 -0.0271  0.0177  0.0624
  414loPI   C2A 6616   6.068   0.992   8.730  0.0911  0.1886  0.1636
  414loPI   C3A 6617   6.167   0.939   8.370  0.1769 -0.0007 -0.1006
  414loPI   C4A 6618   6.351   0.697   8.019  0.0246  0.0771  0.0138
  414loPI   C5A 6619   6.385   0.364   7.726 -0.3069  0.0528  0.4484
  414loPI   C6A 6620   6.284   0.389   7.253  0.1345  0.2774  0.2521
  414loPI   C1B 6621   5.861   1.563   9.052 -0.1749  0.0074  0.0950
  414loPI   C2B 6622   5.924   1.542   8.594  0.1811 -0.0029 -0.2150
  414loPI   C3B 6623   5.911   1.399   8.230  0.0465  0.2224 -0.0120
  414loPI   C4B 6624   6.294   1.343   7.817  0.3364  0.1085  0.0876
  415loPI    C1 6625  14.151   2.884  11.066 -0.0291 -0.1569 -0.2570
  415loPI    C2 6626  14.171   3.269  11.173 -0.0261 -0.0972 -0.4678
  415loPI    C3 6627  14.124   2.986  11.452  0.4600  0.0150 -0.2615
  415loPI   PO4 6628  13.967   2.910  10.841 -0.1484  0.1501 -0.0641
  415loPI   GL1 6629  13.909   3.049  10.423  0.2428  0.2585  0.2502
  415loPI   GL2 6630  14.175   2.947  10.288 -0.0121 -0.1579 -0.1009
  415loPI   C1A 6631  13.898   3.343  10.072 -0.0809 -0.0716  0.1727
  415loPI   C2A 6632  14.026   3.321   9.651 -0.0083 -0.1264 -0.0516
  415loPI   C3A 6633  14.070   3.459   9.296 -0.0917  0.1292  0.5639
  415loPI   C4A 6634  14.087   3.561   8.858  0.2469  0.2199  0.0905
  415loPI   C5A 6635  14.028   3.468   8.532  0.3135 -0.1269  0.0395
  415loPI   C6A 6636  14.359   3.455   8.270 -0.1390  0.1848  0.1586
  415loPI   C1B 6637  14.247   2.968   9.891 -0.1696 -0.3210 -0.1515
  415loPI   C2B 6638  14.341   2.983   9.498 -0.0609 -0.0729 -0.2588
  415loPI   C3B 6639  14.254   3.036   9.076  0.4099 -0.0742 -0.1235
  415loPI   C4B 6640  14.383   3.148   8.751  0.0065  0.0811  0.0130
  416loPI    C1 6641   8.737  10.299  10.370 -0.0925 -0.0548 -0.0050
  416loPI    C2 6642   8.968   9.983  10.451 -0.3620 -0.2582 -0.0152
  416loPI    C3 6643   8.860  10.232  10.744 -0.1480 -0.1728 -0.0072
  416loPI   PO4 6644   8.870  10.418  10.146  0.3682  0.1851  0.1215
  416loPI   GL1 6645   8.954  10.630   9.831  0.2035 -0.1300  0.3029
  416loPI   GL2 6646   9.271  10.508   9.804 -0.0622 -0.2807 -0.3583
  416loPI   C1A 6647   8.931  10.476   9.400 -0.0573  0.1178 -0.1588
  416loPI   C2A 6648   9.017  10.245   8.970 -0.2589  0.1101  0.1938
  416loPI   C3A 6649   9.047  10.158   8.529 -0.2523  0.0185 -0.1462
  416loPI   C4A 6650   9.097  10.067   8.173  0.5200 -0.1334 -0.4588
  416loPI   C5A 6651   9.112  10.444   7.841  0.0538  0.0831 -0.1104
  416loPI   C6A 6652   9.167  10.932   7.858  0.0450  0.0369 -0.0248
  416loPI   C1B 6653   9.350  10.195   9.366 -0.1103  0.1052  0.1167
  416loPI   C2B 6654   9.471  10.092   8.948 -0.1036 -0.0308  0.0448
  416loPI   C3B 6655   9.520   9.892   8.600 -0.0970  0.2993 -0.0124
  416loPI   C4B 6656   9.658   9.895   8.099  0.0566  0.1780  0.0105
  417loPI    C1 6657   8.159  12.997  10.220 -0.3179  0.2287  0.0961
  417loPI    C2 6658   8.406  13.276  10.365  0.1453 -0.0396 -0.1528
  417loPI    C3 6659   8.277  12.980  10.601 -0.1272  0.2258  0.0382
  417loPI   PO4 6660   8.266  12.991   9.954  0.0986 -0.0879  0.2803
  417loPI   GL1 6661   8.160  12.794   9.577 -0.0208  0.1578 -0.0877
  417loPI   GL2 6662   7.841  12.569   9.566  0.1383  0.0107 -0.0949
  417loPI   C1A 6663   8.111  12.920   9.225  0.0413 -0.3467 -0.2615
  417loPI   C2A 6664   8.075  13.102   8.747 -0.0505 -0.0031 -0.0803
  417loPI   C3A 6665   7.945  13.388   8.403 -0.2268 -0.1809 -0.1818
  417loPI   C4A 6666   7.919  13.485   7.936  0.3188  0.0203 -0.1015
  417loPI   C5A 6667   7.996  13.415   7.516 -0.2479 -0.0638  0.0363
  417loPI   C6A 6668   8.453  13.573   7.205 -0.0740 -0.2354  0.1312
  417loPI   C1B 6669   7.979  12.495   9.153  0.3339 -0.1464 -0.0709
  417loPI   C2B 6670   8.213  12.599   8.838  0.0332 -0.0871 -0.0269
  417loPI   C3B 6671   8.168  12.315   8.492  0.0334  0.2132  0.2417
  417loPI   C4B 6672   8.170  12.058   8.155 -0.0249  0.1619  0.1074
  418loPI    C1 6673   9.910  12.328  10.187  0.0728  0.2346  0.0560
  418loPI    C2 6674   9.908  12.234  10.576  0.2262  0.1521  0.0375
  418loPI    C3 6675  10.251  12.226  10.369  0.0845 -0.1939 -0.1938
  418loPI   PO4 6676   9.760  12.262   9.948 -0.4915 -0.0289 -0.1418
  418loPI   GL1 6677   9.725  12.079   9.579  0.0613  0.4371 -0.2601
  418loPI   GL2 6678   9.518  11.771   9.506  0.2133 -0.2637 -0.0918
  418loPI   C1A 6679   9.651  12.021   9.065 -0.0256  0.0013 -0.0869
  418loPI   C2A 6680   9.301  11.840   8.863 -0.1231  0.1485 -0.3771
  418loPI   C3A 6681   9.317  11.623   8.455  0.2188 -0.1515  0.2532
  418loPI   C4A 6682   9.463  11.432   7.996  0.0623 -0.2777 -0.0119
  418loPI   C5A 6683   9.293  11.427   7.636  0.1952 -0.1186 -0.1572
  418loPI   C6A 6684   8.896  11.283   7.633 -0.3318 -0.0289  0.0718
  418loPI   C1B 6685   9.797  11.533   9.247 -0.0341 -0.0561  0.1223
  418loPI   C2B 6686   9.676  11.529   8.829  0.1354  0.1767  0.2691
  418loPI   C3B 6687   9.793  11.406   8.455 -0.0897 -0.0127 -0.1896
  418loPI   C4B 6688  10.096  11.220   8.051 -0.1603 -0.1736 -0.0053
  419loPI    C1 6689   6.565   7.569  10.753 -0.0084 -0.0963 -0.1009
  419loPI    C2 6690   6.454   7.188  10.807 -0.2127 -0.0314 -0.0513
  419loPI    C3 6691   6.427   7.449  11.109  0.1597 -0.0313 -0.0127
  419loPI   PO4 6692   6.778   7.545  10.590  0.2358  0.0773 -0.1442
  419loPI   GL1 6693   6.747   7.525  10.188  0.0102  0.0694  0.2205
  419loPI   GL2 6694   6.869   7.672   9.906  0.0970  0.2130  0.0246
  419loPI   C1A 6695   6.429   7.368   9.895 -0.1863 -0.3259  0.3407
  419loPI   C2A 6696   6.484   7.339   9.402  0.1630 -0.0947  0.1935
  419loPI   C3A 6697   6.454   7.484   8.978 -0.2834  0.2347 -0.0543
  419loPI   C4A 6698   6.421   7.255   8.609 -0.0233 -0.2516  0.0631
  419loPI   C5A 6699   6.264   7.274   8.193 -0.1097 -0.1674  0.0316
  419loPI   C6A 6700   5.984   7.511   7.876  0.3567  0.0369 -0.2015
  419loPI   C1B 6701   6.846   7.592   9.574  0.2010  0.3004  0.1792
  419loPI   C2B 6702   6.949   7.530   9.184  0.2019 -0.1044  0.0547
  419loPI   C3B 6703   7.084   7.685   8.769 -0.2323 -0.1778 -0.0057
  419loPI   C4B 6704   6.846   7.798   8.423 -0.1720  0.0495 -0.0929
  420loPI    C1 6705   4.108   7.237  10.588  0.4008 -0.0955  0.0014
  420loPI    C2 6706   4.136   7.246  10.987 -0.0644 -0.0508  0.0380
  420loPI    C3 6707   4.035   6.907  10.801  0.0486 -0.0448 -0.0352
  420loPI   PO4 6708   4.081   7.411  10.351 -0.4528  0.1124  0.1374
  420loPI   GL1 6709   3.970   7.456   9.858 -0.1058 -0.1502 -0.1747
  420loPI   GL2 6710   4.300   7.504   9.862  0.1151  0.2591 -0.2107
  420loPI   C1A 6711   3.888   7.645   9.535  0.2911 -0.2059 -0.2482
  420loPI   C2A 6712   3.619   7.673   9.109 -0.1183  0.2640 -0.2118
  420loPI   C3A 6713   3.770   7.728   8.762  0.2753  0.0633  0.0311
  420loPI   C4A 6714   4.002   7.533   8.523 -0.2185  0.0272  0.1759
  420loPI   C5A 6715   4.027   7.155   8.270  0.1059 -0.2601  0.3644
  420loPI   C6A 6716   3.630   6.843   8.144  0.0448 -0.3363 -0.2168
  420loPI   C1B 6717   4.246   7.308   9.443 -0.2188  0.2154 -0.4523
  420loPI   C2B 6718   4.247   7.060   9.086  0.1528 -0.0611 -0.0714
  420loPI   C3B 6719   4.236   6.814   8.831  0.0241  0.0056  0.1733
  420loPI   C4B 6720   4.208   6.625   8.393 -0.0896 -0.0197  0.2643
  421loPI    C1 6721   3.765  15.522  10.438 -0.0012 -0.2243  0.1156
  421loPI    C2 6722   3.548  15.382  10.132 -0.1018  0.0708  0.0487
  421loPI    C3 6723   3.415  15.339  10.507 -0.2879  0.2646  0.0071
  421loPI   PO4 6724   4.003  15.610  10.212  0.2647  0.0380 -0.0763
  421loPI   GL1 6725   4.013  15.530   9.805 -0.1155  0.0078 -0.0329
  421loPI   GL2 6726   3.806  15.256   9.710  0.1594  0.1581 -0.2492
  421loPI   C1A 6727   4.126  15.575   9.298  0.2377 -0.4402  0.0590
  421loPI   C2A 6728   4.151  15.576   8.798 -0.2114  0.4262 -0.2500
  421loPI   C3A 6729   3.971  15.457   8.375 -0.0987 -0.0312  0.2531
  421loPI   C4A 6730   3.742  15.341   7.992 -0.0113  0.2115  0.0708
  421loPI   C5A 6731   4.042  15.243   7.657 -0.0982  0.2898 -0.2702
  421loPI   C6A 6732   4.552  15.389   7.524 -0.2032  0.0288  0.0977
  421loPI   C1B 6733   3.828  15.189   9.249  0.2016  0.1317 -0.0758
  421loPI   C2B 6734   3.860  15.141   8.695 -0.1991 -0.0315 -0.1556
  421loPI   C3B 6735   3.782  14.927   8.336  0.0443 -0.0046 -0.0455
  421loPI   C4B 6736   3.748  14.877   7.876 -0.0057  0.2396 -0.1872
  422loPI    C1 6737   5.098  12.919   9.977 -0.0236 -0.2788  0.2420
  422loPI    C2 6738   5.426  13.149   9.971 -0.1772 -0.0597 -0.1224
  422loPI    C3 6739   5.131  13.227  10.231  0.0891 -0.3099  0.2657
  422loPI   PO4 6740   5.175  12.611   9.897  0.3039 -0.0809  0.1596
  422loPI   GL1 6741   5.314  12.325   9.589  0.1623  0.2603  0.0488
  422loPI   GL2 6742   5.156  12.004   9.488  0.5373  0.2426  0.1716
  422loPI   C1A 6743   5.281  12.355   9.189  0.0100 -0.3846 -0.1785
  422loPI   C2A 6744   5.299  12.216   8.758 -0.0185  0.0424  0.1056
  422loPI   C3A 6745   5.257  12.178   8.408 -0.0672 -0.0995  0.2606
  422loPI   C4A 6746   5.506  12.048   7.957  0.1215 -0.1697 -0.0378
  422loPI   C5A 6747   5.729  11.984   7.566 -0.0136 -0.3203 -0.3435
  422loPI   C6A 6748   5.972  11.736   7.537 -0.1201  0.1148 -0.6985
  422loPI   C1B 6749   5.057  11.918   9.001  0.0482  0.2372 -0.0577
  422loPI   C2B 6750   5.085  11.742   8.636  0.0899 -0.0865  0.3075
  422loPI   C3B 6751   5.053  11.739   8.246 -0.2129  0.1690 -0.0589
  422loPI   C4B 6752   5.073  11.732   7.742  0.0755 -0.2306  0.1342
  423loPI    C1 6753   4.460   4.153  10.460  0.1024 -0.3881  0.3970
  423loPI    C2 6754   4.251   4.281  10.777 -0.0119 -0.0627  0.1959
  423loPI    C3 6755   4.261   3.891  10.688 -0.1676 -0.1306  0.4639
  423loPI   PO4 6756   4.825   4.191  10.369  0.0094  0.1940 -0.1322
  423loPI   GL1 6757   4.859   4.078  10.005 -0.4167  0.0882 -0.0502
  423loPI   GL2 6758   5.197   3.962   9.945 -0.0303 -0.1229  0.0971
  423loPI   C1A 6759   4.741   3.784   9.648 -0.0823 -0.1624  0.2869
  423loPI   C2A 6760   4.823   3.805   9.137 -0.4235 -0.0241 -0.0464
  423loPI   C3A 6761   5.049   3.781   8.779 -0.0517  0.0483 -0.2307
  423loPI   C4A 6762   5.026   4.038   8.336 -0.0457 -0.2900 -0.1744
  423loPI   C5A 6763   5.199   4.336   8.036 -0.2713 -0.0309 -0.1440
  423loPI   C6A 6764   5.500   4.417   7.802 -0.2688  0.1942 -0.0133
  423loPI   C1B 6765   5.226   4.032   9.539 -0.2298  0.0557  0.2862
  423loPI   C2B 6766   5.291   4.078   9.096  0.0333 -0.0606  0.1336
  423loPI   C3B 6767   5.545   4.028   8.776 -0.0038 -0.1556  0.0179
  423loPI   C4B 6768   5.501   3.968   8.372  0.0558  0.1388 -0.1204
  424loPI    C1 6769  14.978   6.805  10.930 -0.1052 -0.0504  0.2544
  424loPI    C2 6770  15.179   6.459  10.938 -0.2111 -0.1293 -0.2210
  424loPI    C3 6771  15.024   6.608  11.275  0.1153 -0.3764  0.0445
  424loPI   PO4 6772  15.131   6.929  10.796 -0.1327  0.0422  0.1755
  424loPI   GL1 6773  15.327   6.719  10.439  0.0490  0.1036  0.0591
  424loPI   GL2 6774  15.304   6.389  10.474 -0.2047  0.3684  0.0757
  424loPI   C1A 6775  15.444   6.516  10.005 -0.1596 -0.2732 -0.3130
  424loPI   C2A 6776  15.459   6.474   9.697  0.1201 -0.2466  0.1779
  424loPI   C3A 6777  15.469   6.571   9.313 -0.0040 -0.1464  0.3575
  424loPI   C4A 6778  15.544   6.583   8.837  0.0843  0.2525  0.2227
  424loPI   C5A 6779  15.761   6.599   8.458  0.1214  0.2537 -0.0582
  424loPI   C6A 6780  15.786   6.723   8.156  0.0169 -0.0262 -0.0542
  424loPI   C1B 6781  15.113   6.177  10.196  0.0765 -0.0854 -0.0200
  424loPI   C2B 6782  15.122   6.104   9.797 -0.2214 -0.0720  0.0842
  424loPI   C3B 6783  15.246   6.145   9.384  0.0280  0.0385 -0.0898
  424loPI   C4B 6784  15.243   6.143   8.909 -0.1726  0.0932 -0.1573
  425loPI    C1 6785   9.251  17.928  10.258  0.2117 -0.0981 -0.2038
  425loPI    C2 6786   9.537  17.690  10.113  0.1324 -0.2811 -0.0631
  425loPI    C3 6787   9.501  17.742  10.508  0.1408 -0.0444 -0.0921
  425loPI   PO4 6788   9.141  17.978  10.088 -0.0745  0.2803 -0.1900
  425loPI   GL1 6789   9.194  17.793   9.705 -0.0247 -0.0081 -0.1185
  425loPI   GL2 6790   9.571  17.959   9.593  0.4174 -0.1527 -0.4856
  425loPI   C1A 6791   8.848  17.702   9.396 -0.2376 -0.1024  0.1036
  425loPI   C2A 6792   8.916  17.645   9.013 -0.0089 -0.1322 -0.0919
  425loPI   C3A 6793   8.951  17.488   8.580 -0.1831  0.1310  0.0095
  425loPI   C4A 6794   8.922  17.499   8.181  0.0416 -0.3077  0.0913
  425loPI   C5A 6795   8.689  17.497   7.818  0.0347  0.1895 -0.1032
  425loPI   C6A 6796   8.703  17.502   7.369  0.0204  0.0763 -0.4184
  425loPI   C1B 6797   9.449  18.034   9.155 -0.0590  0.1677 -0.0659
  425loPI   C2B 6798   9.203  17.948   8.776  0.0018 -0.1804  0.1575
  425loPI   C3B 6799   9.328  17.875   8.293  0.0307 -0.1088  0.1733
  425loPI   C4B 6800   9.138  18.192   8.040  0.1140  0.0647 -0.0139
  426loPI    C1 6801   2.035  17.019  10.710 -0.0408 -0.0714  0.0205
  426loPI    C2 6802   1.930  16.704  10.934 -0.0138 -0.1340 -0.0542
  426loPI    C3 6803   1.882  17.075  11.076  0.2229 -0.1791  0.1504
  426loPI   PO4 6804   1.908  16.868  10.434  0.0217 -0.2932  0.1769
  426loPI   GL1 6805   1.904  17.030  10.002 -0.0310 -0.0660  0.3039
  426loPI   GL2 6806   1.625  17.084   9.802  0.0432  0.1622  0.0552
  426loPI   C1A 6807   2.011  16.716   9.773 -0.2949  0.1133  0.0548
  426loPI   C2A 6808   2.129  16.604   9.418 -0.0002  0.2478  0.2882
  426loPI   C3A 6809   2.058  16.639   9.081 -0.3193 -0.3315  0.0131
  426loPI   C4A 6810   1.978  16.553   8.649  0.0823  0.2082 -0.2205
  426loPI   C5A 6811   1.967  16.612   8.152  0.2190 -0.1319 -0.3097
  426loPI   C6A 6812   1.897  16.470   7.723 -0.1692 -0.1589 -0.1591
  426loPI   C1B 6813   1.736  17.080   9.312 -0.2897 -0.0540 -0.0919
  426loPI   C2B 6814   1.709  17.015   8.864  0.1021  0.0274  0.1026
  426loPI   C3B 6815   1.714  17.052   8.426 -0.1925 -0.2963  0.3077
  426loPI   C4B 6816   1.511  17.142   8.007  0.0988  0.0331 -0.0247
  427loPI    C1 6817  12.869  16.493  10.440  0.2362 -0.0708  0.2246
  427loPI    C2 6818  12.855  16.251  10.759 -0.0881 -0.2672  0.0662
  427loPI    C3 6819  12.774  16.641  10.800 -0.0475 -0.2760  0.2370
  427loPI   PO4 6820  12.810  16.349  10.211 -0.0491  0.0313 -0.0846
  427loPI   GL1 6821  12.853  16.267   9.750 -0.2838  0.1741 -0.1042
  427loPI   GL2 6822  13.148  16.150   9.568  0.1625  0.1923  0.0497
  427loPI   C1A 6823  12.787  16.521   9.487 -0.0672 -0.1258 -0.0758
  427loPI   C2A 6824  12.600  16.638   9.065 -0.1403 -0.1730  0.2903
  427loPI   C3A 6825  12.537  16.664   8.637 -0.0442 -0.0963 -0.1725
  427loPI   C4A 6826  12.390  16.476   8.238 -0.1890 -0.0050  0.0111
  427loPI   C5A 6827  12.395  16.362   7.835 -0.4500 -0.0773 -0.1556
  427loPI   C6A 6828  12.510  16.111   7.528 -0.2015  0.2801  0.3404
  427loPI   C1B 6829  13.144  16.034   9.107  0.1688  0.3331 -0.1244
  427loPI   C2B 6830  13.226  16.187   8.704  0.0680 -0.0177 -0.0139
  427loPI   C3B 6831  13.252  16.288   8.349  0.0541 -0.2463  0.0907
  427loPI   C4B 6832  13.081  16.225   7.974  0.1225 -0.1051  0.5574
  428loPI    C1 6833  15.823   4.263  11.204 -0.2438 -0.2051  0.1497
  428loPI    C2 6834  16.089   4.207  11.497  0.0897  0.0915 -0.0866
  428loPI    C3 6835  15.700   4.247  11.584  0.2020  0.3468  0.3322
  428loPI   PO4 6836  16.026   4.132  10.994 -0.0706 -0.1223 -0.2671
  428loPI   GL1 6837  16.474   4.004  10.722  0.4559 -0.0473  0.0433
  428loPI   GL2 6838  16.340   3.785  10.521  0.4846  0.0128 -0.0762
  428loPI   C1A 6839  16.619   4.207  10.338  0.1870 -0.0353  0.3079
  428loPI   C2A 6840  16.669   4.119   9.822 -0.4161  0.1163  0.0353
  428loPI   C3A 6841  16.673   4.330   9.429  0.0141  0.1719 -0.2677
  428loPI   C4A 6842  16.757   4.366   9.007 -0.2863 -0.0419  0.1448
  428loPI   C5A 6843  16.640   4.354   8.528 -0.1302  0.2832 -0.1649
  428loPI   C6A 6844  16.387   4.128   8.269 -0.4455 -0.1702 -0.1097
  428loPI   C1B 6845  16.246   3.757  10.033 -0.0685 -0.2269 -0.2665
  428loPI   C2B 6846  16.358   3.821   9.635  0.1973  0.0594 -0.0623
  428loPI   C3B 6847  16.458   3.896   9.273  0.0815  0.2203  0.0252
  428loPI   C4B 6848  16.512   3.970   8.795 -0.4275 -0.3287 -0.0413
  429loPI    C1 6849  10.734   6.089  10.298 -0.0636 -0.0540  0.0157
  429loPI    C2 6850  10.464   6.271  10.530 -0.0392  0.1162 -0.0874
  429loPI    C3 6851  10.785   6.099  10.695 -0.0634  0.1650  0.0118
  429loPI   PO4 6852  10.859   6.293  10.098  0.2401 -0.2191 -0.0138
  429loPI   GL1 6853  10.994   6.724  10.052  0.1179 -0.2027  0.2348
  429loPI   GL2 6854  10.808   6.827   9.899  0.2826 -0.0693 -0.2292
  429loPI   C1A 6855  11.278   6.731   9.697  0.0301  0.0503 -0.2711
  429loPI   C2A 6856  11.228   6.620   9.251 -0.0123 -0.0756 -0.1684
  429loPI   C3A 6857  11.307   6.647   8.812 -0.2866  0.1736 -0.0758
  429loPI   C4A 6858  11.377   6.805   8.503  0.0949  0.1087 -0.1014
  429loPI   C5A 6859  11.340   7.014   8.084 -0.3211  0.0889  0.0301
  429loPI   C6A 6860  11.423   6.843   7.725 -0.3428 -0.1265  0.3378
  429loPI   C1B 6861  10.799   6.774   9.433 -0.0698  0.0977 -0.1773
  429loPI   C2B 6862  10.766   6.721   8.997  0.1019 -0.1751 -0.1268
  429loPI   C3B 6863  10.855   6.759   8.525  0.0934  0.0047  0.1837
  429loPI   C4B 6864  10.845   7.134   8.146  0.2531 -0.0576 -0.5069
  430loPI    C1 6865   6.218   6.771  10.797 -0.1137  0.0163 -0.4310
  430loPI    C2 6866   5.831   6.757  10.694 -0.2728 -0.0016  0.1348
  430loPI    C3 6867   5.974   6.506  10.971  0.1675 -0.0476 -0.1241
  430loPI   PO4 6868   6.377   6.770  10.500 -0.1835  0.1897 -0.1070
  430loPI   GL1 6869   6.321   6.942  10.094 -0.0630 -0.0405  0.0109
  430loPI   GL2 6870   6.613   6.806  10.041  0.1849 -0.1150 -0.1528
  430loPI   C1A 6871   6.028   6.708   9.808 -0.2051 -0.2130  0.2378
  430loPI   C2A 6872   6.054   6.612   9.384  0.2344  0.0454 -0.2196
  430loPI   C3A 6873   6.007   6.514   8.826  0.0830 -0.2525 -0.0064
  430loPI   C4A 6874   6.084   6.386   8.454 -0.2468  0.0280 -0.1479
  430loPI   C5A 6875   6.109   6.341   7.892 -0.1685 -0.0053 -0.2347
  430loPI   C6A 6876   5.994   6.602   7.577 -0.0067 -0.2743  0.4334
  430loPI   C1B 6877   6.560   6.698   9.648 -0.1003  0.1194  0.0908
  430loPI   C2B 6878   6.372   6.877   9.144  0.0870  0.2992  0.1374
  430loPI   C3B 6879   6.477   6.617   8.732  0.2339 -0.0006  0.3990
  430loPI   C4B 6880   6.592   6.514   8.336  0.0747  0.1437 -0.0192
  431loPI    C1 6881   0.618   1.279  10.812  0.0647  0.1359 -0.0658
  431loPI    C2 6882   0.510   0.969  11.042  0.3849  0.0142 -0.0741
  431loPI    C3 6883   0.681   1.291  11.207 -0.2468  0.3360 -0.0195
  431loPI   PO4 6884   0.735   1.192  10.630 -0.2607 -0.0353 -0.0678
  431loPI   GL1 6885   0.655   1.035  10.278  0.0622  0.1587 -0.0412
  431loPI   GL2 6886   0.678   1.402  10.104 -0.2400 -0.1887 -0.0900
  431loPI   C1A 6887   1.044   1.016   9.919  0.1186 -0.0001  0.4125
  431loPI   C2A 6888   0.938   1.021   9.455  0.0942 -0.1595  0.1308
  431loPI   C3A 6889   0.951   1.067   8.998 -0.2233 -0.0180  0.1001
  431loPI   C4A 6890   0.948   1.033   8.534 -0.2606 -0.2303  0.2507
  431loPI   C5A 6891   0.767   1.077   8.136  0.1012 -0.2778 -0.0204
  431loPI   C6A 6892   0.476   0.766   8.033 -0.0483  0.0280 -0.2060
  431loPI   C1B 6893   0.375   1.502   9.712  0.2816 -0.1472 -0.1877
  431loPI   C2B 6894   0.158   1.521   9.370  0.1156  0.1028 -0.3598
  431loPI   C3B 6895   0.226   1.467   8.923  0.1580 -0.0665 -0.0222
  431loPI   C4B 6896   0.158   1.544   8.511  0.0673  0.0119  0.1470
  432loPI    C1 6897   7.125   9.565  10.218  0.0703 -0.0672  0.2309
  432loPI    C2 6898   7.299   9.901  10.087  0.0428 -0.0335  0.2805
  432loPI    C3 6899   7.432   9.723  10.420  0.0762 -0.0879  0.2381
  432loPI   PO4 6900   7.088   9.388   9.995 -0.4396  0.1243 -0.3351
  432loPI   GL1 6901   6.916   9.532   9.700 -0.3264 -0.3894  0.2691
  432loPI   GL2 6902   6.739   9.724   9.508  0.1406 -0.3281  0.1274
  432loPI   C1A 6903   7.222   9.403   9.370  0.1323  0.1454  0.0784
  432loPI   C2A 6904   7.173   9.253   8.990 -0.0815 -0.2271 -0.3165
  432loPI   C3A 6905   7.118   9.217   8.609 -0.2002 -0.2863  0.1753
  432loPI   C4A 6906   6.958   8.996   8.296 -0.1344 -0.0991 -0.0502
  432loPI   C5A 6907   7.097   8.689   8.038 -0.1454 -0.1894  0.0586
  432loPI   C6A 6908   7.185   8.717   7.548  0.1026 -0.0451  0.3219
  432loPI   C1B 6909   6.759   9.616   9.124  0.0555 -0.2247  0.1322
  432loPI   C2B 6910   6.705   9.539   8.718 -0.2027 -0.0142 -0.0410
  432loPI   C3B 6911   6.823   9.553   8.303 -0.1355 -0.0794 -0.0248
  432loPI   C4B 6912   6.728   9.815   7.980  0.2925 -0.1930  0.0281
  433loPI    C1 6913   3.989   2.209  10.253 -0.0178  0.2407  0.0141
  433loPI    C2 6914   4.065   1.934  10.533 -0.3302  0.1794  0.0423
  433loPI    C3 6915   3.787   2.213  10.598 -0.0618  0.4649 -0.0133
  433loPI   PO4 6916   4.049   2.070  10.060 -0.2733 -0.0612  0.2356
  433loPI   GL1 6917   4.225   2.012   9.650 -0.0148 -0.0346  0.1175
  433loPI   GL2 6918   4.283   1.674   9.576 -0.3097 -0.2938 -0.1266
  433loPI   C1A 6919   4.105   2.092   9.232 -0.2675 -0.2116  0.0826
  433loPI   C2A 6920   4.064   2.145   8.787  0.1507  0.2352  0.2187
  433loPI   C3A 6921   3.888   2.251   8.345 -0.3527  0.2438  0.0423
  433loPI   C4A 6922   3.889   2.221   7.967  0.2278 -0.1094  0.0187
  433loPI   C5A 6923   4.144   2.271   7.721 -0.1104  0.2071  0.0901
  433loPI   C6A 6924   4.489   1.966   7.925 -0.0074  0.2085 -0.0647
  433loPI   C1B 6925   4.205   1.642   9.198  0.4623 -0.1245  0.0718
  433loPI   C2B 6926   4.258   1.701   8.792 -0.1079  0.1448 -0.0910
  433loPI   C3B 6927   4.127   1.737   8.361 -0.2115  0.0165  0.3011
  433loPI   C4B 6928   4.207   1.567   7.948  0.0196 -0.2298  0.1270
  434loPI    C1 6929   1.330  12.948  10.811 -0.0025 -0.1384  0.1104
  434loPI    C2 6930   0.976  12.973  10.996 -0.0863 -0.1049 -0.0528
  434loPI    C3 6931   1.290  13.177  11.137 -0.2362  0.1959 -0.1461
  434loPI   PO4 6932   1.271  12.783  10.658 -0.0220  0.2824 -0.1386
  434loPI   GL1 6933   1.256  12.559  10.296  0.2491 -0.0337 -0.1202
  434loPI   GL2 6934   1.031  12.758  10.230  0.1015 -0.1663 -0.1983
  434loPI   C1A 6935   1.107  12.310   9.955  0.0081 -0.2004 -0.1047
  434loPI   C2A 6936   1.138  12.360   9.500  0.1562  0.2399  0.1018
  434loPI   C3A 6937   1.073  12.364   9.054  0.0915 -0.0537 -0.2515
  434loPI   C4A 6938   1.183  12.405   8.727  0.1283 -0.1458  0.1778
  434loPI   C5A 6939   1.197  12.367   8.260  0.3165 -0.3875 -0.0463
  434loPI   C6A 6940   1.257  12.079   8.043 -0.0917 -0.0390 -0.0397
  434loPI   C1B 6941   0.965  12.742   9.790 -0.1093 -0.2173  0.4464
  434loPI   C2B 6942   0.874  12.765   9.246 -0.1408  0.0976  0.2356
  434loPI   C3B 6943   0.791  12.848   8.788  0.2095 -0.0301 -0.0038
  434loPI   C4B 6944   0.857  12.875   8.272 -0.0865  0.2016  0.0364
  435loPI    C1 6945  13.210  15.837  10.077 -0.1624 -0.4161 -0.1073
  435loPI    C2 6946  13.256  15.589  10.388  0.1652 -0.0602  0.1369
  435loPI    C3 6947  13.197  15.980  10.450 -0.1696 -0.0426 -0.2469
  435loPI   PO4 6948  13.110  15.701   9.836 -0.2064 -0.1290  0.3264
  435loPI   GL1 6949  12.853  15.764   9.526  0.2648  0.0311  0.0176
  435loPI   GL2 6950  12.624  15.596   9.689  0.2971 -0.0894 -0.2217
  435loPI   C1A 6951  12.693  15.893   9.107  0.1169 -0.4880 -0.1005
  435loPI   C2A 6952  12.730  16.214   8.764 -0.2163  0.1458  0.3941
  435loPI   C3A 6953  12.759  16.244   8.434  0.1746  0.2189  0.0214
  435loPI   C4A 6954  12.655  15.963   8.007  0.0880 -0.2348 -0.0377
  435loPI   C5A 6955  12.343  15.771   7.791 -0.6239 -0.2098 -0.2294
  435loPI   C6A 6956  12.136  15.441   7.810  0.1875 -0.5080  0.1945
  435loPI   C1B 6957  12.674  15.416   9.286  0.1165  0.1151 -0.3163
  435loPI   C2B 6958  12.777  15.485   8.846 -0.1071  0.4254 -0.0193
  435loPI   C3B 6959  12.931  15.798   8.626  0.2094  0.2045 -0.0142
  435loPI   C4B 6960  13.090  15.768   8.156  0.0355 -0.2235 -0.0996
  436loPI    C1 6961  17.507  12.780  10.721 -0.0299  0.0919  0.1039
  436loPI    C2 6962  17.680  13.077  10.925  0.2962 -0.0485  0.0391
  436loPI    C3 6963  17.378  12.872  11.087 -0.0076  0.3865  0.0399
  436loPI   PO4 6964  17.476  12.862  10.549 -0.1309  0.0538  0.0446
  436loPI   GL1 6965  17.522  12.692  10.143  0.2709  0.3173 -0.0644
  436loPI   GL2 6966  17.365  13.033  10.060  0.0267  0.0804 -0.2961
  436loPI   C1A 6967  17.498  12.644   9.677 -0.2508 -0.2086  0.0640
  436loPI   C2A 6968  17.433  12.556   9.235 -0.0039 -0.0415 -0.0290
  436loPI   C3A 6969  17.458  12.451   8.743  0.0371 -0.2252  0.1937
  436loPI   C4A 6970  17.469  12.510   8.283  0.1583 -0.1335  0.0215
  436loPI   C5A 6971  17.657  12.775   8.068  0.2354  0.2706 -0.0033
  436loPI   C6A 6972  17.755  13.124   7.823  0.1790  0.3526 -0.0057
  436loPI   C1B 6973  17.154  13.058   9.738 -0.0786 -0.3118  0.3401
  436loPI   C2B 6974  17.246  13.047   9.413  0.1134  0.2774 -0.1431
  436loPI   C3B 6975  17.194  12.951   8.915 -0.3642  0.1849 -0.2467
  436loPI   C4B 6976  17.164  12.986   8.426  0.3314  0.0912 -0.6258
  437loPI    C1 6977   9.648   8.328  10.608 -0.0946 -0.0378 -0.0659
  437loPI    C2 6978   9.906   8.330  10.913  0.0676  0.2964 -0.2005
  437loPI    C3 6979   9.519   8.259  10.980  0.1508  0.0507  0.0377
  437loPI   PO4 6980   9.786   8.253  10.377 -0.0860  0.0100 -0.0577
  437loPI   GL1 6981   9.627   7.954  10.096 -0.1535  0.1260  0.1034
  437loPI   GL2 6982   9.707   7.770  10.011 -0.2750 -0.2794 -0.2050
  437loPI   C1A 6983   9.824   8.174   9.690 -0.0183 -0.0162  0.4041
  437loPI   C2A 6984   9.895   8.127   9.263  0.1670  0.1457  0.1172
  437loPI   C3A 6985  10.014   8.104   8.849  0.2409  0.0774 -0.1839
  437loPI   C4A 6986   9.852   8.032   8.351  0.4858 -0.0413 -0.2106
  437loPI   C5A 6987   9.622   7.845   7.980  0.3443 -0.4814  0.2787
  437loPI   C6A 6988   9.590   7.439   7.792 -0.1552 -0.0186  0.0906
  437loPI   C1B 6989   9.636   7.755   9.526  0.0319 -0.0441 -0.0387
  437loPI   C2B 6990   9.658   7.750   9.035 -0.1950 -0.1668 -0.2198
  437loPI   C3B 6991   9.712   7.666   8.719  0.0085 -0.2441  0.5128
  437loPI   C4B 6992   9.796   7.512   8.310 -0.1724 -0.0733  0.0434
  438loPI    C1 6993  12.951   0.166  10.743 -0.0202 -0.1353  0.1355
  438loPI    C2 6994  12.601   0.321  10.861 -0.0743 -0.1513 -0.0016
  438loPI    C3 6995  12.912   0.311  11.114 -0.1258  0.0081  0.0693
  438loPI   PO4 6996  12.804   0.068  10.444 -0.3384 -0.0667  0.0640
  438loPI   GL1 6997  12.711   0.313  10.093 -0.1309  0.1446  0.4129
  438loPI   GL2 6998  12.975   0.233   9.892 -0.1620  0.4213  0.1041
  438loPI   C1A 6999  12.577   0.202   9.633  0.1484 -0.2279 -0.0085
  438loPI   C2A 7000  12.565   0.208   9.216  0.0471  0.1517  0.0006
  438loPI   C3A 7001  12.628   0.138   8.718 -0.0600 -0.0388 -0.0680
  438loPI   C4A 7002  12.662   0.347   8.336  0.1555 -0.1496 -0.1788
  438loPI   C5A 7003  12.783   0.472   7.922  0.0388 -0.1732 -0.2834
  438loPI   C6A 7004  12.714   0.134   7.687 -0.0019  0.1210 -0.0235
  438loPI   C1B 7005  13.090   0.235   9.434 -0.1012  0.0211 -0.0980
  438loPI   C2B 7006  13.098   0.262   9.013 -0.0503  0.1629 -0.2048
  438loPI   C3B 7007  13.156   0.328   8.616 -0.0724  0.1057  0.1492
  438loPI   C4B 7008  13.165   0.249   8.114  0.0395 -0.1716  0.0227
  439loPI    C1 7009   7.895   4.999  10.540  0.2886 -0.1402 -0.1153
  439loPI    C2 7010   8.053   5.040  10.906  0.1447  0.2353 -0.0902
  439loPI    C3 7011   7.780   5.302  10.776  0.1461  0.0672 -0.4441
  439loPI   PO4 7012   8.067   5.040  10.351  0.1929 -0.2010  0.2832
  439loPI   GL1 7013   8.110   5.000   9.917  0.0337 -0.3296  0.2734
  439loPI   GL2 7014   8.248   5.121   9.697  0.0178 -0.0368  0.1084
  439loPI   C1A 7015   7.772   5.193   9.579  0.0657 -0.1467  0.0954
  439loPI   C2A 7016   7.757   4.992   9.071 -0.3509 -0.0841  0.1485
  439loPI   C3A 7017   7.552   4.751   8.730 -0.0736 -0.4446 -0.1939
  439loPI   C4A 7018   7.652   4.603   8.336  0.2768 -0.0379  0.1214
  439loPI   C5A 7019   7.534   4.474   7.895 -0.0902  0.2369 -0.1750
  439loPI   C6A 7020   7.322   4.312   7.541  0.1877  0.2241  0.1284
  439loPI   C1B 7021   8.281   5.338   9.364  0.3135 -0.2842 -0.0489
  439loPI   C2B 7022   8.298   5.341   8.886 -0.0934 -0.0618 -0.3053
  439loPI   C3B 7023   8.365   5.433   8.443 -0.1625  0.2371 -0.0346
  439loPI   C4B 7024   8.002   5.413   8.186 -0.0683  0.2884  0.0471
  440loPI    C1 7025   9.261  17.269  10.551 -0.0233 -0.0177 -0.1308
  440loPI    C2 7026   8.862  17.255  10.556 -0.0214 -0.0268  0.0300
  440loPI    C3 7027   9.051  17.604  10.609 -0.0037 -0.0793  0.3313
  440loPI   PO4 7028   9.348  17.135  10.329  0.0594 -0.3282  0.2029
  440loPI   GL1 7029   9.403  17.193   9.932 -0.0664 -0.1473 -0.1053
  440loPI   GL2 7030   9.149  16.772   9.832  0.0100 -0.1423 -0.0718
  440loPI   C1A 7031   9.484  17.360   9.573  0.1538 -0.2721 -0.0099
  440loPI   C2A 7032   9.365  17.516   9.221  0.0095 -0.3652 -0.0981
  440loPI   C3A 7033   9.435  17.500   8.775  0.1107 -0.0701  0.2318
  440loPI   C4A 7034   9.508  17.415   8.283 -0.0786  0.0086 -0.2548
  440loPI   C5A 7035   9.326  17.483   7.903 -0.1035 -0.3160 -0.1091
  440loPI   C6A 7036   9.135  17.247   7.602  0.5671  0.4969  0.0212
  440loPI   C1B 7037   9.069  16.613   9.407 -0.2001 -0.0696 -0.2056
  440loPI   C2B 7038   8.929  16.535   9.035 -0.0566  0.1199 -0.0003
  440loPI   C3B 7039   8.932  16.625   8.547  0.1372  0.1775 -0.0764
  440loPI   C4B 7040   8.907  16.664   8.069 -0.0813 -0.0898  0.0223
  441loPI    C1 7041  14.203   1.178  10.986 -0.0858 -0.1297 -0.2852
  441loPI    C2 7042  14.028   1.523  10.884 -0.0834 -0.0713 -0.0956
  441loPI    C3 7043  13.805   1.196  10.946 -0.1252 -0.0043  0.1164
  441loPI   PO4 7044  14.465   1.169  10.831 -0.1897 -0.1530 -0.0084
  441loPI   GL1 7045  14.742   1.435  10.625  0.0149 -0.2992  0.1475
  441loPI   GL2 7046  14.428   1.601  10.505  0.0305  0.2153 -0.0795
  441loPI   C1A 7047  14.796   1.445  10.146 -0.1260  0.0619 -0.2362
  441loPI   C2A 7048  14.918   1.461   9.683 -0.4052 -0.0724 -0.1401
  441loPI   C3A 7049  15.002   1.613   9.301  0.0498  0.0534  0.1090
  441loPI   C4A 7050  15.010   1.686   8.826 -0.1851  0.0094 -0.0640
  441loPI   C5A 7051  14.659   1.799   8.523 -0.3382  0.0704 -0.1512
  441loPI   C6A 7052  14.536   1.692   8.130 -0.5052  0.2014 -0.1640
  441loPI   C1B 7053  14.247   1.522  10.088  0.0887 -0.0561  0.1186
  441loPI   C2B 7054  14.384   1.541   9.729  0.1813  0.1327 -0.0635
  441loPI   C3B 7055  14.449   1.624   9.337  0.1012 -0.0845 -0.0133
  441loPI   C4B 7056  14.558   1.651   8.987 -0.0562  0.1015 -0.0191
  442loPI    C1 7057   5.614  16.950  10.447  0.1162  0.2315  0.3398
  442loPI    C2 7058   5.418  16.680  10.668 -0.0816  0.0883 -0.0041
  442loPI    C3 7059   5.554  17.016  10.837  0.1521 -0.2137  0.4259
  442loPI   PO4 7060   5.695  16.846  10.294  0.0104  0.1317 -0.1433
  442loPI   GL1 7061   5.650  16.980   9.949  0.0083  0.1513  0.2196
  442loPI   GL2 7062   5.520  17.211   9.930  0.0157  0.0289  0.0253
  442loPI   C1A 7063   5.807  16.829   9.505 -0.3053  0.3505  0.3005
  442loPI   C2A 7064   5.867  16.821   9.166 -0.0016  0.0454  0.0142
  442loPI   C3A 7065   5.773  16.860   8.699  0.3257 -0.0883  0.1166
  442loPI   C4A 7066   5.654  16.975   8.302 -0.0646 -0.0152  0.1857
  442loPI   C5A 7067   5.503  16.942   7.801  0.2821 -0.2162  0.0817
  442loPI   C6A 7068   5.708  17.282   7.424  0.2416 -0.5030  0.0793
  442loPI   C1B 7069   5.343  16.991   9.523 -0.0823  0.0658 -0.0076
  442loPI   C2B 7070   5.194  17.023   9.164 -0.1605  0.5068  0.0325
  442loPI   C3B 7071   5.244  17.162   8.652 -0.2440 -0.1493  0.1221
  442loPI   C4B 7072   5.144  17.140   8.188 -0.0676  0.2771 -0.2001
  443loPI    C1 7073  16.672  14.867  10.782 -0.0023  0.0665 -0.1583
  443loPI    C2 7074  16.462  14.796  11.115  0.2438  0.0245 -0.0101
  443loPI    C3 7075  16.391  15.126  10.901 -0.1216 -0.0962 -0.0817
  443loPI   PO4 7076  16.660  14.616  10.567 -0.3284 -0.2055  0.0802
  443loPI   GL1 7077  16.862  14.638  10.202 -0.1716  0.1333  0.0364
  443loPI   GL2 7078  16.523  14.725   9.972  0.1091  0.0773  0.0985
  443loPI   C1A 7079  16.939  14.482   9.800 -0.0264 -0.0962  0.1148
  443loPI   C2A 7080  16.852  14.473   9.455  0.2945 -0.0683 -0.1463
  443loPI   C3A 7081  16.938  14.430   9.075  0.1557  0.0314  0.0782
  443loPI   C4A 7082  17.129  14.384   8.600  0.3001 -0.1253  0.0261
  443loPI   C5A 7083  17.343  14.481   8.226  0.0660 -0.0847 -0.1571
  443loPI   C6A 7084  17.443  14.598   7.788  0.3575  0.2423 -0.0040
  443loPI   C1B 7085  16.704  14.921   9.605 -0.2664 -0.1434 -0.3595
  443loPI   C2B 7086  16.745  14.876   9.171 -0.0061 -0.2039  0.1533
  443loPI   C3B 7087  16.820  14.798   8.753 -0.1695 -0.2230  0.0099
  443loPI   C4B 7088  16.859  14.958   8.314 -0.3271 -0.4515 -0.1083
  444loPI    C1 7089  18.022   0.515  10.739 -0.1435  0.1118 -0.0580
  444loPI    C2 7090  17.784   0.573  11.056 -0.1058 -0.0642  0.0039
  444loPI    C3 7091  18.161   0.451  11.109 -0.1135 -0.1393 -0.1111
  444loPI   PO4 7092  17.946   0.419  10.599  0.5276  0.0200 -0.1881
  444loPI   GL1 7093  17.752   0.559  10.291  0.1494  0.0992  0.0429
  444loPI   GL2 7094  17.732   0.839  10.176 -0.0603  0.2944 -0.1121
  444loPI   C1A 7095  18.056   0.583   9.969 -0.0610  0.0775  0.0066
  444loPI   C2A 7096  18.132   0.602   9.560 -0.2416  0.1365 -0.1907
  444loPI   C3A 7097  18.087   0.564   9.146  0.3517  0.0852  0.3411
  444loPI   C4A 7098  18.055   0.640   8.701  0.1336  0.4219  0.1466
  444loPI   C5A 7099  18.050   0.717   8.277 -0.1984  0.1049 -0.3682
  444loPI   C6A 7100  18.108   0.925   7.950 -0.0312 -0.0042  0.0127
  444loPI   C1B 7101  17.705   1.068   9.810  0.1620  0.0534  0.0124
  444loPI   C2B 7102  17.841   1.091   9.399  0.2147 -0.2482  0.2354
  444loPI   C3B 7103  17.909   1.047   8.979 -0.3969 -0.0335 -0.2031
  444loPI   C4B 7104  17.765   1.070   8.516 -0.1480 -0.1426 -0.1937
  445loPI    C1 7105   1.138   0.007  10.504 -0.1058  0.1604  0.1825
  445loPI    C2 7106   0.872  -0.227  10.689  0.2079 -0.4684 -0.1311
  445loPI    C3 7107   1.218  -0.139  10.868  0.0022 -0.0505  0.0757
  445loPI   PO4 7108   1.156  -0.117  10.202 -0.1728 -0.0170 -0.0320
  445loPI   GL1 7109   0.986  -0.099   9.840  0.3022 -0.2723  0.0008
  445loPI   GL2 7110   1.184   0.127   9.658  0.1911  0.2664  0.0771
  445loPI   C1A 7111   0.710  -0.276   9.468 -0.0587 -0.0450 -0.2088
  445loPI   C2A 7112   0.604  -0.285   9.134  0.1637  0.3413 -0.1703
  445loPI   C3A 7113   0.568  -0.334   8.757 -0.0175  0.0523  0.0734
  445loPI   C4A 7114   0.600  -0.560   8.313  0.0444 -0.3072 -0.2560
  445loPI   C5A 7115   0.715  -0.526   7.831 -0.3176 -0.1559  0.0424
  445loPI   C6A 7116   0.604  -0.132   7.561 -0.1107 -0.1758 -0.1756
  445loPI   C1B 7117   1.014  -0.015   9.158 -0.1923 -0.0315  0.4964
  445loPI   C2B 7118   0.882   0.037   8.826 -0.1307 -0.2055 -0.1675
  445loPI   C3B 7119   0.657   0.147   8.446 -0.2881  0.2267 -0.2141
  445loPI   C4B 7120   0.723  -0.094   8.104 -0.0788  0.1120 -0.1327
  446loPI    C1 7121  15.393  16.170  10.419  0.2051 -0.2505 -0.1091
  446loPI    C2 7122  15.157  15.890  10.258 -0.0091 -0.1277 -0.0131
  446loPI    C3 7123  15.152  15.952  10.653  0.0773 -0.0254 -0.0276
  446loPI   PO4 7124  15.617  16.194  10.280 -0.1935 -0.1501 -0.1685
  446loPI   GL1 7125  16.038  16.098  10.046  0.1656 -0.2446 -0.0669
  446loPI   GL2 7126  15.976  16.487   9.984  0.0451 -0.2400  0.1503
  446loPI   C1A 7127  16.124  15.838   9.623 -0.1715  0.3741  0.0844
  446loPI   C2A 7128  16.206  15.837   9.080 -0.0480  0.5446  0.0543
  446loPI   C3A 7129  16.291  15.748   8.713  0.2400 -0.1164 -0.0256
  446loPI   C4A 7130  16.386  15.673   8.249  0.2003  0.2015 -0.3381
  446loPI   C5A 7131  16.250  15.833   7.827  0.2038  0.3191 -0.4775
  446loPI   C6A 7132  16.136  15.772   7.438 -0.0773  0.3832  0.1033
  446loPI   C1B 7133  15.933  16.350   9.479 -0.0672 -0.4816 -0.2481
  446loPI   C2B 7134  15.917  16.341   9.037 -0.1788  0.0426 -0.1346
  446loPI   C3B 7135  16.021  16.262   8.620  0.0357  0.0151 -0.0484
  446loPI   C4B 7136  16.150  16.132   8.267 -0.1509 -0.0690 -0.1635
  447loPI    C1 7137  10.554   1.302  10.447 -0.1466  0.1135  0.0745
  447loPI    C2 7138  10.826   1.593  10.486 -0.0748  0.0342  0.1722
  447loPI    C3 7139  10.696   1.396  10.809  0.1188 -0.2618  0.0736
  447loPI   PO4 7140  10.656   1.134  10.291  0.0004 -0.0135  0.2306
  447loPI   GL1 7141  10.754   1.015   9.896  0.1612 -0.0621 -0.4005
  447loPI   GL2 7142  10.484   1.259   9.773  0.3813  0.0311 -0.0791
  447loPI   C1A 7143  10.926   0.904   9.506  0.2612  0.2084 -0.0259
  447loPI   C2A 7144  10.917   1.005   9.013 -0.0871 -0.3135 -0.1881
  447loPI   C3A 7145  11.099   1.025   8.654 -0.2626 -0.1724  0.1739
  447loPI   C4A 7146  11.284   0.966   8.258 -0.1843 -0.0289  0.0679
  447loPI   C5A 7147  11.409   0.748   7.866 -0.2780  0.2409 -0.3514
  447loPI   C6A 7148  11.831   0.674   7.784 -0.2075  0.0955 -0.0114
  447loPI   C1B 7149  10.671   1.322   9.414  0.0187  0.0920  0.0771
  447loPI   C2B 7150  10.739   1.714   9.284  0.4375  0.4069  0.0719
  447loPI   C3B 7151  10.955   1.861   8.997  0.3043 -0.2141 -0.1897
  447loPI   C4B 7152  10.781   1.970   8.551 -0.0147 -0.1718  0.0513
  448loPI    C1 7153  10.865  11.765  10.140 -0.1082  0.2766 -0.1313
  448loPI    C2 7154  10.701  11.970  10.442 -0.1430  0.0253  0.0233
  448loPI    C3 7155  11.086  11.862  10.459 -0.0990  0.1588 -0.1014
  448loPI   PO4 7156  10.829  11.884   9.899 -0.1081  0.2229 -0.3223
  448loPI   GL1 7157  10.565  11.704   9.631 -0.3696 -0.0371 -0.0070
  448loPI   GL2 7158  10.785  11.455   9.593 -0.0070  0.3305  0.2073
  448loPI   C1A 7159  10.575  11.860   9.188  0.1504  0.1614  0.0219
  448loPI   C2A 7160  10.534  11.931   8.787  0.1686  0.0854  0.0396
  448loPI   C3A 7161  10.658  12.036   8.317  0.0671 -0.1339 -0.2244
  448loPI   C4A 7162  10.583  12.289   7.957  0.0483 -0.0191 -0.0456
  448loPI   C5A 7163  10.639  12.510   7.625  0.3398 -0.0381 -0.0348
  448loPI   C6A 7164  10.287  12.798   7.396  0.0306  0.0928 -0.2007
  448loPI   C1B 7165  10.878  11.410   9.200 -0.0161  0.1848 -0.1714
  448loPI   C2B 7166  10.860  11.349   8.744 -0.3026 -0.0856  0.2393
  448loPI   C3B 7167  10.734  11.535   8.418 -0.1425  0.2396  0.0977
  448loPI   C4B 7168  11.019  11.670   8.072 -0.0868  0.1232  0.1117
  449loPI    C1 7169   8.209  11.261  10.253  0.0002 -0.1465 -0.0685
  449loPI    C2 7170   8.552  11.177  10.439 -0.0564 -0.1092  0.0537
  449loPI    C3 7171   8.218  10.980  10.537 -0.0933 -0.0661  0.0147
  449loPI   PO4 7172   8.233  11.077   9.977 -0.3911 -0.0554  0.2504
  449loPI   GL1 7173   8.414  11.014   9.549  0.0571 -0.3146  0.0214
  449loPI   GL2 7174   8.484  10.641   9.669 -0.0534  0.1180 -0.3256
  449loPI   C1A 7175   8.319  11.001   9.084 -0.1555 -0.3886  0.0517
  449loPI   C2A 7176   8.249  10.881   8.612  0.2059  0.0899  0.0841
  449loPI   C3A 7177   8.495  10.958   8.305 -0.0538  0.0486 -0.2740
  449loPI   C4A 7178   8.654  10.992   7.951 -0.2489 -0.0548 -0.3090
  449loPI   C5A 7179   8.781  10.774   7.568 -0.1111  0.0218 -0.1216
  449loPI   C6A 7180   9.217  10.589   7.391  0.0118  0.0269  0.1515
  449loPI   C1B 7181   8.496  10.597   9.260  0.0895  0.1921  0.0390
  449loPI   C2B 7182   8.536  10.447   8.721 -0.4674  0.2678  0.2943
  449loPI   C3B 7183   8.568  10.458   8.336  0.1677  0.0467  0.1295
  449loPI   C4B 7184   8.537  10.408   7.853 -0.1773  0.0230  0.0772
  450loPI    C1 7185  11.144   0.965  10.329  0.2052  0.0181  0.0152
  450loPI    C2 7186  11.129   0.671  10.058 -0.1718 -0.0288  0.0804
  450loPI    C3 7187  10.871   0.674  10.364  0.3216 -0.0405  0.5119
  450loPI   PO4 7188  11.158   1.189  10.120  0.1009 -0.5283 -0.1596
  450loPI   GL1 7189  11.334   1.458   9.774  0.1327  0.0162 -0.3465
  450loPI   GL2 7190  11.174   1.303   9.541  0.3477 -0.0908  0.0072
  450loPI   C1A 7191  11.681   1.431   9.500 -0.4098 -0.1174  0.1396
  450loPI   C2A 7192  11.707   1.372   9.131  0.1761  0.0292 -0.1223
  450loPI   C3A 7193  11.798   1.651   8.799  0.1644  0.1143 -0.0539
  450loPI   C4A 7194  11.929   1.608   8.349  0.0941  0.1227 -0.1536
  450loPI   C5A 7195  12.163   1.791   8.019  0.2224  0.2121  0.0389
  450loPI   C6A 7196  12.576   1.866   7.975  0.0539  0.3504  0.1336
  450loPI   C1B 7197  11.171   1.408   9.060  0.0748  0.1412  0.1850
  450loPI   C2B 7198  11.257   1.638   8.650  0.0839  0.0954 -0.0491
  450loPI   C3B 7199  11.443   1.637   8.238 -0.0949  0.3494  0.0355
  450loPI   C4B 7200  11.375   1.653   7.737  0.0748 -0.4704 -0.0171
  451loPI    C1 7201  17.393  10.559  11.445  0.0922  0.0689 -0.1751
  451loPI    C2 7202  17.191  10.687  11.124  0.1884  0.3297 -0.1340
  451loPI    C3 7203  17.157  10.881  11.472 -0.1654 -0.1373  0.1032
  451loPI   PO4 7204  17.642  10.544  11.272 -0.4488  0.0808 -0.4054
  451loPI   GL1 7205  17.556  10.718  10.743  0.3887  0.1164 -0.0840
  451loPI   GL2 7206  17.873  10.441  10.507  0.0320 -0.1299 -0.1337
  451loPI   C1A 7207  17.370  10.620  10.321  0.1510  0.0483  0.2047
  451loPI   C2A 7208  17.289  10.778   9.968  0.2288  0.1430 -0.2301
  451loPI   C3A 7209  17.289  10.695   9.490 -0.0458 -0.0592 -0.3256
  451loPI   C4A 7210  17.358  10.634   9.004 -0.0844 -0.4280 -0.0875
  451loPI   C5A 7211  17.262  10.669   8.521 -0.0677  0.0374 -0.0236
  451loPI   C6A 7212  17.521  10.993   8.222  0.1088 -0.0958 -0.1567
  451loPI   C1B 7213  18.128  10.307  10.149 -0.0531  0.0802 -0.1345
  451loPI   C2B 7214  18.210  10.029   9.831  0.1024  0.1912 -0.1807
  451loPI   C3B 7215  18.225  10.167   9.361 -0.0258 -0.4205 -0.7003
  451loPI   C4B 7216  18.116  10.064   8.945 -0.0204  0.0600  0.0455
  452loPI    C1 7217   1.790  12.860  10.579  0.1751  0.2481 -0.1530
  452loPI    C2 7218   2.171  12.962  10.644  0.2691 -0.2378  0.1059
  452loPI    C3 7219   1.883  13.103  10.883  0.2565  0.2663 -0.1923
  452loPI   PO4 7220   1.744  12.852  10.242  0.0019  0.1156  0.1297
  452loPI   GL1 7221   1.434  12.880   9.908  0.0920 -0.2209 -0.0887
  452loPI   GL2 7222   1.646  13.250   9.959  0.0568  0.0720 -0.1256
  452loPI   C1A 7223   1.354  12.890   9.451 -0.0894  0.0656 -0.2827
  452loPI   C2A 7224   1.388  12.840   8.988 -0.0314 -0.1360  0.4715
  452loPI   C3A 7225   1.328  12.863   8.585 -0.1196  0.0310  0.0862
  452loPI   C4A 7226   1.392  12.785   8.141 -0.0482 -0.1038  0.1224
  452loPI   C5A 7227   1.694  13.097   7.894  0.1231 -0.1122  0.1201
  452loPI   C6A 7228   1.779  13.294   7.469 -0.2716 -0.2103 -0.1612
  452loPI   C1B 7229   1.601  13.374   9.583  0.1129  0.1354 -0.1543
  452loPI   C2B 7230   1.607  13.249   9.232 -0.1080 -0.2054 -0.3828
  452loPI   C3B 7231   1.615  13.317   8.846  0.2864 -0.0165  0.2686
  452loPI   C4B 7232   1.715  13.202   8.394 -0.1629 -0.2569 -0.1021
  453loPI    C1 7233  14.741   2.589  10.994 -0.0872  0.0063 -0.1312
  453loPI    C2 7234  14.930   2.540  11.343 -0.1514 -0.0942 -0.1101
  453loPI    C3 7235  14.536   2.611  11.336 -0.0974  0.2168 -0.1496
  453loPI   PO4 7236  14.819   2.771  10.878 -0.2426 -0.1006 -0.3821
  453loPI   GL1 7237  14.821   2.880  10.454  0.0008 -0.1444 -0.3050
  453loPI   GL2 7238  14.629   2.914  10.291 -0.1352 -0.0802  0.0850
  453loPI   C1A 7239  15.197   2.964  10.182  0.1721 -0.0486 -0.1763
  453loPI   C2A 7240  15.310   2.951   9.631  0.1020 -0.2299 -0.4400
  453loPI   C3A 7241  15.379   3.038   9.271 -0.0620 -0.1789  0.1508
  453loPI   C4A 7242  15.405   2.952   8.870 -0.1252  0.0662 -0.0540
  453loPI   C5A 7243  15.490   3.119   8.370  0.1134 -0.2032 -0.2331
  453loPI   C6A 7244  15.347   3.250   8.048  0.2054  0.0405  0.2238
  453loPI   C1B 7245  14.748   2.831   9.909 -0.0240  0.2399  0.0461
  453loPI   C2B 7246  14.837   3.140   9.555 -0.1206 -0.0605 -0.0076
  453loPI   C3B 7247  14.859   2.973   9.102  0.2898 -0.0645 -0.1100
  453loPI   C4B 7248  14.842   3.134   8.610  0.0637  0.1983 -0.0537
  454loPI    C1 7249  12.055   5.979  10.694 -0.1669 -0.0075  0.0812
  454loPI    C2 7250  11.749   5.797  10.878 -0.3732  0.0396 -0.2083
  454loPI    C3 7251  11.687   5.999  10.538 -0.0613  0.2551 -0.1422
  454loPI   PO4 7252  12.301   5.863  10.600  0.2396  0.2610 -0.1166
  454loPI   GL1 7253  12.425   5.741  10.205  0.0752  0.0988  0.0229
  454loPI   GL2 7254  12.789   5.754  10.150 -0.0020  0.2357 -0.0857
  454loPI   C1A 7255  12.546   5.405   9.919 -0.2670 -0.0704  0.3405
  454loPI   C2A 7256  12.584   5.324   9.479 -0.2500  0.1016 -0.2667
  454loPI   C3A 7257  12.616   5.304   9.097 -0.0086 -0.0582  0.1077
  454loPI   C4A 7258  12.643   5.355   8.729  0.1574 -0.0053  0.0685
  454loPI   C5A 7259  12.817   5.289   8.261  0.1580 -0.0076  0.1950
  454loPI   C6A 7260  13.255   5.294   8.118  0.0490  0.2280  0.1195
  454loPI   C1B 7261  12.826   5.773   9.764 -0.1061  0.0788  0.0745
  454loPI   C2B 7262  12.798   5.737   9.354 -0.1804  0.3114  0.0415
  454loPI   C3B 7263  12.916   5.849   8.937  0.1576  0.0814  0.2284
  454loPI   C4B 7264  12.916   5.704   8.572 -0.1377 -0.0168  0.0752
  455loPI    C1 7265  10.262  14.257  10.319 -0.2032 -0.1753  0.2279
  455loPI    C2 7266  10.544  14.220  10.601  0.2889  0.0538 -0.2166
  455loPI    C3 7267  10.326  14.555  10.578  0.1620 -0.0150 -0.0377
  455loPI   PO4 7268  10.414  14.199  10.060 -0.3034  0.0443 -0.0852
  455loPI   GL1 7269  10.393  14.422   9.672 -0.0550  0.1034  0.0883
  455loPI   GL2 7270  10.606  14.087   9.644 -0.0000  0.2342  0.1254
  455loPI   C1A 7271  10.207  14.333   9.276  0.1876 -0.2452 -0.1747
  455loPI   C2A 7272  10.267  14.199   8.863 -0.3772 -0.1246 -0.0174
  455loPI   C3A 7273  10.376  14.231   8.527  0.1051 -0.1340 -0.1112
  455loPI   C4A 7274  10.209  14.231   8.160  0.0087 -0.2069 -0.4328
  455loPI   C5A 7275   9.767  14.350   7.918  0.2951  0.3175  0.2464
  455loPI   C6A 7276   9.415  14.351   8.004  0.1159  0.0462  0.0716
  455loPI   C1B 7277  10.671  14.043   9.250  0.0040  0.1409 -0.0821
  455loPI   C2B 7278  10.782  14.056   8.775 -0.2734 -0.1629 -0.0304
  455loPI   C3B 7279  10.832  13.991   8.272  0.4384  0.0050  0.0403
  455loPI   C4B 7280  10.627  14.059   7.867  0.0743  0.0665  0.2563
  456loPI    C1 7281   4.933   0.562  10.491 -0.1421 -0.1425  0.1037
  456loPI    C2 7282   4.967   0.953  10.416  0.1012 -0.1747  0.0378
  456loPI    C3 7283   4.759   0.828  10.733  0.0947  0.0115  0.1082
  456loPI   PO4 7284   4.935   0.443  10.240 -0.1232  0.3021  0.2326
  456loPI   GL1 7285   5.013   0.528   9.780 -0.2600  0.1931 -0.3921
  456loPI   GL2 7286   4.725   0.243   9.697 -0.2839  0.0176 -0.0386
  456loPI   C1A 7287   5.233   0.644   9.378  0.0346 -0.3214 -0.1644
  456loPI   C2A 7288   5.339   0.551   8.969 -0.0840 -0.1227 -0.1373
  456loPI   C3A 7289   5.225   0.622   8.619 -0.0230  0.3480  0.2461
  456loPI   C4A 7290   5.090   0.647   8.164  0.1007  0.2381  0.2547
  456loPI   C5A 7291   5.178   0.613   7.762 -0.1093 -0.2002 -0.0202
  456loPI   C6A 7292   5.249   0.306   7.515 -0.0562  0.2613 -0.0519
  456loPI   C1B 7293   4.827   0.267   9.255  0.1663 -0.2904  0.1237
  456loPI   C2B 7294   4.945   0.208   8.837  0.4221  0.0907 -0.1608
  456loPI   C3B 7295   4.967   0.233   8.384  0.0818 -0.1504 -0.1490
  456loPI   C4B 7296   4.870   0.278   7.908  0.0154 -0.0106 -0.0672
  457loPI    C1 7297  12.113  17.473  10.396  0.0836 -0.0286 -0.1736
  457loPI    C2 7298  12.063  17.313  10.760 -0.1492 -0.0121 -0.1971
  457loPI    C3 7299  12.201  17.687  10.723 -0.0172 -0.0538 -0.1298
  457loPI   PO4 7300  12.341  17.310  10.324 -0.1013 -0.1238 -0.0550
  457loPI   GL1 7301  12.515  17.224   9.919  0.0707 -0.0127 -0.0152
  457loPI   GL2 7302  12.268  17.429   9.810  0.1847 -0.1968  0.0677
  457loPI   C1A 7303  12.603  17.094   9.527  0.3038 -0.0076  0.3867
  457loPI   C2A 7304  12.335  17.158   9.181 -0.1205 -0.1590 -0.3200
  457loPI   C3A 7305  12.251  17.071   8.764  0.1597  0.1454 -0.1459
  457loPI   C4A 7306  12.209  17.197   8.364 -0.1068 -0.1979 -0.0572
  457loPI   C5A 7307  12.241  17.367   7.924 -0.0927 -0.2731 -0.0323
  457loPI   C6A 7308  12.216  17.802   7.781 -0.1156  0.0035  0.2792
  457loPI   C1B 7309  12.148  17.482   9.476  0.0513  0.1359 -0.3822
  457loPI   C2B 7310  11.956  17.552   9.138  0.6244  0.0622 -0.1122
  457loPI   C3B 7311  12.084  17.619   8.658  0.2061 -0.1569 -0.2131
  457loPI   C4B 7312  12.223  17.657   8.268 -0.1979 -0.3959  0.0329
  458loPI    C1 7313  13.987   8.714  10.845 -0.0744  0.2352  0.0261
  458loPI    C2 7314  14.090   8.647  11.225  0.0637 -0.2464 -0.0896
  458loPI    C3 7315  13.902   8.363  11.016  0.0094  0.0060 -0.3908
  458loPI   PO4 7316  14.251   8.778  10.700  0.0603 -0.1324 -0.1682
  458loPI   GL1 7317  14.393   8.713  10.342  0.3934  0.0365  0.0770
  458loPI   GL2 7318  14.182   8.895  10.184 -0.0742 -0.2602 -0.1617
  458loPI   C1A 7319  14.453   8.431  10.076 -0.0703  0.0627  0.0298
  458loPI   C2A 7320  14.463   8.355   9.641  0.1808  0.2683  0.0709
  458loPI   C3A 7321  14.531   8.426   9.266  0.1711 -0.3408  0.1133
  458loPI   C4A 7322  14.529   8.401   8.829  0.0498  0.0700 -0.1859
  458loPI   C5A 7323  14.609   8.392   8.406  0.0693  0.0004 -0.0001
  458loPI   C6A 7324  14.507   8.631   8.016 -0.3845 -0.3731 -0.1102
  458loPI   C1B 7325  14.294   8.796   9.742 -0.0227 -0.1119 -0.1224
  458loPI   C2B 7326  14.291   8.860   9.286  0.2578  0.1677 -0.3019
  458loPI   C3B 7327  14.270   8.912   8.795 -0.0746  0.2385 -0.0064
  458loPI   C4B 7328  14.375   9.051   8.413 -0.1904  0.0351 -0.1313
  459loPI    C1 7329  12.641  11.050  10.148  0.1148  0.0394  0.0436
  459loPI    C2 7330  12.518  11.424  10.218  0.1629  0.0102  0.2916
  459loPI    C3 7331  12.758  11.240  10.480  0.2414 -0.1502  0.1091
  459loPI   PO4 7332  12.417  10.923  10.027  0.1604 -0.2137 -0.0145
  459loPI   GL1 7333  12.361  10.809   9.691  0.1104  0.2007 -0.3970
  459loPI   GL2 7334  12.666  10.882   9.520 -0.4742 -0.1212  0.1683
  459loPI   C1A 7335  12.242  10.807   9.278  0.2357 -0.1113  0.1737
  459loPI   C2A 7336  12.099  10.886   8.908  0.0908 -0.0907 -0.1541
  459loPI   C3A 7337  11.984  10.780   8.460  0.1667 -0.2885 -0.3033
  459loPI   C4A 7338  11.819  10.594   8.154 -0.1302 -0.1187 -0.0367
  459loPI   C5A 7339  11.778  10.356   7.749  0.0772 -0.0190 -0.1125
  459loPI   C6A 7340  11.657  10.500   7.317 -0.1766  0.2299 -0.1439
  459loPI   C1B 7341  12.847  10.765   9.170 -0.0322  0.4172  0.2698
  459loPI   C2B 7342  12.849  10.699   8.730  0.3895 -0.1069 -0.0061
  459loPI   C3B 7343  12.724  10.478   8.368 -0.2149 -0.2048  0.0153
  459loPI   C4B 7344  12.773  10.324   7.944 -0.1338  0.0036  0.1764
  460loPI    C1 7345   6.925   0.226  10.528  0.1168 -0.1022  0.0433
  460loPI    C2 7346   6.705   0.295  10.854 -0.0837 -0.0246 -0.1067
  460loPI    C3 7347   7.015   0.532  10.768 -0.0930  0.0166 -0.0272
  460loPI   PO4 7348   7.060  -0.043  10.527  0.3146 -0.1241  0.1441
  460loPI   GL1 7349   6.970  -0.222  10.102 -0.1930 -0.0029  0.3091
  460loPI   GL2 7350   6.680  -0.190  10.039  0.1255  0.1301 -0.4053
  460loPI   C1A 7351   7.006  -0.106   9.669 -0.0790  0.0835  0.1671
  460loPI   C2A 7352   6.920   0.063   9.312  0.0837  0.0462 -0.2026
  460loPI   C3A 7353   6.918  -0.020   8.908 -0.0932  0.1548  0.1467
  460loPI   C4A 7354   6.868   0.004   8.547  0.0784  0.1833  0.3260
  460loPI   C5A 7355   7.122   0.069   8.184 -0.2296 -0.1488  0.0531
  460loPI   C6A 7356   7.380   0.185   7.856  0.1299  0.0516  0.0029
  460loPI   C1B 7357   6.578  -0.340   9.608 -0.0489 -0.5203  0.1941
  460loPI   C2B 7358   6.486  -0.363   9.169  0.4154  0.2688 -0.4230
  460loPI   C3B 7359   6.608  -0.417   8.699 -0.0254 -0.2766 -0.1030
  460loPI   C4B 7360   6.534  -0.586   8.249  0.0297 -0.1664  0.0812
  461loPI    C1 7361   9.902   7.775  10.527 -0.0202  0.1704  0.0766
  461loPI    C2 7362  10.127   7.958  10.251 -0.0015  0.1334  0.0672
  461loPI    C3 7363  10.217   7.995  10.639  0.0881  0.0273  0.0573
  461loPI   PO4 7364  10.009   7.511  10.380  0.0551 -0.2337 -0.0232
  461loPI   GL1 7365  10.220   7.445  10.051 -0.3518 -0.2545 -0.0271
  461loPI   GL2 7366  10.517   7.284   9.959 -0.1557 -0.1981 -0.2212
  461loPI   C1A 7367  10.156   7.702   9.806 -0.0396 -0.1046  0.1784
  461loPI   C2A 7368  10.107   7.679   9.429  0.3172 -0.1664  0.3156
  461loPI   C3A 7369  10.307   7.644   9.166 -0.0914  0.0534  0.2605
  461loPI   C4A 7370  10.191   7.656   8.727  0.1795  0.1379 -0.1998
  461loPI   C5A 7371  10.225   7.768   8.264 -0.0775 -0.1168 -0.1130
  461loPI   C6A 7372  10.116   7.919   7.851  0.0969  0.1582  0.0349
  461loPI   C1B 7373  10.441   7.328   9.584 -0.0891 -0.0173  0.0146
  461loPI   C2B 7374  10.534   7.161   9.153 -0.0358 -0.1116 -0.0490
  461loPI   C3B 7375  10.552   7.193   8.663 -0.2046 -0.0272 -0.0663
  461loPI   C4B 7376  10.396   7.307   8.251  0.0664  0.1465 -0.0464
  462loPI    C1 7377   4.841  10.008  10.430  0.2597 -0.2560 -0.1721
  462loPI    C2 7378   4.600   9.886  10.726  0.0783  0.0770 -0.1782
  462loPI    C3 7379   4.997   9.868  10.771  0.0529  0.2336  0.1345
  462loPI   PO4 7380   4.668  10.058  10.255  0.2447 -0.1535  0.1652
  462loPI   GL1 7381   4.604  10.212   9.886 -0.2353  0.3263 -0.1041
  462loPI   GL2 7382   4.360  10.354   9.879  0.0072  0.1409  0.0388
  462loPI   C1A 7383   4.662  10.121   9.425  0.0784  0.0921  0.1401
  462loPI   C2A 7384   4.674  10.139   8.997  0.2034  0.1101  0.0447
  462loPI   C3A 7385   4.521   9.990   8.636 -0.1742  0.1783  0.1932
  462loPI   C4A 7386   4.447   9.694   8.200  0.0593 -0.1557 -0.3428
  462loPI   C5A 7387   4.625   9.451   7.842 -0.0219 -0.0565 -0.1455
  462loPI   C6A 7388   4.760   9.024   7.809 -0.1383 -0.0844  0.2572
  462loPI   C1B 7389   4.416  10.521   9.503 -0.1237 -0.0067  0.0243
  462loPI   C2B 7390   4.333  10.473   8.996 -0.1484 -0.2832  0.5357
  462loPI   C3B 7391   4.182  10.430   8.632 -0.2034 -0.1191  0.2310
  462loPI   C4B 7392   4.189  10.498   8.139  0.2631  0.1773 -0.0890
  463loPI    C1 7393   4.761  11.695  10.227 -0.2684 -0.0651  0.0223
  463loPI    C2 7394   4.945  11.438  10.472 -0.1529 -0.0097 -0.0056
  463loPI    C3 7395   4.724  11.735  10.623  0.0000  0.0848  0.0354
  463loPI   PO4 7396   4.950  11.703  10.000 -0.3325 -0.1269 -0.1327
  463loPI   GL1 7397   4.786  11.712   9.655 -0.2205 -0.1535  0.0816
  463loPI   GL2 7398   4.500  11.919   9.851 -0.3225  0.2092  0.0815
  463loPI   C1A 7399   4.909  11.443   9.311 -0.0612  0.3502  0.0803
  463loPI   C2A 7400   4.829  11.323   8.929 -0.0975  0.0315 -0.1445
  463loPI   C3A 7401   4.757  11.321   8.456  0.3620  0.1265  0.0512
  463loPI   C4A 7402   4.885  11.244   7.976 -0.2158  0.3184 -0.2857
  463loPI   C5A 7403   5.213  11.260   7.691 -0.4496 -0.0098  0.0987
  463loPI   C6A 7404   5.472  11.558   7.408 -0.3190 -0.0243  0.0381
  463loPI   C1B 7405   4.465  11.894   9.364 -0.3006  0.2108 -0.1645
  463loPI   C2B 7406   4.586  11.791   8.951 -0.0892  0.0245 -0.2437
  463loPI   C3B 7407   4.535  11.790   8.470  0.1005 -0.3732  0.1394
  463loPI   C4B 7408   4.565  11.841   7.973  0.1345  0.1017  0.3935
  464loPI    C1 7409   5.274   4.383  10.180  0.1099 -0.0822 -0.0067
  464loPI    C2 7410   5.531   4.688  10.202  0.0872 -0.0372 -0.3166
  464loPI    C3 7411   5.540   4.398  10.478  0.0614  0.2767  0.0220
  464loPI   PO4 7412   5.077   4.521  10.060  0.0024  0.2063  0.2051
  464loPI   GL1 7413   4.826   4.790   9.683  0.2572  0.2669  0.0268
  464loPI   GL2 7414   4.902   4.427   9.604 -0.0421  0.1925  0.0192
  464loPI   C1A 7415   4.531   4.683   9.399 -0.0939  0.1298 -0.1029
  464loPI   C2A 7416   4.451   4.616   8.990  0.6087 -0.0629 -0.2708
  464loPI   C3A 7417   4.334   4.311   8.667 -0.0208 -0.1544 -0.3326
  464loPI   C4A 7418   4.497   4.138   8.162 -0.2140 -0.0777  0.1285
  464loPI   C5A 7419   4.768   3.997   7.871  0.0160  0.3467 -0.1723
  464loPI   C6A 7420   5.221   3.817   7.935 -0.0653  0.1898  0.1507
  464loPI   C1B 7421   4.836   4.275   9.268 -0.1465  0.2194  0.5968
  464loPI   C2B 7422   4.816   4.270   8.817 -0.1141  0.0730  0.0674
  464loPI   C3B 7423   4.808   4.444   8.361 -0.0648 -0.0068 -0.7985
  464loPI   C4B 7424   4.728   4.515   7.925  0.1036 -0.0392 -0.0472
  465loPI    C1 7425  13.013  13.847  10.157  0.4750 -0.0805 -0.1217
  465loPI    C2 7426  12.898  14.031  10.493  0.1397  0.0355 -0.2946
  465loPI    C3 7427  13.196  13.764  10.502  0.0155 -0.0971  0.1260
  465loPI   PO4 7428  12.903  13.692  10.043  0.1747  0.2042  0.0847
  465loPI   GL1 7429  13.079  13.593   9.667  0.3149 -0.1008 -0.1349
  465loPI   GL2 7430  12.746  13.632   9.610 -0.0225  0.0509 -0.3245
  465loPI   C1A 7431  13.128  13.590   9.267 -0.1269  0.0634 -0.1659
  465loPI   C2A 7432  13.237  13.367   8.862  0.1431  0.3920  0.2967
  465loPI   C3A 7433  13.416  13.387   8.461  0.0026 -0.1671 -0.0670
  465loPI   C4A 7434  13.536  13.399   8.003  0.4077  0.3295  0.0613
  465loPI   C5A 7435  13.674  13.309   7.509 -0.0438 -0.1109 -0.5309
  465loPI   C6A 7436  13.895  13.036   7.309  0.2749 -0.3196  0.1796
  465loPI   C1B 7437  12.649  13.929   9.341  0.0744 -0.0626  0.2241
  465loPI   C2B 7438  12.786  14.162   9.080  0.3517  0.1345  0.0323
  465loPI   C3B 7439  12.679  14.119   8.606  0.0097  0.0050 -0.0311
  465loPI   C4B 7440  12.809  14.149   8.139 -0.0933 -0.2943 -0.0207
  466loPI    C1 7441   8.586  15.006  10.381 -0.0391  0.1750 -0.1044
  466loPI    C2 7442   8.770  15.350  10.469  0.3245 -0.0361 -0.0169
  466loPI    C3 7443   8.622  15.122  10.762 -0.0207  0.0981 -0.0825
  466loPI   PO4 7444   8.425  15.059  10.185 -0.0173  0.2489 -0.4637
  466loPI   GL1 7445   8.312  14.996   9.760  0.0085 -0.0619  0.3826
  466loPI   GL2 7446   8.271  15.360   9.739  0.4176  0.4252  0.0502
  466loPI   C1A 7447   8.108  14.768   9.388  0.1316 -0.2333  0.1190
  466loPI   C2A 7448   7.936  14.773   8.923  0.0314  0.0696 -0.1417
  466loPI   C3A 7449   7.743  14.950   8.557 -0.0621  0.2882  0.0687
  466loPI   C4A 7450   7.710  15.023   8.158  0.2044 -0.0830  0.4113
  466loPI   C5A 7451   7.716  15.345   7.871 -0.0823 -0.1952 -0.0303
  466loPI   C6A 7452   7.361  15.512   7.834  0.0333 -0.0469 -0.0028
  466loPI   C1B 7453   8.452  15.153   9.280  0.3123 -0.1537 -0.0288
  466loPI   C2B 7454   8.600  15.204   8.883  0.0657  0.1814  0.3505
  466loPI   C3B 7455   8.468  14.945   8.617 -0.2945 -0.2610 -0.0657
  466loPI   C4B 7456   8.120  14.768   8.339  0.2526 -0.3685 -0.2926
  467loPI    C1 7457  10.911  14.236  10.139 -0.0466 -0.1698 -0.1345
  467loPI    C2 7458  10.751  14.546   9.942  0.2607  0.0778 -0.0040
  467loPI    C3 7459  10.813  14.570  10.336  0.2726 -0.1582  0.0100
  467loPI   PO4 7460  11.054  14.124   9.877 -0.1692 -0.1860 -0.0966
  467loPI   GL1 7461  11.076  14.178   9.549  0.4586 -0.2856 -0.0826
  467loPI   GL2 7462  11.268  13.901   9.455 -0.1289  0.2144 -0.1473
  467loPI   C1A 7463  11.200  14.399   9.251 -0.1464 -0.3540 -0.4285
  467loPI   C2A 7464  11.093  14.412   8.824 -0.0727 -0.1772  0.0568
  467loPI   C3A 7465  11.113  14.490   8.423 -0.1422  0.4497  0.1823
  467loPI   C4A 7466  11.126  14.294   7.985 -0.1549 -0.0017  0.0487
  467loPI   C5A 7467  11.122  13.936   7.736  0.1016  0.0110  0.1379
  467loPI   C6A 7468  11.321  13.570   7.523  0.1395 -0.0978 -0.1113
  467loPI   C1B 7469  11.245  13.975   8.998  0.2652  0.0180 -0.0252
  467loPI   C2B 7470  11.290  13.983   8.517 -0.0937 -0.2253 -0.2216
  467loPI   C3B 7471  11.425  13.730   8.134 -0.2085  0.0767  0.1270
  467loPI   C4B 7472  11.800  13.601   7.806  0.2129 -0.2705 -0.0446
  468loPI    C1 7473   3.341   2.439  10.510 -0.2685  0.0196 -0.0560
  468loPI    C2 7474   3.029   2.676  10.590 -0.2891 -0.0957  0.2165
  468loPI    C3 7475   3.205   2.471  10.885  0.1450  0.0887  0.0932
  468loPI   PO4 7476   3.368   2.404  10.279  0.2920 -0.0447  0.1020
  468loPI   GL1 7477   3.605   2.180   9.866 -0.1150 -0.2298 -0.1166
  468loPI   GL2 7478   3.288   1.986   9.937 -0.2585  0.1773  0.4762
  468loPI   C1A 7479   3.765   2.339   9.452 -0.2758 -0.3062  0.1099
  468loPI   C2A 7480   3.666   2.334   9.110 -0.1600 -0.0027  0.1444
  468loPI   C3A 7481   3.671   2.549   8.763  0.2765 -0.2525 -0.0454
  468loPI   C4A 7482   3.743   2.751   8.562 -0.1722  0.0945  0.0695
  468loPI   C5A 7483   3.820   2.687   8.087  0.1167  0.1007  0.0613
  468loPI   C6A 7484   3.873   2.963   7.702  0.0532  0.0042  0.0236
  468loPI   C1B 7485   3.330   2.095   9.473 -0.1425  0.3012  0.0249
  468loPI   C2B 7486   3.232   2.032   9.090 -0.1754 -0.0629  0.2216
  468loPI   C3B 7487   3.313   2.223   8.748 -0.2172  0.0678  0.3164
  468loPI   C4B 7488   3.407   2.321   8.363 -0.4019  0.2612 -0.1913
  469loPI    C1 7489  11.292  17.250  10.304 -0.1085  0.0027  0.0942
  469loPI    C2 7490  11.673  17.229  10.423 -0.1014 -0.0644  0.0602
  469loPI    C3 7491  11.471  16.894  10.339 -0.1403 -0.0237 -0.0092
  469loPI   PO4 7492  11.360  17.369  10.023  0.3106  0.1206 -0.1156
  469loPI   GL1 7493  11.107  17.476   9.640 -0.3434 -0.1597 -0.3378
  469loPI   GL2 7494  11.110  17.139   9.599 -0.0879  0.2053  0.1347
  469loPI   C1A 7495  10.952  17.485   9.299  0.2021  0.2323  0.0258
  469loPI   C2A 7496  11.020  17.570   8.890  0.3231 -0.0676 -0.0776
  469loPI   C3A 7497  11.119  17.629   8.504  0.0873  0.0905  0.0493
  469loPI   C4A 7498  11.226  17.810   8.153 -0.1385  0.0199 -0.4000
  469loPI   C5A 7499  11.311  17.836   7.685 -0.1039  0.1367 -0.0796
  469loPI   C6A 7500  11.297  17.690   7.241 -0.0272 -0.1940  0.0764
  469loPI   C1B 7501  11.178  17.095   9.058 -0.2098  0.2009 -0.1150
  469loPI   C2B 7502  11.170  17.153   8.631  0.2689 -0.3248  0.4377
  469loPI   C3B 7503  11.188  17.281   8.164 -0.0653  0.2667  0.1310
  469loPI   C4B 7504  11.059  17.434   7.803 -0.0309  0.0696  0.1988
  470loPI    C1 7505  12.518   2.555  10.682 -0.1477  0.2255  0.0784
  470loPI    C2 7506  12.894   2.610  10.808 -0.0910  0.1683 -0.0632
  470loPI    C3 7507  12.606   2.867  10.916  0.0088  0.2701 -0.0380
  470loPI   PO4 7508  12.582   2.555  10.453  0.2256 -0.0244  0.0347
  470loPI   GL1 7509  12.653   2.454  10.017 -0.3059 -0.3939 -0.0611
  470loPI   GL2 7510  12.478   2.732  10.014  0.1428 -0.1867  0.0195
  470loPI   C1A 7511  12.692   2.495   9.551  0.1454 -0.3441  0.2712
  470loPI   C2A 7512  12.701   2.575   9.161 -0.3030 -0.1430 -0.1844
  470loPI   C3A 7513  12.917   2.565   8.744  0.0905 -0.3082 -0.2577
  470loPI   C4A 7514  13.101   2.587   8.395 -0.3037  0.0327 -0.1762
  470loPI   C5A 7515  13.240   2.877   8.083 -0.3235 -0.2175  0.0968
  470loPI   C6A 7516  13.058   3.356   7.899  0.2587 -0.0838  0.1395
  470loPI   C1B 7517  12.439   2.943   9.682  0.3102  0.0198  0.1612
  470loPI   C2B 7518  12.574   3.017   9.297  0.0144 -0.3078  0.0642
  470loPI   C3B 7519  12.672   3.034   8.900 -0.2030 -0.0187  0.1095
  470loPI   C4B 7520  12.779   3.096   8.462 -0.0952  0.4643  0.0721
  471loPI    C1 7521  13.367  12.513  10.292 -0.0234 -0.2174 -0.1163
  471loPI    C2 7522  13.319  12.704  10.640  0.0952 -0.1784 -0.1207
  471loPI    C3 7523  13.090  12.388  10.552  0.0986 -0.2192  0.0143
  471loPI   PO4 7524  13.644  12.562  10.296  0.0925 -0.0765 -0.4399
  471loPI   GL1 7525  13.811  12.311  10.027  0.0192  0.0859 -0.2045
  471loPI   GL2 7526  13.692  12.521   9.798 -0.1129 -0.5008  0.0535
  471loPI   C1A 7527  13.840  12.103   9.587  0.2216  0.0072  0.3578
  471loPI   C2A 7528  13.974  12.070   9.161  0.2573 -0.1159 -0.1948
  471loPI   C3A 7529  14.117  12.035   8.718 -0.1499  0.1459 -0.0228
  471loPI   C4A 7530  14.188  11.956   8.314 -0.0366 -0.0749 -0.1994
  471loPI   C5A 7531  13.963  11.941   7.969 -0.1844 -0.0028  0.0861
  471loPI   C6A 7532  13.620  11.810   7.617 -0.0044 -0.1840  0.2897
  471loPI   C1B 7533  13.626  12.594   9.424 -0.1686 -0.0135  0.0302
  471loPI   C2B 7534  13.670  12.519   9.008  0.1436  0.2374 -0.2460
  471loPI   C3B 7535  13.742  12.500   8.583  0.2284 -0.0392 -0.3436
  471loPI   C4B 7536  13.793  12.398   8.131  0.1681 -0.1108 -0.0246
  472loPI    C1 7537   1.364  10.601  10.917 -0.0851  0.2373  0.0015
  472loPI    C2 7538   1.598  10.492  11.223 -0.1435 -0.2554 -0.1199
  472loPI    C3 7539   1.236  10.647  11.293 -0.0110 -0.0210  0.0610
  472loPI   PO4 7540   1.340  10.396  10.793  0.1027 -0.1283 -0.0147
  472loPI   GL1 7541   1.274  10.370  10.341  0.0692  0.0986  0.0683
  472loPI   GL2 7542   1.409  10.156  10.037  0.4069  0.1498  0.0742
  472loPI   C1A 7543   1.110  10.540   9.958 -0.1970  0.0184  0.0019
  472loPI   C2A 7544   1.104  10.485   9.489  0.0288 -0.2392  0.3977
  472loPI   C3A 7545   0.996  10.619   9.040  0.1652 -0.0229  0.0505
  472loPI   C4A 7546   0.887  10.645   8.613  0.1394 -0.0013  0.1783
  472loPI   C5A 7547   0.885  10.643   8.242 -0.0630  0.3151 -0.0787
  472loPI   C6A 7548   0.572  10.636   7.984 -0.1672 -0.1767  0.1606
  472loPI   C1B 7549   1.267  10.041   9.590  0.0646 -0.1134 -0.1372
  472loPI   C2B 7550   1.197  10.186   9.132 -0.0252  0.1475 -0.2378
  472loPI   C3B 7551   1.150  10.209   8.691 -0.0975  0.0519 -0.0021
  472loPI   C4B 7552   1.193  10.096   8.242  0.0490  0.0747 -0.0163
  473loPI    C1 7553  11.126  15.933  10.275 -0.1156 -0.0080 -0.0785
  473loPI    C2 7554  11.358  15.679  10.480 -0.1474 -0.0032 -0.0365
  473loPI    C3 7555  11.156  15.965  10.673 -0.0571  0.0983 -0.0910
  473loPI   PO4 7556  11.278  15.994   9.987 -0.0499  0.2224 -0.3000
  473loPI   GL1 7557  11.407  16.181   9.615  0.0162 -0.0198  0.1701
  473loPI   GL2 7558  11.587  16.462   9.581  0.0783 -0.0140 -0.1742
  473loPI   C1A 7559  11.293  16.142   9.201 -0.1226  0.1019 -0.1286
  473loPI   C2A 7560  11.267  16.084   8.741  0.0233  0.0671  0.0440
  473loPI   C3A 7561  11.067  16.368   8.345  0.1027 -0.0558  0.0728
  473loPI   C4A 7562  10.996  16.426   7.963  0.2614 -0.1540 -0.1017
  473loPI   C5A 7563  10.823  16.331   7.552  0.2839 -0.0554  0.0734
  473loPI   C6A 7564  10.766  15.986   7.244 -0.3032 -0.1699 -0.1261
  473loPI   C1B 7565  11.570  16.627   9.153 -0.0190 -0.0039 -0.1704
  473loPI   C2B 7566  11.507  16.607   8.672  0.1629 -0.0398  0.2062
  473loPI   C3B 7567  11.464  16.666   8.263 -0.2595  0.3406 -0.0757
  473loPI   C4B 7568  11.367  16.805   7.866 -0.1972  0.4525  0.2422
  474loPI    C1 7569  16.876  16.956  10.923  0.0001  0.1847 -0.1091
  474loPI    C2 7570  16.729  17.252  11.149 -0.2574 -0.1525  0.1776
  474loPI    C3 7571  17.031  17.028  11.285 -0.0222  0.0102 -0.0642
  474loPI   PO4 7572  16.872  17.079  10.628  0.6308 -0.1801  0.0561
  474loPI   GL1 7573  16.913  17.141  10.191  0.2106  0.1421 -0.0699
  474loPI   GL2 7574  17.105  17.335  10.212 -0.0129  0.2475  0.0768
  474loPI   C1A 7575  16.976  17.224   9.734 -0.0887  0.0095  0.1827
  474loPI   C2A 7576  17.017  17.254   9.326 -0.0390 -0.0179  0.0755
  474loPI   C3A 7577  17.043  17.260   8.874 -0.2429  0.0482 -0.2457
  474loPI   C4A 7578  17.045  17.129   8.511 -0.2105 -0.2961 -0.3062
  474loPI   C5A 7579  16.915  17.148   8.099 -0.0534  0.0129  0.1579
  474loPI   C6A 7580  16.924  16.868   7.633 -0.2296  0.2035  0.0798
  474loPI   C1B 7581  17.460  17.365   9.954  0.1427  0.1422 -0.2894
  474loPI   C2B 7582  17.507  17.333   9.469  0.1714  0.3286  0.1165
  474loPI   C3B 7583  17.469  17.209   9.106  0.6075 -0.2557 -0.0359
  474loPI   C4B 7584  17.527  17.354   8.598 -0.0042 -0.0213  0.1462
  475loPI    C1 7585  17.743  13.889  10.826  0.2207 -0.0312  0.0826
  475loPI    C2 7586  17.495  13.605  10.959 -0.2231  0.2011 -0.2256
  475loPI    C3 7587  17.714  13.817  11.219 -0.1560 -0.1748  0.0319
  475loPI   PO4 7588  17.717  13.818  10.532 -0.0060  0.1421  0.1296
  475loPI   GL1 7589  17.692  13.990  10.159  0.1989  0.0426 -0.1274
  475loPI   GL2 7590  17.924  14.239  10.179  0.0039  0.0406 -0.1331
  475loPI   C1A 7591  17.768  13.865   9.785 -0.2458 -0.1592  0.0690
  475loPI   C2A 7592  17.792  14.028   9.348 -0.3400  0.0527 -0.0016
  475loPI   C3A 7593  17.761  13.894   8.938 -0.0693  0.1435 -0.2018
  475loPI   C4A 7594  17.775  13.714   8.446  0.0608  0.1036 -0.0993
  475loPI   C5A 7595  18.035  13.895   8.129 -0.1099  0.2263  0.4961
  475loPI   C6A 7596  18.384  13.928   8.068 -0.0820  0.2759  0.2111
  475loPI   C1B 7597  18.089  14.457   9.862 -0.0588 -0.0762  0.0577
  475loPI   C2B 7598  18.094  14.476   9.398 -0.2950 -0.2769 -0.2490
  475loPI   C3B 7599  18.138  14.339   9.003 -0.0620 -0.0613  0.0545
  475loPI   C4B 7600  18.073  14.222   8.502 -0.1415 -0.1625  0.3342
  476loPI    C1 7601  10.425   3.725  10.176 -0.0137  0.1477 -0.0798
  476loPI    C2 7602  10.297   3.951  10.480 -0.0855  0.0985 -0.0731
  476loPI    C3 7603  10.130   3.594  10.411  0.1176 -0.0120 -0.0022
  476loPI   PO4 7604  10.422   3.853   9.999 -0.1372 -0.0409  0.1873
  476loPI   GL1 7605  10.234   3.966   9.674 -0.0508 -0.2471 -0.1283
  476loPI   GL2 7606  10.319   3.624   9.550  0.3490 -0.2175  0.2719
  476loPI   C1A 7607  10.543   3.973   9.319  0.1191 -0.1995 -0.2788
  476loPI   C2A 7608  10.798   3.956   8.878  0.0526  0.0079  0.0938
  476loPI   C3A 7609  10.789   4.064   8.427 -0.1563 -0.1394 -0.2457
  476loPI   C4A 7610  10.700   4.247   8.019  0.2556 -0.0939 -0.1079
  476loPI   C5A 7611  10.363   4.399   7.854  0.1347  0.2394  0.4037
  476loPI   C6A 7612  10.140   4.720   7.977  0.1636 -0.2002  0.3529
  476loPI   C1B 7613  10.275   3.732   9.042 -0.2687  0.2739 -0.0324
  476loPI   C2B 7614  10.349   3.827   8.638 -0.0405  0.0449 -0.1787
  476loPI   C3B 7615  10.289   4.165   8.487 -0.0043 -0.1299 -0.1798
  476loPI   C4B 7616  10.341   4.602   8.421  0.1445 -0.1149  0.1447
  477loPI    C1 7617   4.768  17.508  10.452 -0.0537  0.2959 -0.1920
  477loPI    C2 7618   4.393  17.627  10.526 -0.0569  0.1140  0.0980
  477loPI    C3 7619   4.693  17.751  10.760  0.0481  0.1602 -0.0588
  477loPI   PO4 7620   4.724  17.221  10.377 -0.1248  0.1450 -0.1125
  477loPI   GL1 7621   4.744  17.040   9.995 -0.3656 -0.1796 -0.0045
  477loPI   GL2 7622   4.950  17.098   9.816 -0.2963 -0.1100 -0.3908
  477loPI   C1A 7623   4.472  16.937   9.605  0.0376  0.0574  0.1477
  477loPI   C2A 7624   4.487  16.903   9.168 -0.1268  0.2527  0.1131
  477loPI   C3A 7625   4.367  17.132   8.785  0.2308 -0.2950  0.1079
  477loPI   C4A 7626   4.204  17.315   8.338 -0.3016 -0.0892 -0.3053
  477loPI   C5A 7627   3.969  17.633   8.262 -0.1152 -0.1224 -0.1850
  477loPI   C6A 7628   3.683  17.846   8.496  0.0727 -0.0168  0.1324
  477loPI   C1B 7629   4.887  17.356   9.507  0.0337  0.2532 -0.1552
  477loPI   C2B 7630   4.808  17.289   9.009 -0.0212 -0.1388  0.2219
  477loPI   C3B 7631   4.793  17.355   8.527  0.0950  0.1505 -0.1835
  477loPI   C4B 7632   4.725  17.432   8.070 -0.3381 -0.2011 -0.0332
  478loPI    C1 7633   7.363   0.824  10.508  0.0574 -0.0220  0.0223
  478loPI    C2 7634   7.497   1.011  10.181 -0.3172  0.1522 -0.0361
  478loPI    C3 7635   7.737   0.967  10.497 -0.0246  0.1808 -0.2496
  478loPI   PO4 7636   7.244   0.608  10.326  0.1521 -0.0341 -0.2300
  478loPI   GL1 7637   7.134   0.640   9.926 -0.2064 -0.3080 -0.0149
  478loPI   GL2 7638   6.877   0.346  10.058 -0.1441  0.1763 -0.1888
  478loPI   C1A 7639   7.328   0.374   9.537  0.2031  0.1370 -0.1084
  478loPI   C2A 7640   7.293   0.303   9.089 -0.0050  0.0495 -0.4302
  478loPI   C3A 7641   7.325   0.299   8.633  0.2545 -0.2454 -0.3367
  478loPI   C4A 7642   7.569   0.278   8.349  0.3995 -0.1619 -0.1587
  478loPI   C5A 7643   7.803   0.488   8.072 -0.0170 -0.0850 -0.5034
  478loPI   C6A 7644   7.735   0.499   7.658 -0.3189 -0.2100  0.0218
  478loPI   C1B 7645   6.796   0.494   9.560  0.0316 -0.2579 -0.3205
  478loPI   C2B 7646   6.808   0.449   9.094  0.1713 -0.0036  0.0340
  478loPI   C3B 7647   6.781   0.571   8.732 -0.0062 -0.0949  0.2215
  478loPI   C4B 7648   7.053   0.549   8.339 -0.1556 -0.1574  0.1812
  479loPI    C1 7649   8.788   9.434  10.400 -0.0404  0.0068 -0.0386
  479loPI    C2 7650   8.895   9.526  10.774 -0.0306  0.2185 -0.0921
  479loPI    C3 7651   8.737   9.168  10.693  0.0894  0.1230  0.0910
  479loPI   PO4 7652   9.027   9.519  10.194  0.0150  0.1968 -0.3017
  479loPI   GL1 7653   9.381   9.544   9.981  0.1623 -0.1004 -0.4050
  479loPI   GL2 7654   9.464   9.284  10.044  0.1726 -0.0995 -0.3833
  479loPI   C1A 7655   9.136   9.450   9.577 -0.2302  0.0001 -0.1336
  479loPI   C2A 7656   9.115   9.272   9.210 -0.0529  0.0091  0.1244
  479loPI   C3A 7657   9.192   9.238   8.806 -0.0552  0.1191 -0.3411
  479loPI   C4A 7658   9.128   9.085   8.350  0.1613 -0.0347  0.3346
  479loPI   C5A 7659   9.483   9.151   8.042  0.1637  0.0557  0.1688
  479loPI   C6A 7660   9.703   9.381   7.842  0.1327 -0.0694  0.1251
  479loPI   C1B 7661   9.419   9.083   9.753  0.4619  0.2481  0.0693
  479loPI   C2B 7662   9.572   9.083   9.363  0.1914 -0.1438 -0.2523
  479loPI   C3B 7663   9.597   8.967   8.954 -0.1426  0.2527 -0.1062
  479loPI   C4B 7664   9.582   8.983   8.512  0.3528 -0.0564  0.3043
  480loPI    C1 7665   2.393  10.752  10.483  0.1120 -0.1896 -0.0984
  480loPI    C2 7666   2.044  10.655  10.312 -0.0900  0.2090  0.0734
  480loPI    C3 7667   2.120  10.542  10.688 -0.0052  0.0704  0.0158
  480loPI   PO4 7668   2.488  10.796  10.213 -0.3257  0.2401 -0.1901
  480loPI   GL1 7669   2.552  11.114   9.826 -0.2605  0.3742  0.2389
  480loPI   GL2 7670   2.801  11.006   9.688  0.4756 -0.1861 -0.0849
  480loPI   C1A 7671   2.420  10.918   9.386  0.0462  0.1486  0.1705
  480loPI   C2A 7672   2.398  11.040   8.927  0.0744  0.1851 -0.0678
  480loPI   C3A 7673   2.392  10.990   8.442  0.1082 -0.0477  0.0146
  480loPI   C4A 7674   2.069  10.862   8.146  0.0360 -0.0303  0.3512
  480loPI   C5A 7675   1.804  10.578   7.990 -0.2615  0.0880 -0.1263
  480loPI   C6A 7676   1.561  10.180   7.795  0.0692 -0.1812 -0.5938
  480loPI   C1B 7677   2.896  10.987   9.122  0.2010 -0.1685 -0.3433
  480loPI   C2B 7678   2.891  11.025   8.691  0.2405 -0.0591 -0.0867
  480loPI   C3B 7679   2.858  10.982   8.232  0.1041  0.2471 -0.0560
  480loPI   C4B 7680   2.548  10.881   8.025  0.1228 -0.1881 -0.1022
  481loPI    C1 7681   8.812  11.805  10.387 -0.0427 -0.0492 -0.1257
  481loPI    C2 7682   9.009  11.889  10.724 -0.0374 -0.1696 -0.0984
  481loPI    C3 7683   8.809  11.544  10.690 -0.1817 -0.0815 -0.1538
  481loPI   PO4 7684   9.011  11.914  10.166 -0.0220 -0.0849  0.1665
  481loPI   GL1 7685   9.127  12.096   9.778 -0.0362  0.1670 -0.1732
  481loPI   GL2 7686   9.012  11.827   9.710 -0.2453  0.1055  0.1920
  481loPI   C1A 7687   8.823  12.045   9.334  0.3285 -0.0625  0.3433
  481loPI   C2A 7688   8.720  11.972   8.858 -0.1132  0.1486  0.1340
  481loPI   C3A 7689   8.895  11.830   8.403  0.3405 -0.0776  0.1851
  481loPI   C4A 7690   9.078  11.729   7.949 -0.1894 -0.1403 -0.0558
  481loPI   C5A 7691   9.490  11.978   7.761 -0.0347 -0.1716  0.1281
  481loPI   C6A 7692   9.944  12.081   7.747 -0.1501  0.0717 -0.3241
  481loPI   C1B 7693   9.090  11.667   9.284 -0.1330 -0.1557 -0.1211
  481loPI   C2B 7694   8.940  11.502   8.849  0.3131 -0.1835 -0.1446
  481loPI   C3B 7695   8.922  11.306   8.529  0.0300  0.1985  0.4593
  481loPI   C4B 7696   9.021  11.274   8.205 -0.1678  0.2339  0.2441
  482loPI    C1 7697  12.955  10.429  10.454  0.1049  0.2228 -0.1721
  482loPI    C2 7698  12.659  10.697  10.484  0.1206  0.2470 -0.2326
  482loPI    C3 7699  12.939  10.675  10.769 -0.1690 -0.0560  0.0375
  482loPI   PO4 7700  12.817  10.205  10.300  0.0169 -0.0353 -0.0395
  482loPI   GL1 7701  12.980  10.112   9.939  0.0243  0.2722  0.1407
  482loPI   GL2 7702  12.669   9.936   9.795 -0.0381  0.2906  0.0340
  482loPI   C1A 7703  13.135   9.967   9.656 -0.1553 -0.0824  0.0241
  482loPI   C2A 7704  13.189   9.909   9.297 -0.1186  0.0020  0.0281
  482loPI   C3A 7705  13.318   9.818   8.836 -0.4120  0.0191  0.0439
  482loPI   C4A 7706  13.330   9.807   8.394  0.3740  0.4319 -0.0971
  482loPI   C5A 7707  13.253   9.677   7.961 -0.2909  0.1419  0.0926
  482loPI   C6A 7708  13.260   9.376   7.653  0.1023  0.1752 -0.0982
  482loPI   C1B 7709  12.716   9.775   9.407 -0.3648 -0.1350 -0.0753
  482loPI   C2B 7710  12.784   9.869   8.972 -0.0478  0.0705 -0.2775
  482loPI   C3B 7711  12.620   9.961   8.631 -0.0143  0.0992  0.0155
  482loPI   C4B 7712  12.498  10.053   8.242 -0.0583 -0.1451  0.0185
  483loPI    C1 7713   0.160  14.842  10.844 -0.4849  0.0012  0.0434
  483loPI    C2 7714   0.074  14.474  10.713 -0.1477 -0.0609 -0.0129
  483loPI    C3 7715  -0.008  14.575  11.091 -0.0068 -0.2794  0.0782
  483loPI   PO4 7716   0.117  14.962  10.580  0.0463  0.2006  0.0258
  483loPI   GL1 7717   0.014  14.711  10.193  0.1743  0.1539  0.1663
  483loPI   GL2 7718  -0.061  14.410  10.222  0.0074 -0.2970 -0.0085
  483loPI   C1A 7719  -0.111  14.912   9.794 -0.2093  0.0774  0.1460
  483loPI   C2A 7720  -0.085  14.867   9.385  0.0449  0.2453 -0.3307
  483loPI   C3A 7721  -0.156  14.829   8.942  0.0850 -0.0256  0.0989
  483loPI   C4A 7722  -0.105  14.630   8.506 -0.1654 -0.2455  0.1612
  483loPI   C5A 7723  -0.147  14.504   8.073 -0.1066 -0.0500  0.0151
  483loPI   C6A 7724  -0.066  14.302   7.677 -0.1676  0.0896  0.1598
  483loPI   C1B 7725   0.074  14.447   9.688 -0.0643 -0.3034 -0.1529
  483loPI   C2B 7726   0.094  14.401   9.285  0.0240 -0.2274 -0.3122
  483loPI   C3B 7727   0.180  14.354   8.817  0.1604 -0.1742 -0.0766
  483loPI   C4B 7728   0.091  14.185   8.406 -0.0759  0.0873  0.0789
  484loPI    C1 7729   7.701  13.175  10.130 -0.0013  0.0287 -0.2419
  484loPI    C2 7730   7.719  12.816   9.954 -0.0532 -0.0337 -0.1216
  484loPI    C3 7731   7.370  12.953  10.093  0.0163 -0.0570  0.0801
  484loPI   PO4 7732   7.896  13.332   9.988  0.3305  0.0019 -0.2201
  484loPI   GL1 7733   8.029  13.263   9.628  0.2377  0.0704 -0.1212
  484loPI   GL2 7734   7.787  13.152   9.517  0.3071 -0.0326 -0.2012
  484loPI   C1A 7735   8.234  13.395   9.160 -0.2916  0.1197 -0.1571
  484loPI   C2A 7736   8.494  13.421   8.851  0.1033 -0.1635 -0.2364
  484loPI   C3A 7737   8.628  13.324   8.403  0.0547  0.0339 -0.0771
  484loPI   C4A 7738   8.815  13.102   8.043  0.0411 -0.0120  0.1207
  484loPI   C5A 7739   9.099  13.069   7.654 -0.0127  0.0734  0.0295
  484loPI   C6A 7740   9.394  12.731   7.623 -0.2220 -0.3775 -0.2565
  484loPI   C1B 7741   7.622  13.151   9.089  0.2711 -0.1685 -0.2153
  484loPI   C2B 7742   7.559  13.238   8.676 -0.1173  0.1905  0.2554
  484loPI   C3B 7743   7.402  13.321   8.314  0.0324 -0.0374  0.0148
  484loPI   C4B 7744   7.425  13.486   7.906 -0.2695  0.2676 -0.0143
  485loPI    C1 7745  14.208  17.386  10.318  0.1093  0.0531  0.2215
  485loPI    C2 7746  14.031  17.276  10.659  0.0458 -0.0415  0.1583
  485loPI    C3 7747  14.419  17.198  10.601  0.0748  0.0406  0.2390
  485loPI   PO4 7748  14.039  17.361  10.133  0.1129 -0.2353 -0.0264
  485loPI   GL1 7749  13.839  17.526   9.800  0.2416  0.1530 -0.1291
  485loPI   GL2 7750  13.902  17.316   9.561  0.1925 -0.0631 -0.2413
  485loPI   C1A 7751  14.063  17.764   9.533  0.0254  0.0409 -0.1790
  485loPI   C2A 7752  14.131  17.806   9.240 -0.1171  0.0391  0.0927
  485loPI   C3A 7753  14.177  17.749   8.877  0.0247 -0.1218 -0.3041
  485loPI   C4A 7754  14.209  17.714   8.426 -0.1364  0.0187  0.0713
  485loPI   C5A 7755  14.431  17.596   8.096  0.4815 -0.1328  0.1022
  485loPI   C6A 7756  14.761  17.630   7.859 -0.3917 -0.2182 -0.0756
  485loPI   C1B 7757  13.890  17.333   9.084  0.0141  0.0235  0.4385
  485loPI   C2B 7758  13.953  17.328   8.657  0.0299 -0.0090  0.2492
  485loPI   C3B 7759  13.935  17.182   8.214  0.0294  0.0134  0.2549
  485loPI   C4B 7760  13.656  17.018   7.873  0.0193  0.0860 -0.0178
  486loPI    C1 7761  11.286   1.710  10.204  0.0193 -0.0835 -0.2839
  486loPI    C2 7762  11.664   1.585  10.160  0.0211 -0.1837 -0.0075
  486loPI    C3 7763  11.441   1.444  10.461 -0.0848  0.2308  0.1147
  486loPI   PO4 7764  11.178   1.911  10.002 -0.0673 -0.2201 -0.0394
  486loPI   GL1 7765  10.959   1.994   9.688  0.2259 -0.0172  0.4447
  486loPI   GL2 7766  10.823   2.238   9.730  0.1828 -0.0775  0.0969
  486loPI   C1A 7767  11.305   1.753   9.360 -0.0747 -0.0367  0.0996
  486loPI   C2A 7768  11.533   1.960   9.018  0.1798  0.1670 -0.2093
  486loPI   C3A 7769  11.616   2.035   8.517  0.1022  0.2526 -0.3133
  486loPI   C4A 7770  11.796   2.190   8.210  0.2359 -0.2315  0.1241
  486loPI   C5A 7771  11.886   2.378   7.882  0.2228  0.2385 -0.2181
  486loPI   C6A 7772  11.948   2.515   7.416 -0.0243  0.0896  0.3008
  486loPI   C1B 7773  10.657   2.251   9.315  0.4515 -0.3708  0.1004
  486loPI   C2B 7774  10.745   2.414   8.943  0.2823  0.2899 -0.2330
  486loPI   C3B 7775  10.728   2.511   8.452 -0.0325 -0.2437 -0.0093
  486loPI   C4B 7776  10.774   2.328   8.070 -0.1867  0.1730 -0.0787
  487loPI    C1 7777   2.603   1.019  10.066  0.0068  0.0573  0.0369
  487loPI    C2 7778   2.498   0.727   9.813 -0.0574  0.0277  0.0975
  487loPI    C3 7779   2.854   0.716   9.995 -0.0167  0.0421  0.0186
  487loPI   PO4 7780   2.501   1.219   9.944  0.4886 -0.0279  0.1065
  487loPI   GL1 7781   2.300   1.400   9.683 -0.2514 -0.2527  0.1624
  487loPI   GL2 7782   2.313   1.636   9.765  0.0696  0.0483 -0.0653
  487loPI   C1A 7783   2.319   1.332   9.198  0.1239  0.1704 -0.3405
  487loPI   C2A 7784   2.281   1.442   8.844  0.1234 -0.0601 -0.0471
  487loPI   C3A 7785   2.238   1.473   8.392  0.2899 -0.1873  0.1842
  487loPI   C4A 7786   2.026   1.361   7.994 -0.0188 -0.1038  0.1165
  487loPI   C5A 7787   1.860   1.350   7.611 -0.1817  0.1685 -0.2129
  487loPI   C6A 7788   1.514   1.418   7.394  0.1253  0.2466 -0.3654
  487loPI   C1B 7789   2.129   1.835   9.325 -0.0769  0.1878 -0.0446
  487loPI   C2B 7790   2.045   1.936   8.943 -0.1168  0.0805 -0.0714
  487loPI   C3B 7791   2.012   1.944   8.508 -0.0586  0.3514 -0.3404
  487loPI   C4B 7792   2.007   1.897   8.103  0.1355 -0.2751  0.1283
  488loPI    C1 7793  10.572   9.214  10.584 -0.1359 -0.0706  0.0234
  488loPI    C2 7794  10.655   9.442  10.902 -0.0991  0.2335 -0.2004
  488loPI    C3 7795  10.568   9.055  10.951  0.0820  0.2346  0.1623
  488loPI   PO4 7796  10.723   9.242  10.422  0.3039  0.2190  0.2083
  488loPI   GL1 7797  10.982   8.994  10.112 -0.2663  0.2257  0.2782
  488loPI   GL2 7798  11.237   8.925  10.149 -0.1045 -0.0539  0.1264
  488loPI   C1A 7799  11.032   8.997   9.737  0.2275 -0.4411  0.0227
  488loPI   C2A 7800  11.057   9.224   9.420  0.1226 -0.1136 -0.1851
  488loPI   C3A 7801  11.011   8.983   8.973  0.2469 -0.1358 -0.2348
  488loPI   C4A 7802  11.169   8.890   8.526  0.3009  0.3053 -0.1060
  488loPI   C5A 7803  11.053   8.783   8.194  0.1380  0.1975 -0.0229
  488loPI   C6A 7804  11.026   8.372   8.147 -0.0349 -0.3669 -0.2802
  488loPI   C1B 7805  11.263   8.620   9.733  0.0154 -0.0585 -0.2953
  488loPI   C2B 7806  11.236   8.677   9.280  0.2441  0.1714  0.3084
  488loPI   C3B 7807  11.274   8.456   8.895 -0.2224 -0.2619 -0.0859
  488loPI   C4B 7808  11.421   8.451   8.456 -0.1712  0.1950  0.1964
  489loPI    C1 7809   7.321   4.473  10.198  0.2472 -0.1008 -0.1842
  489loPI    C2 7810   7.643   4.624  10.381  0.1572 -0.1827  0.0457
  489loPI    C3 7811   7.630   4.236  10.288  0.0965 -0.1936  0.0994
  489loPI   PO4 7812   7.239   4.656  10.015 -0.0770 -0.1416 -0.4693
  489loPI   GL1 7813   7.001   5.052   9.876 -0.1253 -0.2415  0.2894
  489loPI   GL2 7814   7.300   5.123   9.626  0.1399  0.4148  0.1306
  489loPI   C1A 7815   6.838   4.910   9.447  0.3093  0.2288 -0.0771
  489loPI   C2A 7816   6.561   4.936   9.089  0.1297  0.0697  0.2123
  489loPI   C3A 7817   6.463   5.160   8.691 -0.0807  0.1731  0.0131
  489loPI   C4A 7818   6.359   5.044   8.260  0.1106  0.2670  0.0598
  489loPI   C5A 7819   6.100   4.809   7.957 -0.0609 -0.0721 -0.2387
  489loPI   C6A 7820   5.928   4.839   7.575  0.0013 -0.5852 -0.1774
  489loPI   C1B 7821   7.264   4.901   9.115 -0.0318 -0.0152 -0.2059
  489loPI   C2B 7822   7.080   4.995   8.669 -0.0811 -0.0127  0.0415
  489loPI   C3B 7823   7.171   4.849   8.320 -0.1110  0.1898 -0.2643
  489loPI   C4B 7824   6.789   4.761   8.054 -0.4472 -0.0611  0.1440
  490loPI    C1 7825   4.635  18.137  10.480 -0.0619  0.0182  0.1943
  490loPI    C2 7826   4.310  18.369  10.468 -0.0586  0.0159  0.0363
  490loPI    C3 7827   4.594  18.436  10.742 -0.1621  0.0574  0.1344
  490loPI   PO4 7828   4.652  18.075  10.261  0.1030 -0.1939  0.0622
  490loPI   GL1 7829   4.509  18.057   9.953 -0.1349 -0.0277 -0.2082
  490loPI   GL2 7830   4.321  18.254   9.891  0.1236 -0.0697  0.2209
  490loPI   C1A 7831   4.672  17.836   9.553  0.1772  0.0200  0.2442
  490loPI   C2A 7832   4.610  17.821   9.148  0.2995  0.0241  0.5252
  490loPI   C3A 7833   4.752  17.823   8.789  0.0227  0.0163  0.0912
  490loPI   C4A 7834   4.762  17.816   8.351  0.1500 -0.2443  0.1517
  490loPI   C5A 7835   4.748  17.905   7.856  0.0735 -0.0846 -0.1219
  490loPI   C6A 7836   4.555  18.073   7.449 -0.1792  0.1489 -0.0249
  490loPI   C1B 7837   4.512  18.301   9.435 -0.1644  0.0948  0.0839
  490loPI   C2B 7838   4.623  18.282   9.063  0.2598 -0.0982  0.1636
  490loPI   C3B 7839   4.496  18.310   8.576  0.0536 -0.0518  0.0243
  490loPI   C4B 7840   4.752  18.320   8.206 -0.4863  0.0273 -0.2642
  491loPI    C1 7841   7.198   8.500  10.432 -0.2756  0.1445 -0.0422
  491loPI    C2 7842   7.232   8.802  10.692  0.1497 -0.0737  0.1671
  491loPI    C3 7843   7.130   8.438  10.822 -0.2057 -0.0600 -0.0612
  491loPI   PO4 7844   7.437   8.527  10.328  0.1746  0.3097 -0.2953
  491loPI   GL1 7845   7.400   8.723   9.905  0.3006 -0.3002  0.1474
  491loPI   GL2 7846   7.441   9.041   9.846 -0.1417 -0.0788 -0.0413
  491loPI   C1A 7847   7.134   8.579   9.631 -0.1106 -0.3399 -0.0136
  491loPI   C2A 7848   7.068   8.450   9.291  0.1067  0.1795  0.0073
  491loPI   C3A 7849   6.936   8.375   8.922  0.0619 -0.2131  0.1789
  491loPI   C4A 7850   6.917   8.374   8.417  0.2036  0.3131  0.1138
  491loPI   C5A 7851   6.877   8.121   8.051 -0.3010 -0.1731  0.2129
  491loPI   C6A 7852   6.485   8.097   7.760 -0.3180 -0.0077 -0.3295
  491loPI   C1B 7853   7.401   8.934   9.404  0.0326 -0.0627 -0.0665
  491loPI   C2B 7854   7.458   8.886   8.992 -0.2391  0.0149  0.1532
  491loPI   C3B 7855   7.261   8.697   8.583  0.3268  0.1575  0.1599
  491loPI   C4B 7856   7.441   8.421   8.301  0.2816  0.0358  0.3375
  492loPI    C1 7857  15.845   0.691  10.668  0.0991 -0.0195 -0.1550
  492loPI    C2 7858  15.650   1.038  10.703 -0.0276 -0.0987 -0.0665
  492loPI    C3 7859  15.879   0.907  11.003 -0.0144 -0.1127 -0.0825
  492loPI   PO4 7860  15.890   0.651  10.436  0.0825  0.0811 -0.3810
  492loPI   GL1 7861  15.694   0.492  10.101  0.0291 -0.0775  0.0411
  492loPI   GL2 7862  15.868   0.754   9.953 -0.0957 -0.1836  0.2632
  492loPI   C1A 7863  15.674   0.257   9.676  0.1353 -0.3541  0.0770
  492loPI   C2A 7864  15.710   0.297   9.237  0.0834  0.4004  0.0974
  492loPI   C3A 7865  15.724   0.280   8.775 -0.0189  0.0679 -0.0137
  492loPI   C4A 7866  15.712   0.246   8.351  0.2221  0.0014 -0.4358
  492loPI   C5A 7867  15.923   0.503   8.050 -0.0280 -0.1209 -0.0651
  492loPI   C6A 7868  15.640   0.912   8.010  0.2969  0.1220  0.0468
  492loPI   C1B 7869  15.884   0.721   9.544 -0.2814 -0.0379 -0.0206
  492loPI   C2B 7870  16.033   0.729   9.022 -0.0916  0.0167 -0.2624
  492loPI   C3B 7871  16.065   0.725   8.567 -0.2814  0.0884  0.2240
  492loPI   C4B 7872  16.326   0.787   8.184 -0.3553  0.2973 -0.2281
  493loPI    C1 7873  12.966   5.677  10.886  0.0403 -0.0001 -0.2990
  493loPI    C2 7874  12.923   6.033  11.063  0.0983 -0.1910  0.1106
  493loPI    C3 7875  12.606   5.795  11.014  0.0559 -0.0792 -0.1813
  493loPI   PO4 7876  13.071   5.787  10.643  0.0556 -0.1965  0.2120
  493loPI   GL1 7877  13.238   5.539  10.321  0.0625  0.1657 -0.3505
  493loPI   GL2 7878  13.214   5.141  10.294  0.1386 -0.2365 -0.2596
  493loPI   C1A 7879  13.333   5.723   9.913 -0.0046  0.0264 -0.2423
  493loPI   C2A 7880  13.311   5.827   9.482 -0.0635 -0.1604  0.0839
  493loPI   C3A 7881  13.447   5.813   9.039 -0.1955 -0.0941  0.1392
  493loPI   C4A 7882  13.372   5.800   8.601 -0.2276 -0.4274  0.1683
  493loPI   C5A 7883  13.184   5.816   8.204  0.0523  0.0089  0.1670
  493loPI   C6A 7884  12.835   5.751   8.003  0.2322  0.2888  0.0718
  493loPI   C1B 7885  13.114   5.254   9.923 -0.1337  0.3017 -0.3104
  493loPI   C2B 7886  13.114   5.363   9.408  0.2016  0.2147 -0.0598
  493loPI   C3B 7887  13.124   5.388   9.040 -0.2602 -0.2371 -0.1023
  493loPI   C4B 7888  13.193   5.309   8.596 -0.3242  0.0707  0.4767
  494loPI    C1 7889  17.821  15.203  10.762  0.0442  0.2203 -0.1040
  494loPI    C2 7890  17.682  15.127  10.394  0.0402 -0.1423 -0.0321
  494loPI    C3 7891  17.530  14.933  10.709  0.1911  0.0106  0.1374
  494loPI   PO4 7892  17.865  15.496  10.701 -0.1131 -0.1100  0.0346
  494loPI   GL1 7893  17.841  15.651  10.155 -0.0208  0.0964  0.0674
  494loPI   GL2 7894  18.172  15.587  10.238  0.0983 -0.0717 -0.0021
  494loPI   C1A 7895  17.868  15.807   9.783 -0.2333  0.0185  0.0218
  494loPI   C2A 7896  17.758  15.937   9.403 -0.1386 -0.0220  0.2780
  494loPI   C3A 7897  17.793  15.728   9.089 -0.1072  0.0484  0.0018
  494loPI   C4A 7898  17.935  15.615   8.684 -0.1250  0.0441 -0.1690
  494loPI   C5A 7899  17.969  15.600   8.213 -0.4991  0.1269 -0.1788
  494loPI   C6A 7900  18.332  15.775   8.303  0.0719  0.0987 -0.1301
  494loPI   C1B 7901  18.067  15.331   9.824  0.1305  0.2871  0.1772
  494loPI   C2B 7902  18.024  15.258   9.418 -0.0107 -0.0351  0.1088
  494loPI   C3B 7903  18.142  15.325   9.124 -0.0314 -0.1089 -0.2009
  494loPI   C4B 7904  18.210  15.259   8.703  0.2545  0.1208  0.0123
  495loPI    C1 7905   6.927  15.429  10.243 -0.0506 -0.0325  0.2065
  495loPI    C2 7906   6.816  15.108  10.031  0.0699 -0.0261  0.1328
  495loPI    C3 7907   6.759  15.116  10.427 -0.2300 -0.0054  0.0914
  495loPI   PO4 7908   6.809  15.691   9.999 -0.2289  0.0874  0.2691
  495loPI   GL1 7909   6.619  15.946   9.623  0.1705 -0.3401 -0.3741
  495loPI   GL2 7910   6.514  15.662   9.612 -0.0531  0.1342  0.0949
  495loPI   C1A 7911   6.807  16.080   9.301  0.1059  0.1509  0.2251
  495loPI   C2A 7912   6.757  15.883   8.870 -0.1109 -0.1803  0.1593
  495loPI   C3A 7913   6.621  15.799   8.435  0.1393  0.1903  0.1016
  495loPI   C4A 7914   6.437  15.807   8.035  0.3342  0.0612 -0.0168
  495loPI   C5A 7915   6.379  15.797   7.626  0.0491 -0.0231  0.0774
  495loPI   C6A 7916   6.427  15.594   7.277  0.1291 -0.0220  0.4403
  495loPI   C1B 7917   6.293  15.790   9.247  0.1902 -0.0657 -0.4115
  495loPI   C2B 7918   6.257  15.795   8.817 -0.1667 -0.0024 -0.1841
  495loPI   C3B 7919   6.162  15.615   8.392  0.3082 -0.0411  0.0117
  495loPI   C4B 7920   6.000  15.672   7.943 -0.0665  0.2354 -0.1284
  496loPI    C1 7921   6.621  12.233  10.369  0.1612 -0.3943  0.1264
  496loPI    C2 7922   6.981  12.384  10.456  0.1118 -0.1266 -0.1201
  496loPI    C3 7923   6.659  12.499  10.666  0.0987 -0.0060 -0.2051
  496loPI   PO4 7924   6.585  12.243  10.090 -0.0515  0.2381 -0.3607
  496loPI   GL1 7925   6.595  12.430   9.705 -0.0753 -0.0930 -0.0020
  496loPI   GL2 7926   6.852  12.443   9.463  0.0968  0.1698  0.2226
  496loPI   C1A 7927   6.368  12.460   9.340 -0.0590  0.0326  0.1783
  496loPI   C2A 7928   6.455  12.400   8.914  0.0488 -0.3758 -0.0081
  496loPI   C3A 7929   6.312  12.454   8.502 -0.2334 -0.0114  0.1362
  496loPI   C4A 7930   6.252  12.291   8.215  0.1468 -0.1412  0.2715
  496loPI   C5A 7931   6.012  12.420   7.806  0.2814  0.0195 -0.2764
  496loPI   C6A 7932   5.821  12.414   7.325  0.0375  0.2523  0.1620
  496loPI   C1B 7933   6.894  12.514   9.065  0.0566 -0.3990 -0.0004
  496loPI   C2B 7934   6.801  12.510   8.557  0.2231  0.1522 -0.3186
  496loPI   C3B 7935   6.631  12.684   8.159 -0.4621 -0.0024 -0.0898
  496loPI   C4B 7936   6.681  12.926   7.715 -0.0393  0.1385  0.0715
  497loPI    C1 7937   7.256   1.345   9.846  0.1508  0.0245  0.0573
  497loPI    C2 7938   7.393   1.720   9.827  0.0318  0.0636 -0.0411
  497loPI    C3 7939   7.161   1.607  10.133  0.1492  0.0423  0.0407
  497loPI   PO4 7940   7.492   1.189   9.704  0.0247  0.1305  0.1100
  497loPI   GL1 7941   7.589   1.210   9.214  0.0211 -0.2024 -0.2683
  497loPI   GL2 7942   7.908   1.145   9.373  0.0032  0.2694  0.1389
  497loPI   C1A 7943   7.520   1.545   8.922  0.0676  0.2108 -0.1719
  497loPI   C2A 7944   7.532   1.712   8.534 -0.2026  0.0173 -0.0942
  497loPI   C3A 7945   7.590   1.829   8.236 -0.0226 -0.1116 -0.0965
  497loPI   C4A 7946   7.727   2.143   8.003  0.2259 -0.1059  0.0231
  497loPI   C5A 7947   7.744   2.588   7.732 -0.2778 -0.1122 -0.1239
  497loPI   C6A 7948   7.820   2.901   7.445  0.1541  0.1337  0.0268
  497loPI   C1B 7949   8.022   1.007   8.969  0.1823 -0.0671  0.2541
  497loPI   C2B 7950   7.726   1.130   8.719 -0.1480 -0.3033 -0.0996
  497loPI   C3B 7951   7.603   1.266   8.262  0.1711  0.1935 -0.3220
  497loPI   C4B 7952   7.477   1.518   7.847 -0.0139 -0.0817  0.1069
  498loPI    C1 7953  16.641   5.966  11.377  0.1084 -0.0339 -0.0548
  498loPI    C2 7954  16.886   6.252  11.513  0.0865 -0.1033  0.1346
  498loPI    C3 7955  16.558   6.155  11.721 -0.0971 -0.0200 -0.1106
  498loPI   PO4 7956  16.570   5.975  10.977 -0.0119 -0.1088 -0.0994
  498loPI   GL1 7957  16.471   6.340  10.754  0.2682  0.2182  0.0189
  498loPI   GL2 7958  16.541   6.648  10.673 -0.4001  0.1018  0.1467
  498loPI   C1A 7959  16.369   6.095  10.340 -0.2962 -0.1290 -0.0337
  498loPI   C2A 7960  16.246   6.038   9.942 -0.2743  0.1512 -0.1525
  498loPI   C3A 7961  16.254   6.150   9.499 -0.1001  0.0981  0.0262
  498loPI   C4A 7962  16.320   6.135   9.054 -0.1574  0.0956 -0.0827
  498loPI   C5A 7963  16.235   6.013   8.698  0.0477 -0.5402 -0.1078
  498loPI   C6A 7964  15.941   6.148   8.343  0.1403  0.2705  0.1239
  498loPI   C1B 7965  16.501   6.598  10.275  0.2347 -0.2408 -0.2028
  498loPI   C2B 7966  16.449   6.503   9.803 -0.2358  0.0890 -0.1489
  498loPI   C3B 7967  16.542   6.507   9.426  0.0619  0.1288  0.2146
  498loPI   C4B 7968  16.601   6.561   8.977  0.0838 -0.1720 -0.1459
  499loPI    C1 7969   4.836  10.823  10.544 -0.2800  0.0206  0.1154
  499loPI    C2 7970   4.765  10.442  10.641 -0.0381 -0.0656 -0.0352
  499loPI    C3 7971   5.042  10.651  10.840 -0.1059  0.0042 -0.0135
  499loPI   PO4 7972   4.728  10.914  10.292  0.1027 -0.3884 -0.0334
  499loPI   GL1 7973   4.759  10.784   9.861  0.1734  0.0954 -0.0343
  499loPI   GL2 7974   4.936  10.462   9.621  0.0350 -0.1322 -0.0579
  499loPI   C1A 7975   4.645  11.004   9.421 -0.1163 -0.1118  0.1645
  499loPI   C2A 7976   4.634  10.879   9.006 -0.0609  0.2316 -0.2281
  499loPI   C3A 7977   4.518  10.872   8.618  0.1189 -0.2253  0.2861
  499loPI   C4A 7978   4.503  10.904   8.184  0.0829 -0.2302 -0.1705
  499loPI   C5A 7979   4.262  10.878   7.822 -0.2295 -0.3043  0.3165
  499loPI   C6A 7980   3.987  10.770   7.602 -0.2232 -0.3068  0.2004
  499loPI   C1B 7981   4.928  10.544   9.140 -0.0827  0.0784  0.2019
  499loPI   C2B 7982   4.840  10.500   8.691 -0.3382 -0.2266 -0.2063
  499loPI   C3B 7983   4.617  10.464   8.375 -0.1416 -0.0133 -0.1061
  499loPI   C4B 7984   4.690  10.192   8.069  0.1175  0.2053  0.1307
  500loPI    C1 7985  12.775   4.101  10.988  0.0893  0.2280 -0.0849
  500loPI    C2 7986  12.529   3.970  11.275 -0.1022  0.2269 -0.2472
  500loPI    C3 7987  12.557   4.362  11.199  0.1094  0.2448 -0.0849
  500loPI   PO4 7988  12.750   3.972  10.801 -0.2013  0.2755 -0.0130
  500loPI   GL1 7989  12.657   4.033  10.407  0.1530  0.2474 -0.0046
  500loPI   GL2 7990  12.901   3.941  10.268  0.0893 -0.2156  0.0953
  500loPI   C1A 7991  12.467   4.314  10.129  0.0618 -0.3203 -0.0406
  500loPI   C2A 7992  12.392   4.424   9.732 -0.0915  0.2633 -0.2045
  500loPI   C3A 7993  12.639   4.450   9.285  0.1052  0.1658 -0.0620
  500loPI   C4A 7994  12.568   4.385   8.818  0.0892 -0.2446  0.0316
  500loPI   C5A 7995  12.678   4.519   8.388 -0.2348 -0.0727 -0.0422
  500loPI   C6A 7996  12.776   4.558   7.928 -0.0434 -0.1337 -0.1256
  500loPI   C1B 7997  12.899   4.278   9.985  0.0694 -0.1295 -0.0350
  500loPI   C2B 7998  13.012   4.312   9.602 -0.1668  0.0978 -0.1946
  500loPI   C3B 7999  13.100   4.339   9.191  0.4188  0.0881 -0.0823
  500loPI   C4B 8000  13.016   4.461   8.754 -0.1821 -0.0181 -0.2026
  501loPI    C1 8001  17.077   1.990  10.832  0.2602 -0.2857 -0.1465
  501loPI    C2 8002  17.367   2.027  11.106  0.1976 -0.0932 -0.1051
  501loPI    C3 8003  17.263   1.665  10.972  0.1352 -0.2012  0.2278
  501loPI   PO4 8004  17.173   2.080  10.615 -0.0391  0.2870 -0.1611
  501loPI   GL1 8005  17.485   2.180  10.302  0.3546 -0.0165  0.1761
  501loPI   GL2 8006  17.461   2.456  10.156  0.1261 -0.2208  0.1496
  501loPI   C1A 8007  17.424   2.003   9.797  0.1864 -0.0302  0.1215
  501loPI   C2A 8008  17.308   1.981   9.323  0.1735  0.0760  0.2200
  501loPI   C3A 8009  17.386   2.004   8.945 -0.0364 -0.1594  0.2322
  501loPI   C4A 8010  17.280   2.001   8.595 -0.3580  0.0828 -0.2700
  501loPI   C5A 8011  17.138   2.195   8.167  0.0151 -0.0623 -0.0323
  501loPI   C6A 8012  16.822   2.163   7.905  0.2414 -0.1948  0.5112
  501loPI   C1B 8013  17.641   2.424   9.825 -0.1414  0.2559  0.2454
  501loPI   C2B 8014  17.635   2.418   9.458 -0.0708 -0.2626  0.1769
  501loPI   C3B 8015  17.685   2.469   8.960  0.0641 -0.0121  0.0821
  501loPI   C4B 8016  17.630   2.496   8.527 -0.1710  0.3999  0.0270
  502loPI    C1 8017   1.487   0.531  10.590  0.3463 -0.0746 -0.1364
  502loPI    C2 8018   1.647   0.771  10.867 -0.0081 -0.0294  0.0340
  502loPI    C3 8019   1.447   0.442  10.978 -0.0587 -0.0697 -0.1727
  502loPI   PO4 8020   1.614   0.668  10.278 -0.2184  0.1014  0.3262
  502loPI   GL1 8021   1.565   0.650   9.860  0.1809 -0.0042 -0.1150
  502loPI   GL2 8022   1.757   0.422   9.507 -0.1856  0.0069  0.0577
  502loPI   C1A 8023   1.353   0.751   9.562  0.0212  0.5032 -0.1477
  502loPI   C2A 8024   1.204   0.542   9.294 -0.1199 -0.4927  0.1041
  502loPI   C3A 8025   1.166   0.561   8.829  0.0127  0.0915 -0.1100
  502loPI   C4A 8026   1.149   0.505   8.352  0.0162 -0.1228  0.4254
  502loPI   C5A 8027   0.891   0.480   8.002  0.1735  0.1826  0.1994
  502loPI   C6A 8028   0.476   0.301   7.886 -0.2809  0.2527 -0.0244
  502loPI   C1B 8029   1.715   0.551   9.103  0.0533  0.4894  0.0817
  502loPI   C2B 8030   1.677   0.634   8.662  0.2006 -0.1772 -0.2787
  502loPI   C3B 8031   1.667   0.494   8.292 -0.1674  0.3552 -0.2701
  502loPI   C4B 8032   1.793   0.519   7.842 -0.0856 -0.1932  0.1995
  503loPI    C1 8033   2.767  15.267  10.419  0.3422  0.1870 -0.0446
  503loPI    C2 8034   2.991  15.556  10.581  0.1904  0.1704  0.1996
  503loPI    C3 8035   2.704  15.380  10.798  0.2417 -0.1227  0.0340
  503loPI   PO4 8036   2.857  15.146  10.282 -0.0785  0.3077  0.1900
  503loPI   GL1 8037   2.915  15.032   9.860 -0.1992  0.0879 -0.0718
  503loPI   GL2 8038   2.670  14.897   9.829 -0.5836 -0.5745  0.0645
  503loPI   C1A 8039   3.251  15.195   9.741 -0.1955  0.0110 -0.4695
  503loPI   C2A 8040   3.297  15.232   9.322 -0.0018 -0.0926 -0.1771
  503loPI   C3A 8041   3.280  15.157   8.975  0.1147  0.0507  0.0196
  503loPI   C4A 8042   3.349  15.069   8.552 -0.0479 -0.1878 -0.4425
  503loPI   C5A 8043   3.338  15.310   8.187  0.1743 -0.0009  0.3664
  503loPI   C6A 8044   3.331  15.276   7.639 -0.1556 -0.1938 -0.2327
  503loPI   C1B 8045   2.454  14.855   9.432 -0.0724 -0.0230  0.5176
  503loPI   C2B 8046   2.445  14.855   8.989 -0.0709 -0.0089 -0.1346
  503loPI   C3B 8047   2.450  14.695   8.545  0.1165 -0.1788 -0.1853
  503loPI   C4B 8048   2.433  14.533   8.170 -0.0095 -0.1446  0.0758
  504loPI    C1 8049  10.963   5.548  10.654 -0.1898  0.0331  0.2578
  504loPI    C2 8050  11.206   5.801  10.846 -0.0876  0.0883  0.0585
  504loPI    C3 8051  10.966   5.558  11.053 -0.0055  0.1726  0.2544
  504loPI   PO4 8052  10.919   5.671  10.474 -0.0437 -0.0305  0.0851
  504loPI   GL1 8053  10.954   5.580  10.035 -0.1280 -0.3196 -0.0672
  504loPI   GL2 8054  11.138   5.801  10.032 -0.0819  0.0973  0.1935
  504loPI   C1A 8055  10.673   5.780   9.696  0.0702  0.1010 -0.2771
  504loPI   C2A 8056  10.612   5.818   9.227 -0.0167 -0.2743  0.0280
  504loPI   C3A 8057  10.690   5.802   8.821 -0.0270 -0.0497 -0.0656
  504loPI   C4A 8058  10.858   5.904   8.403  0.0422  0.0908  0.1798
  504loPI   C5A 8059  10.761   5.807   7.916 -0.5938  0.1753 -0.1842
  504loPI   C6A 8060  10.632   5.468   7.653  0.0934  0.0428 -0.0910
  504loPI   C1B 8061  11.286   5.703   9.639  0.0337 -0.3071 -0.0638
  504loPI   C2B 8062  11.297   5.755   9.201  0.2386 -0.1594  0.0173
  504loPI   C3B 8063  11.187   5.826   8.770 -0.0279  0.1187 -0.2098
  504loPI   C4B 8064  11.464   5.903   8.383 -0.2649 -0.0752 -0.2701
  505loPI    C1 8065   3.502  13.535  10.251 -0.0920 -0.1033  0.3300
  505loPI    C2 8066   3.305  13.763  10.514 -0.3035  0.1637 -0.0509
  505loPI    C3 8067   3.131  13.658  10.169  0.0197 -0.0649 -0.1494
  505loPI   PO4 8068   3.716  13.583  10.199 -0.4517 -0.0184  0.0286
  505loPI   GL1 8069   3.830  13.819   9.895 -0.0082 -0.1675  0.2765
  505loPI   GL2 8070   3.763  14.202   9.976 -0.1481 -0.2752 -0.0401
  505loPI   C1A 8071   4.055  13.808   9.566  0.4485  0.3231 -0.0303
  505loPI   C2A 8072   4.011  13.813   9.172  0.1861  0.1145  0.1822
  505loPI   C3A 8073   3.992  13.695   8.747 -0.1409  0.0470 -0.1639
  505loPI   C4A 8074   4.037  13.649   8.343 -0.1169 -0.0615  0.1518
  505loPI   C5A 8075   4.072  13.492   7.958  0.1140  0.2807  0.0620
  505loPI   C6A 8076   4.178  13.301   7.509  0.0004  0.3204  0.1186
  505loPI   C1B 8077   3.751  14.270   9.639  0.3303 -0.1773  0.0703
  505loPI   C2B 8078   3.728  14.272   9.159 -0.6336 -0.0862 -0.1018
  505loPI   C3B 8079   3.779  14.159   8.724 -0.2703  0.0729  0.1178
  505loPI   C4B 8080   3.675  14.138   8.321 -0.1320  0.1438 -0.0638
  506loPI    C1 8081  15.466  17.066  10.674  0.0016 -0.0687 -0.0971
  506loPI    C2 8082  15.478  17.427  10.847  0.0711  0.0232 -0.2914
  506loPI    C3 8083  15.697  17.127  10.995  0.0237  0.0640 -0.1374
  506loPI   PO4 8084  15.495  17.168  10.425 -0.1871  0.0910  0.1685
  506loPI   GL1 8085  15.688  16.944   9.980  0.2493 -0.0119  0.2397
  506loPI   GL2 8086  16.038  17.202  10.022  0.1409 -0.1122  0.1488
  506loPI   C1A 8087  15.641  16.710   9.628  0.4774 -0.3285  0.2153
  506loPI   C2A 8088  15.674  16.763   9.209 -0.0430 -0.0639  0.2790
  506loPI   C3A 8089  15.661  16.759   8.799 -0.1232 -0.2603 -0.1264
  506loPI   C4A 8090  15.702  16.774   8.453 -0.1367 -0.3928  0.2236
  506loPI   C5A 8091  15.689  16.749   8.090  0.1396 -0.1960 -0.1499
  506loPI   C6A 8092  15.293  16.523   8.021 -0.1626  0.3363  0.0249
  506loPI   C1B 8093  15.914  17.131   9.548  0.0939 -0.1137 -0.3046
  506loPI   C2B 8094  15.896  17.204   9.123 -0.1479  0.1570  0.1239
  506loPI   C3B 8095  15.981  17.177   8.712  0.1435  0.0627 -0.1462
  506loPI   C4B 8096  15.966  17.172   8.254  0.0395 -0.0381  0.0523
  507loPI    C1 8097   6.802   2.729  10.057  0.2036 -0.0491 -0.0017
  507loPI    C2 8098   6.619   2.487   9.796  0.0359  0.0220  0.0485
  507loPI    C3 8099   6.492   2.505  10.175 -0.1586  0.4211 -0.0302
  507loPI   PO4 8100   6.963   2.926   9.807  0.0023  0.0216 -0.1604
  507loPI   GL1 8101   6.992   2.895   9.470  0.3223 -0.0417 -0.1157
  507loPI   GL2 8102   6.810   3.227   9.403  0.1199 -0.2264 -0.0608
  507loPI   C1A 8103   7.143   2.783   9.112  0.0600  0.1660  0.1868
  507loPI   C2A 8104   7.130   2.771   8.730  0.3352  0.0375  0.1033
  507loPI   C3A 8105   7.376   2.778   8.322 -0.0016  0.2585 -0.1243
  507loPI   C4A 8106   7.629   2.906   8.087  0.3665  0.2014  0.0771
  507loPI   C5A 8107   8.033   3.039   8.136 -0.1630 -0.0436  0.0895
  507loPI   C6A 8108   8.325   3.323   7.949  0.1714  0.3912  0.3237
  507loPI   C1B 8109   6.573   3.738   9.233 -0.0724 -0.3235  0.0809
  507loPI   C2B 8110   6.266   3.983   8.867  0.3846  0.2728  0.1972
  507loPI   C3B 8111   5.963   4.268   8.831 -0.1775  0.1473  0.2895
  507loPI   C4B 8112   5.736   4.367   8.500 -0.0858 -0.1884 -0.2919
  508loPI    C1 8113  17.668  14.366  10.807 -0.2507 -0.1446  0.0852
  508loPI    C2 8114  17.407  14.580  11.021  0.0381  0.1625  0.1389
  508loPI    C3 8115  17.644  14.314  11.203 -0.2216 -0.1065  0.0920
  508loPI   PO4 8116  17.449  14.236  10.505  0.1162  0.0915  0.0886
  508loPI   GL1 8117  17.221  14.213  10.228 -0.0969  0.1597 -0.3677
  508loPI   GL2 8118  16.791  14.127  10.177 -0.2073 -0.0949  0.1419
  508loPI   C1A 8119  17.236  14.050   9.907 -0.0303 -0.2381 -0.1379
  508loPI   C2A 8120  17.088  13.938   9.522 -0.2322  0.3174  0.0224
  508loPI   C3A 8121  17.183  13.859   9.080 -0.1473  0.1803  0.0584
  508loPI   C4A 8122  17.257  13.892   8.755 -0.1791  0.0624  0.1791
  508loPI   C5A 8123  17.365  13.971   8.357  0.0872 -0.4805  0.0804
  508loPI   C6A 8124  17.540  13.776   7.913  0.0171  0.2728 -0.1811
  508loPI   C1B 8125  16.672  14.025   9.808  0.1627  0.3097  0.1321
  508loPI   C2B 8126  16.643  13.930   9.373 -0.0127 -0.2565 -0.3007
  508loPI   C3B 8127  16.713  13.971   8.934 -0.0807  0.1592  0.1591
  508loPI   C4B 8128  16.778  13.942   8.513 -0.0247  0.0530 -0.5718
  509loPI    C1 8129  16.730   6.826  11.112  0.0567  0.0081 -0.0697
  509loPI    C2 8130  16.393   6.910  11.311 -0.0360  0.1471 -0.2816
  509loPI    C3 8131  16.716   6.780  11.509 -0.1714  0.1432 -0.0606
  509loPI   PO4 8132  16.786   7.007  10.913 -0.2638  0.1649 -0.2589
  509loPI   GL1 8133  16.955   7.086  10.509 -0.0084  0.2257 -0.1900
  509loPI   GL2 8134  16.576   7.167  10.404  0.1439  0.1080  0.4794
  509loPI   C1A 8135  17.248   7.101  10.078 -0.1114  0.3081  0.0218
  509loPI   C2A 8136  17.393   7.063   9.707 -0.2427  0.1448  0.1355
  509loPI   C3A 8137  17.251   6.940   9.286 -0.0064  0.4719  0.1473
  509loPI   C4A 8138  17.336   6.965   8.978 -0.2218 -0.1170  0.0874
  509loPI   C5A 8139  17.190   6.932   8.644 -0.2007 -0.0738  0.0509
  509loPI   C6A 8140  16.873   6.959   8.549 -0.0823 -0.0859 -0.0891
  509loPI   C1B 8141  16.715   7.052  10.076 -0.1172 -0.6726  0.1418
  509loPI   C2B 8142  16.869   7.167   9.695  0.1311  0.2527  0.0549
  509loPI   C3B 8143  16.787   6.897   9.324 -0.2338 -0.0763 -0.1237
  509loPI   C4B 8144  16.843   6.996   9.054  0.0207 -0.0130 -0.0035
  510loPI    C1 8145  18.373  12.192  10.996  0.1270  0.0013 -0.0609
  510loPI    C2 8146  18.274  12.279  11.374  0.0054  0.2082 -0.1392
  510loPI    C3 8147  18.645  12.351  11.243  0.1133 -0.0758  0.0039
  510loPI   PO4 8148  18.225  12.306  10.742 -0.0850 -0.0585 -0.2217
  510loPI   GL1 8149  18.322  12.254  10.278  0.3171  0.4380  0.0484
  510loPI   GL2 8150  18.584  12.215  10.287  0.2924  0.5289  0.1577
  510loPI   C1A 8151  18.217  12.184   9.805 -0.1812  0.0595 -0.0185
  510loPI   C2A 8152  18.161  12.038   9.436 -0.5547  0.4802 -0.1592
  510loPI   C3A 8153  18.221  12.062   9.045 -0.3178 -0.1590 -0.2406
  510loPI   C4A 8154  18.324  12.060   8.479  0.2533  0.3143 -0.0431
  510loPI   C5A 8155  18.481  11.924   8.140  0.0918 -0.2210 -0.0455
  510loPI   C6A 8156  18.835  11.545   8.198 -0.0066 -0.2575  0.1265
  510loPI   C1B 8157  18.721  12.001   9.869  0.0414 -0.1410 -0.2589
  510loPI   C2B 8158  18.787  12.011   9.438  0.3085 -0.1955 -0.0524
  510loPI   C3B 8159  18.717  11.986   8.921  0.1355  0.1549  0.0500
  510loPI   C4B 8160  18.845  12.052   8.480  0.1387 -0.1793  0.5280
  511loPI    C1 8161  16.215   5.716  11.321 -0.0595  0.1241 -0.1951
  511loPI    C2 8162  15.934   5.514  11.520  0.0749  0.0718 -0.0563
  511loPI    C3 8163  16.195   5.742  11.719  0.2079  0.0228 -0.1724
  511loPI   PO4 8164  16.179   5.635  11.067 -0.2457  0.0385  0.0510
  511loPI   GL1 8165  16.347   5.655  10.649  0.2858  0.2399 -0.1924
  511loPI   GL2 8166  16.026   5.645  10.436 -0.2278  0.0534 -0.3426
  511loPI   C1A 8167  16.508   5.628  10.226 -0.0268 -0.3159 -0.1830
  511loPI   C2A 8168  16.492   5.570   9.866 -0.0885  0.3941  0.0395
  511loPI   C3A 8169  16.476   5.691   9.412  0.2534  0.1540 -0.1633
  511loPI   C4A 8170  16.572   5.688   8.936 -0.0319 -0.1361  0.0331
  511loPI   C5A 8171  16.555   5.737   8.556  0.0955 -0.0373 -0.2795
  511loPI   C6A 8172  16.264   5.772   8.284 -0.1252  0.2657  0.0045
  511loPI   C1B 8173  15.957   5.645  10.056 -0.3229  0.1469 -0.1074
  511loPI   C2B 8174  15.958   5.705   9.604  0.3517  0.0834 -0.3356
  511loPI   C3B 8175  15.989   5.689   9.202 -0.0632 -0.0650 -0.1748
  511loPI   C4B 8176  15.938   5.626   8.787  0.0993 -0.2919  0.0989
  512loPI    C1 8177   1.281  14.800  10.653 -0.3893 -0.2344  0.4154
  512loPI    C2 8178   1.656  14.661  10.671 -0.2676  0.0011 -0.1064
  512loPI    C3 8179   1.587  15.038  10.557 -0.6633 -0.0137  0.0655
  512loPI   PO4 8180   1.020  14.699  10.453  0.1601  0.1097 -0.2530
  512loPI   GL1 8181   0.725  14.682  10.169 -0.1279  0.1795  0.0537
  512loPI   GL2 8182   0.524  14.745  10.291 -0.1525 -0.2215 -0.3373
  512loPI   C1A 8183   0.564  14.446   9.796 -0.1063 -0.2335  0.1979
  512loPI   C2A 8184   0.568  14.395   9.382 -0.0990 -0.3550  0.1544
  512loPI   C3A 8185   0.683  14.354   8.918  0.1307 -0.0648 -0.0264
  512loPI   C4A 8186   0.555  14.243   8.494 -0.1277 -0.1816 -0.1061
  512loPI   C5A 8187   0.408  14.397   8.096  0.1430  0.0185 -0.0463
  512loPI   C6A 8188   0.267  14.677   7.690  0.0415 -0.2593 -0.0313
  512loPI   C1B 8189   0.353  14.906   9.901  0.0354 -0.4853 -0.4523
  512loPI   C2B 8190   0.385  14.834   9.486 -0.1447 -0.0437 -0.2039
  512loPI   C3B 8191   0.366  14.786   9.039  0.0082 -0.3251  0.4379
  512loPI   C4B 8192   0.404  14.704   8.549 -0.0549  0.0151 -0.1008
  513loPI    C1 8193   8.480  16.103  10.307  0.0134  0.1157  0.0028
  513loPI    C2 8194   8.597  15.805  10.548  0.0395  0.0167 -0.1317
  513loPI    C3 8195   8.229  15.958  10.583  0.0620  0.0399  0.0074
  513loPI   PO4 8196   8.689  16.042  10.120 -0.0204  0.1016 -0.0285
  513loPI   GL1 8197   8.844  15.957   9.689 -0.1169  0.1369 -0.2631
  513loPI   GL2 8198   9.138  16.080   9.588  0.2661 -0.0408 -0.1569
  513loPI   C1A 8199   8.679  16.236   9.269  0.0312 -0.1893 -0.0077
  513loPI   C2A 8200   8.619  16.147   8.904 -0.0141  0.0898 -0.1760
  513loPI   C3A 8201   8.581  16.045   8.453  0.5836 -0.0155 -0.1886
  513loPI   C4A 8202   8.651  15.963   7.988  0.0703  0.2549  0.4093
  513loPI   C5A 8203   8.867  15.626   7.927  0.0343 -0.0412 -0.1676
  513loPI   C6A 8204   9.171  15.282   7.936 -0.0304  0.0915  0.3523
  513loPI   C1B 8205   9.223  16.104   9.096  0.2560  0.2907 -0.3728
  513loPI   C2B 8206   9.044  16.148   8.672  0.1218  0.1389  0.2783
  513loPI   C3B 8207   9.039  16.107   8.292 -0.0864  0.0314 -0.0285
  513loPI   C4B 8208   9.012  16.232   7.857  0.1011 -0.2983  0.4506
  514loPI    C1 8209  16.597   3.460  11.179  0.0510 -0.1965  0.0771
  514loPI    C2 8210  16.378   3.149  11.055 -0.0974 -0.1422  0.2005
  514loPI    C3 8211  16.274   3.349  11.386 -0.1382  0.1842 -0.0049
  514loPI   PO4 8212  16.643   3.520  10.859  0.1078  0.1328 -0.4110
  514loPI   GL1 8213  16.961   3.466  10.593  0.0489 -0.0046 -0.4669
  514loPI   GL2 8214  16.943   3.803  10.551 -0.0850  0.0059  0.3741
  514loPI   C1A 8215  16.664   3.294  10.278  0.1816  0.0689 -0.1767
  514loPI   C2A 8216  16.531   3.345   9.934 -0.0093  0.0309  0.1635
  514loPI   C3A 8217  16.578   3.289   9.603 -0.3347  0.1584  0.3010
  514loPI   C4A 8218  16.647   3.438   9.088  0.1010 -0.0659 -0.0955
  514loPI   C5A 8219  16.764   3.435   8.689 -0.4808 -0.0989  0.0655
  514loPI   C6A 8220  16.832   3.148   8.396  0.1824 -0.1291  0.0796
  514loPI   C1B 8221  16.791   3.747  10.103  0.3013  0.1178 -0.1492
  514loPI   C2B 8222  16.844   3.704   9.613 -0.1950  0.1481 -0.0019
  514loPI   C3B 8223  16.982   3.776   9.222  0.0335 -0.3015 -0.1820
  514loPI   C4B 8224  16.974   3.842   8.875  0.1213 -0.0162 -0.2767
  515loPI    C1 8225  15.473  11.310  10.766  0.1663 -0.1029 -0.2703
  515loPI    C2 8226  15.576  11.685  10.859 -0.0821 -0.0942 -0.0136
  515loPI    C3 8227  15.705  11.380  11.084 -0.1270 -0.1356 -0.0438
  515loPI   PO4 8228  15.548  11.241  10.547  0.0777 -0.0778 -0.0299
  515loPI   GL1 8229  15.634  11.356  10.091  0.0006  0.1722  0.1060
  515loPI   GL2 8230  15.544  11.124  10.083  0.1355 -0.0918 -0.1842
  515loPI   C1A 8231  15.623  11.284   9.649  0.3404 -0.0318 -0.0317
  515loPI   C2A 8232  15.608  11.164   9.249  0.0745 -0.0363  0.2065
  515loPI   C3A 8233  15.644  11.224   8.746  0.0694  0.0159  0.0676
  515loPI   C4A 8234  15.692  11.217   8.266 -0.2194  0.0114  0.0239
  515loPI   C5A 8235  16.008  11.454   8.045  0.0292  0.0603 -0.1303
  515loPI   C6A 8236  16.213  11.806   7.938  0.1120  0.2465 -0.0383
  515loPI   C1B 8237  15.748  10.870   9.820  0.2232 -0.0472 -0.3916
  515loPI   C2B 8238  15.817  10.664   9.428  0.0554  0.1875 -0.1453
  515loPI   C3B 8239  15.837  10.702   8.988  0.4231 -0.1364 -0.2401
  515loPI   C4B 8240  15.955  10.633   8.542  0.0687 -0.1179  0.0977
  516loPI    C1 8241  14.024  14.200  10.325  0.0594  0.0156 -0.2761
  516loPI    C2 8242  13.791  14.435  10.549  0.0158 -0.0320 -0.2713
  516loPI    C3 8243  14.145  14.313  10.689  0.0197 -0.0043 -0.2567
  516loPI   PO4 8244  13.815  14.045  10.182 -0.1625  0.1792  0.2930
  516loPI   GL1 8245  14.013  13.944   9.849 -0.2045  0.2418 -0.3972
  516loPI   GL2 8246  14.202  14.151   9.896 -0.0961 -0.0624  0.1899
  516loPI   C1A 8247  13.916  13.870   9.440  0.0390  0.0710 -0.0258
  516loPI   C2A 8248  14.088  14.000   9.041 -0.1576 -0.3787 -0.1550
  516loPI   C3A 8249  14.060  13.926   8.606  0.1783 -0.1145 -0.2328
  516loPI   C4A 8250  14.085  14.047   8.194  0.2299 -0.4349  0.0434
  516loPI   C5A 8251  14.222  14.181   7.741 -0.2114  0.0108 -0.0989
  516loPI   C6A 8252  14.182  14.330   7.325 -0.3563 -0.1667  0.1735
  516loPI   C1B 8253  14.233  14.260   9.451  0.1377 -0.2000 -0.3809
  516loPI   C2B 8254  14.256  14.481   9.085 -0.0155 -0.1818  0.0197
  516loPI   C3B 8255  14.268  14.430   8.590  0.0072  0.1000 -0.1230
  516loPI   C4B 8256  14.234  14.496   8.170  0.2474 -0.1011  0.0321
  517loPI    C1 8257  12.260   5.495  10.943  0.0472 -0.0681 -0.0355
  517loPI    C2 8258  11.925   5.437  11.154  0.1315  0.1776  0.1713
  517loPI    C3 8259  12.140   5.770  11.208  0.0520  0.3408 -0.4453
  517loPI   PO4 8260  12.254   5.289  10.756  0.4721  0.0293  0.2670
  517loPI   GL1 8261  12.274   5.144  10.362 -0.0427  0.1438 -0.5125
  517loPI   GL2 8262  12.575   4.931  10.437 -0.0801  0.1395 -0.0993
  517loPI   C1A 8263  12.268   4.927  10.046 -0.2190 -0.0374  0.0824
  517loPI   C2A 8264  12.310   4.878   9.546 -0.1994  0.2977 -0.1173
  517loPI   C3A 8265  12.407   4.818   9.089  0.0616  0.1735  0.2044
  517loPI   C4A 8266  12.373   4.914   8.647 -0.3357  0.0997  0.0021
  517loPI   C5A 8267  12.442   4.896   8.264  0.0125  0.0290  0.2935
  517loPI   C6A 8268  12.196   4.978   7.899 -0.1683 -0.0703  0.4230
  517loPI   C1B 8269  12.768   4.971  10.087 -0.1021 -0.2306 -0.1741
  517loPI   C2B 8270  12.859   4.889   9.676  0.0087  0.0644  0.3039
  517loPI   C3B 8271  12.896   4.919   9.183  0.1556  0.2287 -0.1703
  517loPI   C4B 8272  12.899   4.951   8.671 -0.2833 -0.3748  0.0568
  518loPI    C1 8273   0.337   2.904  10.703  0.0253  0.0037  0.0341
  518loPI    C2 8274   0.515   3.016  11.044  0.3589  0.0251 -0.1428
  518loPI    C3 8275   0.283   3.274  10.845 -0.1752 -0.1136  0.2735
  518loPI   PO4 8276   0.502   2.847  10.539  0.0540  0.2707  0.0151
  518loPI   GL1 8277   0.560   2.792  10.142  0.0135 -0.1105  0.4943
  518loPI   GL2 8278   0.850   2.933  10.142 -0.3748 -0.0864  0.0913
  518loPI   C1A 8279   0.633   2.759   9.694 -0.0209  0.2055  0.2270
  518loPI   C2A 8280   0.572   2.858   9.273 -0.1724 -0.0453 -0.2092
  518loPI   C3A 8281   0.435   2.823   8.758  0.2949 -0.0435  0.0401
  518loPI   C4A 8282   0.417   2.848   8.322 -0.1125  0.0178  0.0221
  518loPI   C5A 8283   0.580   3.169   8.121  0.0663 -0.1956 -0.0588
  518loPI   C6A 8284   0.705   3.234   7.748 -0.2756 -0.2351 -0.2032
  518loPI   C1B 8285   0.885   3.164   9.723  0.0487 -0.0335 -0.0681
  518loPI   C2B 8286   0.916   3.350   9.350  0.0639 -0.0647 -0.1805
  518loPI   C3B 8287   0.828   3.251   9.021 -0.3179 -0.0889  0.0818
  518loPI   C4B 8288   0.738   3.245   8.580  0.0464  0.1308  0.0898
  519loPI    C1 8289  17.264  12.352  10.592 -0.0160  0.1609 -0.1041
  519loPI    C2 8290  17.457  12.292  10.937  0.1532  0.0363 -0.2187
  519loPI    C3 8291  17.116  12.503  10.932 -0.0979 -0.3471  0.0948
  519loPI   PO4 8292  17.336  12.099  10.440 -0.1087 -0.0971 -0.3166
  519loPI   GL1 8293  17.563  12.080  10.087  0.4461  0.2154  0.0940
  519loPI   GL2 8294  17.747  12.249  10.001 -0.0820 -0.1685  0.1637
  519loPI   C1A 8295  17.244  12.254   9.790  0.2284 -0.1852  0.2722
  519loPI   C2A 8296  17.257  12.131   9.299 -0.1708 -0.1071 -0.1141
  519loPI   C3A 8297  17.144  12.012   8.939 -0.0436  0.1438  0.4290
  519loPI   C4A 8298  17.150  12.050   8.420  0.2320 -0.0604  0.2097
  519loPI   C5A 8299  17.280  12.087   8.089  0.0953 -0.3917  0.1826
  519loPI   C6A 8300  17.660  12.238   7.852  0.3170  0.0725 -0.1313
  519loPI   C1B 8301  17.692  12.153   9.533 -0.1115  0.0106 -0.1801
  519loPI   C2B 8302  17.682  12.074   9.052 -0.2081  0.0459 -0.1689
  519loPI   C3B 8303  17.634  11.996   8.636  0.0787 -0.0978 -0.4315
  519loPI   C4B 8304  17.797  12.010   8.266  0.1366  0.0704 -0.2046
  520loPI    C1 8305   0.554   8.513  10.982  0.1944 -0.2324  0.1927
  520loPI    C2 8306   0.396   8.171  10.847 -0.0294 -0.0580  0.0044
  520loPI    C3 8307   0.213   8.376  11.138  0.0831 -0.0765  0.0890
  520loPI   PO4 8308   0.585   8.645  10.735  0.0943 -0.0404 -0.2401
  520loPI   GL1 8309   0.605   8.250  10.431  0.4307 -0.0493 -0.1179
  520loPI   GL2 8310   0.693   7.985  10.245 -0.1255  0.2390 -0.0273
  520loPI   C1A 8311   0.737   8.371   9.994 -0.0342  0.0232 -0.4448
  520loPI   C2A 8312   0.837   8.246   9.555 -0.1257  0.2896 -0.1462
  520loPI   C3A 8313   0.758   8.285   9.145 -0.4837  0.0547  0.4294
  520loPI   C4A 8314   0.735   8.299   8.708  0.2719 -0.0325 -0.0784
  520loPI   C5A 8315   0.820   8.457   8.203  0.2389 -0.0311 -0.0552
  520loPI   C6A 8316   1.026   8.558   7.862 -0.1331  0.1118 -0.0680
  520loPI   C1B 8317   0.409   7.798   9.890 -0.0331  0.2515  0.2062
  520loPI   C2B 8318   0.426   7.784   9.517 -0.0330 -0.1084 -0.2150
  520loPI   C3B 8319   0.597   7.817   9.136  0.0474 -0.2831  0.0259
  520loPI   C4B 8320   0.430   7.922   8.793 -0.1534 -0.1313 -0.0261
  521loPI    C1 8321   4.156   0.552  10.288 -0.1956  0.0016  0.0437
  521loPI    C2 8322   4.449   0.444  10.538 -0.1854  0.0697  0.0615
  521loPI    C3 8323   4.073   0.473  10.671 -0.2138 -0.0964  0.0199
  521loPI   PO4 8324   4.178   0.342  10.049 -0.0129  0.0359 -0.1495
  521loPI   GL1 8325   4.080   0.167   9.695 -0.0907  0.2911  0.1014
  521loPI   GL2 8326   4.009  -0.037   9.527 -0.2416  0.0807 -0.1001
  521loPI   C1A 8327   3.659   0.456   9.464  0.2691 -0.0542  0.0974
  521loPI   C2A 8328   3.417   0.466   9.126  0.0891 -0.4244  0.2045
  521loPI   C3A 8329   3.373   0.490   8.700  0.0112 -0.0010  0.1442
  521loPI   C4A 8330   3.459   0.471   8.273  0.1535 -0.2983  0.0219
  521loPI   C5A 8331   3.089   0.396   7.995  0.2209 -0.1105 -0.2706
  521loPI   C6A 8332   2.698   0.242   7.813 -0.0468  0.1619 -0.0741
  521loPI   C1B 8333   3.713  -0.030   9.284 -0.0694  0.0728 -0.1535
  521loPI   C2B 8334   3.755   0.198   8.972  0.2637  0.1480  0.2020
  521loPI   C3B 8335   3.878   0.449   8.565 -0.1314 -0.1130  0.1102
  521loPI   C4B 8336   3.890   0.267   8.201 -0.0935  0.3709  0.1514
  522loPI    C1 8337   2.996   3.200  10.556  0.0363 -0.1106  0.2093
  522loPI    C2 8338   2.706   3.428  10.711  0.1900  0.1598  0.1051
  522loPI    C3 8339   2.733   3.042  10.813 -0.3230  0.0799 -0.0325
  522loPI   PO4 8340   2.923   3.301  10.206 -0.0279  0.2002 -0.4244
  522loPI   GL1 8341   2.915   3.114   9.735  0.0212  0.0339  0.1280
  522loPI   GL2 8342   2.558   3.242   9.933 -0.0873  0.1161  0.1128
  522loPI   C1A 8343   2.915   3.102   9.239  0.1673  0.0592  0.2739
  522loPI   C2A 8344   2.894   3.197   8.904 -0.0234  0.1471  0.0669
  522loPI   C3A 8345   2.914   3.144   8.501 -0.0099  0.1231  0.3602
  522loPI   C4A 8346   2.923   3.169   8.091  0.1816 -0.0062  0.1322
  522loPI   C5A 8347   3.029   2.820   7.712  0.2893 -0.3136 -0.1854
  522loPI   C6A 8348   3.036   2.572   7.309  0.0714  0.2221  0.3182
  522loPI   C1B 8349   2.522   3.312   9.532  0.1750 -0.0732  0.0872
  522loPI   C2B 8350   2.449   3.280   9.058 -0.3373 -0.0188  0.3695
  522loPI   C3B 8351   2.387   3.147   8.650  0.1324  0.2922 -0.2653
  522loPI   C4B 8352   2.334   3.166   8.223  0.0346  0.2656 -0.0076
  523loPI    C1 8353  11.501   0.812  10.655 -0.1476 -0.1068  0.0228
  523loPI    C2 8354  11.328   0.491  10.492 -0.0169 -0.0866 -0.1593
  523loPI    C3 8355  11.136   0.701  10.773 -0.1577 -0.2456 -0.1350
  523loPI   PO4 8356  11.654   0.949  10.384  0.0169  0.1505 -0.0561
  523loPI   GL1 8357  11.974   1.111  10.059  0.1368 -0.0166  0.0145
  523loPI   GL2 8358  11.784   1.169   9.924 -0.1028 -0.0402 -0.2705
  523loPI   C1A 8359  12.044   0.904   9.622  0.2794  0.5322  0.1754
  523loPI   C2A 8360  11.959   0.951   9.149  0.1534 -0.2307  0.0289
  523loPI   C3A 8361  11.970   0.989   8.772 -0.0502 -0.4813 -0.1359
  523loPI   C4A 8362  12.122   1.166   8.471  0.1848  0.1531 -0.0093
  523loPI   C5A 8363  12.246   1.281   8.082  0.2882  0.0361  0.3099
  523loPI   C6A 8364  12.335   1.415   7.700  0.2261  0.2041  0.3323
  523loPI   C1B 8365  11.554   0.980   9.651  0.3126 -0.0751  0.2327
  523loPI   C2B 8366  11.368   0.925   9.276 -0.2869  0.2533  0.3087
  523loPI   C3B 8367  11.508   0.984   8.869  0.2336  0.2554  0.0065
  523loPI   C4B 8368  11.612   1.285   8.576  0.0230  0.3242  0.0331
  524loPI    C1 8369  18.131  14.822  10.692  0.2665  0.1409  0.1339
  524loPI    C2 8370  17.979  14.692  11.039 -0.0416  0.1151 -0.0081
  524loPI    C3 8371  18.231  15.002  11.035  0.0529  0.0440  0.2490
  524loPI   PO4 8372  17.995  14.658  10.498 -0.5994  0.3348 -0.0341
  524loPI   GL1 8373  17.621  14.625  10.313  0.2693 -0.1217  0.2170
  524loPI   GL2 8374  17.381  14.713  10.110 -0.0194 -0.1403 -0.1293
  524loPI   C1A 8375  17.764  14.932   9.951 -0.2330 -0.0647 -0.2567
  524loPI   C2A 8376  17.776  14.830   9.505  0.1693 -0.0316 -0.1692
  524loPI   C3A 8377  17.863  14.860   9.102 -0.0074  0.1654  0.0851
  524loPI   C4A 8378  17.925  14.810   8.676  0.1608  0.2264 -0.2883
  524loPI   C5A 8379  17.816  14.723   8.306 -0.0624 -0.1922  0.1991
  524loPI   C6A 8380  17.804  14.369   8.135 -0.1872 -0.0393 -0.2580
  524loPI   C1B 8381  17.559  14.464   9.862  0.1107  0.3339 -0.0827
  524loPI   C2B 8382  17.397  14.423   9.459 -0.3010  0.2565  0.0060
  524loPI   C3B 8383  17.427  14.328   9.007 -0.3166 -0.2247  0.0330
  524loPI   C4B 8384  17.650  14.341   8.607  0.0048 -0.0671 -0.0618
  525loPI    C1 8385  16.929  11.695  10.636  0.0581  0.1266 -0.1901
  525loPI    C2 8386  16.828  12.070  10.541  0.1385  0.2025  0.0185
  525loPI    C3 8387  16.947  11.983  10.912  0.0689 -0.0407 -0.0143
  525loPI   PO4 8388  17.022  11.622  10.512  0.3640  0.1557  0.2730
  525loPI   GL1 8389  17.073  11.857  10.099 -0.2695 -0.3351  0.2371
  525loPI   GL2 8390  16.842  11.669  10.073 -0.0808  0.1554 -0.2301
  525loPI   C1A 8391  17.329  11.659   9.794  0.2788 -0.1195  0.0067
  525loPI   C2A 8392  17.494  11.704   9.334  0.2200  0.0814  0.2536
  525loPI   C3A 8393  17.488  11.593   8.868 -0.0300  0.1606  0.3427
  525loPI   C4A 8394  17.483  11.475   8.446 -0.1300 -0.1669  0.1834
  525loPI   C5A 8395  17.654  11.483   8.066  0.1120  0.3147 -0.1879
  525loPI   C6A 8396  17.627  11.698   7.731  0.0938 -0.2587  0.3045
  525loPI   C1B 8397  16.871  11.566   9.643 -0.1934  0.1371  0.0378
  525loPI   C2B 8398  16.871  11.673   9.230 -0.1252  0.4048 -0.1487
  525loPI   C3B 8399  16.957  11.516   8.833  0.0579  0.0189  0.3372
  525loPI   C4B 8400  16.959  11.574   8.431 -0.0667 -0.1162  0.0632
  526loPI    C1 8401   3.672  12.530  10.466 -0.1341  0.0213 -0.1594
  526loPI    C2 8402   3.346  12.357  10.621  0.1427 -0.3432  0.0305
  526loPI    C3 8403   3.632  12.498  10.863 -0.0210  0.2863 -0.1245
  526loPI   PO4 8404   3.614  12.540  10.136  0.1109  0.2714 -0.0103
  526loPI   GL1 8405   3.399  12.780   9.842 -0.2661  0.4069  0.0502
  526loPI   GL2 8406   3.052  12.786   9.814  0.1701 -0.0322  0.3352
  526loPI   C1A 8407   3.525  12.779   9.347  0.2020  0.1257  0.1490
  526loPI   C2A 8408   3.478  12.752   8.884 -0.0829  0.1047 -0.0926
  526loPI   C3A 8409   3.427  12.730   8.499 -0.1618  0.1046 -0.0658
  526loPI   C4A 8410   3.545  12.777   7.997  0.1177  0.2836 -0.2158
  526loPI   C5A 8411   3.712  12.955   7.665 -0.1374 -0.1095 -0.1405
  526loPI   C6A 8412   3.684  13.090   7.182  0.0717  0.0409  0.1363
  526loPI   C1B 8413   3.037  12.790   9.336 -0.1640 -0.1425  0.2450
  526loPI   C2B 8414   2.963  12.869   8.863  0.1062  0.1526  0.2017
  526loPI   C3B 8415   2.873  12.722   8.504  0.3367 -0.1808  0.0667
  526loPI   C4B 8416   3.095  12.771   8.072  0.1078 -0.0406 -0.3566
  527loPI    C1 8417   0.990   7.701  10.762  0.0173  0.1465 -0.0551
  527loPI    C2 8418   0.865   7.909  11.081  0.0388 -0.0079  0.0555
  527loPI    C3 8419   1.173   7.656  11.115  0.2299  0.1903 -0.1582
  527loPI   PO4 8420   0.975   7.849  10.582  0.0208  0.3536 -0.0270
  527loPI   GL1 8421   1.140   7.729  10.195 -0.2520 -0.1107  0.3180
  527loPI   GL2 8422   1.448   7.822  10.154 -0.2029 -0.2649  0.1703
  527loPI   C1A 8423   0.956   7.864   9.886 -0.3432 -0.0237 -0.2195
  527loPI   C2A 8424   1.053   7.768   9.590 -0.1804  0.0219 -0.0046
  527loPI   C3A 8425   1.146   7.828   9.172  0.1009 -0.2402 -0.2997
  527loPI   C4A 8426   1.078   7.854   8.672 -0.2456  0.0160 -0.0702
  527loPI   C5A 8427   0.947   7.977   8.304 -0.1970  0.0170  0.2388
  527loPI   C6A 8428   0.515   7.999   8.300 -0.0510  0.0224  0.1558
  527loPI   C1B 8429   1.722   7.758   9.785  0.3724  0.0895  0.1182
  527loPI   C2B 8430   1.649   7.868   9.315  0.1710  0.0861 -0.2152
  527loPI   C3B 8431   1.548   7.913   8.886  0.3655  0.1636 -0.1533
  527loPI   C4B 8432   1.507   7.889   8.497  0.0975 -0.1917  0.0945
  528loPI    C1 8433  10.674   6.995  10.584 -0.1967 -0.1038 -0.0237
  528loPI    C2 8434  10.984   6.978  10.837  0.0260 -0.0654 -0.2885
  528loPI    C3 8435  10.700   7.255  10.887 -0.0344 -0.1801  0.0294
  528loPI   PO4 8436  10.772   7.085  10.349  0.2101 -0.0231 -0.0426
  528loPI   GL1 8437  11.022   7.243  10.026  0.0792  0.1336  0.0436
  528loPI   GL2 8438  11.357   7.284   9.996 -0.0308  0.2765 -0.2250
  528loPI   C1A 8439  10.938   7.213   9.659 -0.2033  0.4286 -0.0688
  528loPI   C2A 8440  10.983   7.223   9.261  0.0842  0.1464  0.0709
  528loPI   C3A 8441  11.136   7.161   8.803 -0.0621 -0.1909  0.0559
  528loPI   C4A 8442  11.126   7.435   8.434 -0.1982  0.1607 -0.0171
  528loPI   C5A 8443  11.304   7.494   7.993 -0.1044 -0.1167  0.0636
  528loPI   C6A 8444  11.656   7.311   7.799  0.0281 -0.1213 -0.1083
  528loPI   C1B 8445  11.439   7.166   9.603  0.2309  0.1488  0.0958
  528loPI   C2B 8446  11.549   7.109   9.138  0.0577  0.3719 -0.1703
  528loPI   C3B 8447  11.601   7.224   8.701  0.0265  0.2705 -0.1735
  528loPI   C4B 8448  11.796   7.191   8.282  0.0680  0.4688  0.1051
  529loPI    C1 8449   8.290   8.965  10.403  0.3942 -0.1757  0.2557
  529loPI    C2 8450   8.294   9.332  10.561  0.1811 -0.0838  0.0535
  529loPI    C3 8451   8.182   9.020  10.784 -0.0793  0.0390  0.0979
  529loPI   PO4 8452   8.540   8.945  10.254 -0.0567 -0.0305 -0.1692
  529loPI   GL1 8453   8.483   8.840   9.863  0.2071  0.2866 -0.1743
  529loPI   GL2 8454   8.604   8.643   9.788 -0.3284  0.1338 -0.0306
  529loPI   C1A 8455   8.371   9.061   9.454 -0.0046 -0.1693  0.1862
  529loPI   C2A 8456   8.334   9.060   9.016 -0.0298 -0.0449 -0.2929
  529loPI   C3A 8457   8.289   8.992   8.675 -0.0238 -0.0377 -0.0954
  529loPI   C4A 8458   8.137   8.957   8.258 -0.1738 -0.3088  0.4797
  529loPI   C5A 8459   7.982   8.933   7.879 -0.1996  0.0871  0.1890
  529loPI   C6A 8460   7.663   8.667   7.830 -0.0577 -0.4431  0.0482
  529loPI   C1B 8461   8.429   8.569   9.353 -0.2139 -0.1403 -0.0838
  529loPI   C2B 8462   8.373   8.561   8.901  0.1004  0.1812 -0.1247
  529loPI   C3B 8463   8.219   8.531   8.526  0.3700 -0.1951  0.0851
  529loPI   C4B 8464   7.970   8.436   8.220  0.3300  0.1618  0.2084
  530loPI    C1 8465   9.957   8.747  10.649  0.1974  0.3112 -0.0172
  530loPI    C2 8466   9.999   8.915  11.009  0.0230  0.1708  0.0705
  530loPI    C3 8467   9.643   8.775  10.894  0.2020 -0.3069  0.0760
  530loPI   PO4 8468  10.104   8.873  10.521  0.0570 -0.0617  0.2773
  530loPI   GL1 8469  10.424   8.863  10.115  0.0728 -0.1581  0.0912
  530loPI   GL2 8470  10.611   8.742  10.331  0.2668 -0.1345 -0.0079
  530loPI   C1A 8471  10.258   8.697   9.652 -0.3346  0.0271 -0.2665
  530loPI   C2A 8472  10.296   8.671   9.241 -0.0201 -0.1272 -0.0022
  530loPI   C3A 8473  10.371   8.517   8.921 -0.1543 -0.0937  0.0962
  530loPI   C4A 8474  10.226   8.420   8.578  0.1666  0.2339 -0.1094
  530loPI   C5A 8475  10.062   8.509   8.127 -0.1108 -0.2883  0.0066
  530loPI   C6A 8476   9.815   8.347   7.920 -0.3345 -0.0679 -0.2849
  530loPI   C1B 8477  10.769   8.569   9.886 -0.1239  0.0890 -0.4404
  530loPI   C2B 8478  10.789   8.661   9.487 -0.2953  0.0169 -0.2187
  530loPI   C3B 8479  10.823   8.420   9.105 -0.1897 -0.0431  0.1440
  530loPI   C4B 8480  10.859   8.500   8.641  0.0221  0.0072 -0.0136
  531loPI    C1 8481   5.020  15.412  10.372 -0.0717  0.1457 -0.1562
  531loPI    C2 8482   5.019  15.713  10.636 -0.1788  0.0459 -0.0419
  531loPI    C3 8483   5.263  15.401  10.690 -0.1448  0.0617 -0.1031
  531loPI   PO4 8484   5.038  15.589  10.123  0.1716  0.3061 -0.1779
  531loPI   GL1 8485   5.315  15.817   9.712 -0.1056 -0.1996 -0.1056
  531loPI   GL2 8486   5.467  16.009   9.861 -0.3736 -0.0395  0.0671
  531loPI   C1A 8487   5.156  15.569   9.329  0.0532  0.0866  0.1394
  531loPI   C2A 8488   5.251  15.626   8.921 -0.1155 -0.0154 -0.0765
  531loPI   C3A 8489   5.193  15.595   8.481 -0.1008  0.1843  0.1817
  531loPI   C4A 8490   4.935  15.551   8.263  0.3925 -0.3570  0.0690
  531loPI   C5A 8491   4.910  15.592   7.818 -0.1007  0.2086 -0.1937
  531loPI   C6A 8492   5.117  15.518   7.524  0.4956 -0.0123 -0.3160
  531loPI   C1B 8493   5.368  16.046   9.283  0.1365  0.2433  0.0608
  531loPI   C2B 8494   5.358  16.139   8.944  0.2123  0.0609 -0.2397
  531loPI   C3B 8495   5.480  16.143   8.514 -0.1328  0.0363  0.0839
  531loPI   C4B 8496   5.673  16.422   8.275  0.1064  0.2938 -0.0231
  532loPI    C1 8497   6.858  10.658  10.518 -0.0365 -0.0351  0.0858
  532loPI    C2 8498   6.498  10.819  10.588  0.0205  0.1152  0.0369
  532loPI    C3 8499   6.640  10.533  10.829 -0.1083  0.0938  0.0878
  532loPI   PO4 8500   6.846  10.556  10.175 -0.0381  0.3875 -0.4451
  532loPI   GL1 8501   6.713  10.565   9.690 -0.0584 -0.2501  0.2031
  532loPI   GL2 8502   6.690  10.838   9.561  0.0660  0.0352  0.1276
  532loPI   C1A 8503   6.963  10.644   9.228  0.1390 -0.2865  0.0708
  532loPI   C2A 8504   6.902  10.507   8.821 -0.0106 -0.2984 -0.2295
  532loPI   C3A 8505   6.623  10.685   8.574  0.1261  0.1146  0.1207
  532loPI   C4A 8506   6.696  10.712   8.052 -0.0244 -0.0630  0.0670
  532loPI   C5A 8507   6.564  10.508   7.665  0.0738 -0.1113  0.2985
  532loPI   C6A 8508   6.249  10.313   7.571  0.2688  0.0129 -0.1217
  532loPI   C1B 8509   6.490  10.679   9.196  0.0124  0.2375  0.3538
  532loPI   C2B 8510   6.471  10.427   9.032  0.1120  0.1480 -0.0135
  532loPI   C3B 8511   6.311  10.198   8.603 -0.1034  0.1069  0.2777
  532loPI   C4B 8512   6.330   9.843   8.320  0.3359  0.0461  0.2263
  533loPI    C1 8513  14.320  18.382  10.660 -0.5181  0.0230  0.0276
  533loPI    C2 8514  14.161  18.118  10.915 -0.4483  0.2467  0.3085
  533loPI    C3 8515  14.479  18.334  11.024 -0.0940 -0.0199 -0.1574
  533loPI   PO4 8516  14.301  18.226  10.368  0.0366  0.2372  0.1396
  533loPI   GL1 8517  14.526  18.076  10.058  0.1512 -0.1180 -0.1738
  533loPI   GL2 8518  14.775  17.992  10.072  0.1813 -0.0536  0.2339
  533loPI   C1A 8519  14.405  18.202   9.671  0.0316 -0.0052 -0.0502
  533loPI   C2A 8520  14.478  18.197   9.253  0.1258 -0.1773  0.2418
  533loPI   C3A 8521  14.436  18.155   8.752  0.0799  0.0077 -0.5969
  533loPI   C4A 8522  14.450  18.327   8.411  0.3038  0.2586 -0.1381
  533loPI   C5A 8523  14.322  18.066   7.984 -0.1058  0.0630 -0.2089
  533loPI   C6A 8524  14.214  17.959   7.548  0.2854 -0.1794 -0.4647
  533loPI   C1B 8525  14.982  18.146   9.681  0.0357 -0.2307  0.2293
  533loPI   C2B 8526  14.958  18.112   9.309 -0.1308 -0.2372 -0.2222
  533loPI   C3B 8527  15.058  18.101   8.815  0.1052  0.2620 -0.1134
  533loPI   C4B 8528  14.925  18.380   8.508  0.1798  0.2334 -0.0129
  534loPI    C1 8529   7.478  15.332  10.144  0.1452 -0.0983  0.1898
  534loPI    C2 8530   7.253  15.147  10.418 -0.1268 -0.0192  0.0238
  534loPI    C3 8531   7.351  15.532  10.467 -0.1115 -0.0261  0.0474
  534loPI   PO4 8532   7.297  15.282   9.911 -0.1098 -0.2343 -0.1766
  534loPI   GL1 8533   7.220  15.514   9.668 -0.0965  0.4139 -0.0261
  534loPI   GL2 8534   7.005  15.628   9.455 -0.0414  0.3247 -0.3361
  534loPI   C1A 8535   7.258  15.205   9.245 -0.3652 -0.1042 -0.0894
  534loPI   C2A 8536   7.229  15.172   8.782  0.1372  0.0460  0.0186
  534loPI   C3A 8537   7.256  15.194   8.358  0.3787 -0.0691 -0.0748
  534loPI   C4A 8538   7.113  15.134   7.895 -0.1444 -0.0036  0.0961
  534loPI   C5A 8539   7.129  15.210   7.547 -0.0535 -0.0341  0.1877
  534loPI   C6A 8540   7.441  15.347   7.374 -0.1609  0.1394  0.0604
  534loPI   C1B 8541   7.142  15.695   9.150  0.3418 -0.0725 -0.3464
  534loPI   C2B 8542   7.141  15.623   8.712 -0.0939 -0.0564 -0.0418
  534loPI   C3B 8543   7.212  15.711   8.293  0.1331  0.2218  0.1693
  534loPI   C4B 8544   6.964  15.783   7.911  0.2957  0.3506  0.0868
  535loPI    C1 8545  13.034   5.067  10.940 -0.2807 -0.0759 -0.3398
  535loPI    C2 8546  12.676   5.226  11.022 -0.1102  0.1189  0.0574
  535loPI    C3 8547  12.808   4.911  11.231 -0.1423 -0.0991 -0.2436
  535loPI   PO4 8548  13.025   5.018  10.744  0.3450  0.2147  0.4371
  535loPI   GL1 8549  13.266   4.652  10.575  0.1819 -0.1500  0.1978
  535loPI   GL2 8550  13.040   4.621  10.288  0.3371  0.2871 -0.2621
  535loPI   C1A 8551  13.561   4.743  10.306  0.0237  0.1215 -0.0605
  535loPI   C2A 8552  13.748   4.833   9.862  0.0863  0.0008 -0.2165
  535loPI   C3A 8553  13.819   4.841   9.366 -0.0183 -0.2252  0.2404
  535loPI   C4A 8554  13.864   4.871   8.955 -0.1767 -0.2329 -0.2510
  535loPI   C5A 8555  13.975   4.826   8.509 -0.1682 -0.4515 -0.0083
  535loPI   C6A 8556  14.171   4.537   8.256 -0.1025  0.1440  0.1593
  535loPI   C1B 8557  13.285   4.604   9.890  0.0620 -0.2250  0.2479
  535loPI   C2B 8558  13.351   4.716   9.448 -0.1812 -0.2314 -0.1484
  535loPI   C3B 8559  13.381   4.938   9.120 -0.0747 -0.1850  0.3127
  535loPI   C4B 8560  13.453   4.875   8.666 -0.0142  0.0261 -0.0530
  536loPI    C1 8561  17.401   6.916  11.096 -0.0112  0.1849 -0.0399
  536loPI    C2 8562  17.198   6.671  11.337  0.1308  0.0212 -0.0846
  536loPI    C3 8563  17.565   6.791  11.438  0.0393  0.2639 -0.0352
  536loPI   PO4 8564  17.285   6.802  10.828 -0.2524  0.0094  0.0467
  536loPI   GL1 8565  17.489   6.682  10.448  0.0943  0.1936  0.0802
  536loPI   GL2 8566  17.790   6.529  10.355  0.2314 -0.0092  0.2639
  536loPI   C1A 8567  17.396   6.256  10.306  0.1637 -0.1167  0.0961
  536loPI   C2A 8568  17.303   6.022   9.956 -0.2121 -0.0755  0.0351
  536loPI   C3A 8569  17.240   6.098   9.664 -0.1501 -0.0925 -0.1527
  536loPI   C4A 8570  17.346   6.099   9.282  0.0809 -0.1693 -0.1301
  536loPI   C5A 8571  17.329   6.038   8.811  0.0126  0.1444 -0.1682
  536loPI   C6A 8572  17.548   6.163   8.485 -0.1177 -0.1031 -0.0481
  536loPI   C1B 8573  17.577   6.632   9.940  0.2538  0.0572 -0.1082
  536loPI   C2B 8574  17.562   6.648   9.536  0.3048 -0.0050 -0.1929
  536loPI   C3B 8575  17.579   6.582   9.175 -0.0796 -0.2327  0.0968
  536loPI   C4B 8576  17.552   6.513   8.880  0.4692  0.0520  0.4391
  537loPI    C1 8577  11.722   2.289  10.499  0.0884  0.1394 -0.1065
  537loPI    C2 8578  11.447   2.238  10.786  0.2069 -0.0521 -0.0254
  537loPI    C3 8579  11.561   2.607  10.681 -0.3083  0.0436 -0.2795
  537loPI   PO4 8580  11.539   2.139  10.304 -0.1030 -0.1842 -0.1781
  537loPI   GL1 8581  11.602   2.014   9.760  0.2926 -0.2421  0.1990
  537loPI   GL2 8582  11.720   2.343   9.741 -0.1015 -0.1738  0.4070
  537loPI   C1A 8583  11.857   1.907   9.449 -0.2030  0.0116 -0.0720
  537loPI   C2A 8584  12.008   2.033   9.082 -0.1875 -0.0209 -0.0066
  537loPI   C3A 8585  12.047   2.176   8.642  0.1579  0.1134  0.0583
  537loPI   C4A 8586  12.275   2.242   8.185  0.3015 -0.2620  0.0815
  537loPI   C5A 8587  12.544   2.394   7.818 -0.0700  0.1119  0.1418
  537loPI   C6A 8588  12.465   2.605   7.344  0.2164  0.0651  0.0039
  537loPI   C1B 8589  11.636   2.373   9.391 -0.1652 -0.2367  0.0126
  537loPI   C2B 8590  11.627   2.419   8.995  0.0591  0.0288  0.0873
  537loPI   C3B 8591  11.589   2.575   8.579 -0.4034 -0.0302  0.3035
  537loPI   C4B 8592  11.397   2.662   8.102 -0.2241  0.0868  0.3444
  538loPI    C1 8593   6.623  13.773  10.172  0.1490 -0.0956  0.0394
  538loPI    C2 8594   6.402  13.926  10.468  0.1345 -0.1411  0.0521
  538loPI    C3 8595   6.666  13.636  10.545  0.0788 -0.2036  0.0081
  538loPI   PO4 8596   6.484  13.693   9.958 -0.3476  0.1516 -0.4439
  538loPI   GL1 8597   6.556  13.589   9.563  0.3189  0.0235  0.0062
  538loPI   GL2 8598   6.461  13.897   9.498  0.1429 -0.1649  0.2910
  538loPI   C1A 8599   6.501  13.303   9.218 -0.2637  0.0590  0.2049
  538loPI   C2A 8600   6.779  13.395   8.790  0.3302 -0.1662 -0.0566
  538loPI   C3A 8601   6.790  13.452   8.402 -0.2217  0.1450 -0.0348
  538loPI   C4A 8602   6.988  13.197   8.039  0.2085  0.0905  0.0853
  538loPI   C5A 8603   7.146  12.832   7.838 -0.4115  0.2473 -0.2321
  538loPI   C6A 8604   7.501  12.606   7.633  0.0891 -0.0245  0.0334
  538loPI   C1B 8605   6.465  13.804   9.124 -0.0783 -0.1153  0.0587
  538loPI   C2B 8606   6.342  13.640   8.696 -0.2982 -0.0266 -0.1869
  538loPI   C3B 8607   6.317  13.633   8.252 -0.1824 -0.0213  0.0878
  538loPI   C4B 8608   6.607  13.498   7.828  0.0794  0.0605  0.1154
  539loPI    C1 8609  16.727  13.549  10.586 -0.0240  0.1395  0.0360
  539loPI    C2 8610  16.514  13.508  10.922 -0.3015  0.3529 -0.1088
  539loPI    C3 8611  16.836  13.745  10.917 -0.0871  0.0736  0.0962
  539loPI   PO4 8612  16.610  13.633  10.411 -0.0813  0.0666  0.1175
  539loPI   GL1 8613  16.342  13.881  10.135  0.1567  0.1370 -0.0784
  539loPI   GL2 8614  16.242  13.599  10.055  0.0924 -0.0301 -0.3896
  539loPI   C1A 8615  16.226  14.247   9.887  0.0417  0.0495 -0.2819
  539loPI   C2A 8616  16.368  14.456   9.559 -0.0231  0.1663 -0.0507
  539loPI   C3A 8617  16.453  14.450   9.161 -0.1157 -0.1016  0.3245
  539loPI   C4A 8618  16.512  14.399   8.760  0.0359 -0.0524  0.2882
  539loPI   C5A 8619  16.636  14.366   8.321 -0.2426 -0.0621 -0.0121
  539loPI   C6A 8620  16.477  13.997   8.076 -0.1910 -0.3101 -0.0415
  539loPI   C1B 8621  16.410  13.576   9.641 -0.3517  0.1023  0.3109
  539loPI   C2B 8622  16.468  13.468   9.233  0.1229  0.0696  0.0732
  539loPI   C3B 8623  16.485  13.469   8.727 -0.0935 -0.5017 -0.0219
  539loPI   C4B 8624  16.444  13.474   8.247  0.1090 -0.0817  0.2345
  540loPI    C1 8625   8.292   5.812  10.252 -0.0350  0.1014 -0.1062
  540loPI    C2 8626   7.892   5.806  10.276 -0.0261  0.0037  0.0269
  540loPI    C3 8627   8.110   5.544  10.486  0.1022 -0.0585 -0.1802
  540loPI   PO4 8628   8.323   5.936  10.064 -0.0697  0.5113 -0.0326
  540loPI   GL1 8629   8.588   5.952   9.708 -0.4871 -0.0093  0.0785
  540loPI   GL2 8630   8.271   5.777   9.599  0.2934 -0.1367  0.0761
  540loPI   C1A 8631   8.602   6.187   9.298 -0.1300 -0.0011 -0.2177
  540loPI   C2A 8632   8.513   6.325   8.833 -0.0529  0.0037  0.1954
  540loPI   C3A 8633   8.422   6.400   8.464  0.0457  0.0324 -0.1014
  540loPI   C4A 8634   8.346   6.038   8.201  0.0941  0.0670 -0.3200
  540loPI   C5A 8635   8.230   5.800   7.970 -0.1217  0.1175 -0.2757
  540loPI   C6A 8636   7.941   5.512   7.740 -0.0729 -0.0144 -0.0654
  540loPI   C1B 8637   8.226   5.928   9.162 -0.1259  0.2126 -0.0197
  540loPI   C2B 8638   8.220   5.987   8.669 -0.2465 -0.1702 -0.1704
  540loPI   C3B 8639   7.844   6.122   8.302 -0.0554  0.0778 -0.2435
  540loPI   C4B 8640   7.565   6.467   8.207 -0.1004 -0.1446  0.1626
  541loPI    C1 8641  13.756  15.622  10.370 -0.0493 -0.0602 -0.0808
  541loPI    C2 8642  14.021  15.638  10.669  0.0999 -0.1173 -0.2085
  541loPI    C3 8643  13.639  15.735  10.736  0.1785  0.0950 -0.0536
  541loPI   PO4 8644  14.099  15.591  10.111  0.1368 -0.3113  0.3140
  541loPI   GL1 8645  14.202  15.521   9.682  0.3115 -0.2312 -0.2214
  541loPI   GL2 8646  14.094  15.877   9.623  0.1891 -0.0074 -0.0074
  541loPI   C1A 8647  14.273  15.457   9.287 -0.0620  0.0135 -0.1960
  541loPI   C2A 8648  14.193  15.341   8.958  0.0756  0.1338  0.1498
  541loPI   C3A 8649  14.339  15.424   8.558 -0.0437  0.1162 -0.1031
  541loPI   C4A 8650  14.348  15.276   8.082 -0.1755  0.1982  0.0662
  541loPI   C5A 8651  14.349  15.313   7.576  0.0934  0.0652  0.4599
  541loPI   C6A 8652  14.514  15.404   7.151 -0.1981 -0.0051  0.0559
  541loPI   C1B 8653  13.988  15.885   9.164  0.0734  0.0598 -0.4120
  541loPI   C2B 8654  14.011  15.801   8.686  0.0781  0.1958 -0.1099
  541loPI   C3B 8655  14.112  15.908   8.302  0.1156  0.2985 -0.0652
  541loPI   C4B 8656  13.953  15.938   7.915  0.0771 -0.2011  0.1164
  542loPI    C1 8657  12.689   8.207  10.712  0.2418  0.1296 -0.3280
  542loPI    C2 8658  12.532   8.500  10.935  0.2172  0.0430 -0.2312
  542loPI    C3 8659  12.779   8.232  11.101 -0.1480 -0.2847 -0.2032
  542loPI   PO4 8660  12.774   8.347  10.549  0.0729  0.3571  0.0636
  542loPI   GL1 8661  13.138   8.121  10.333  0.1599 -0.1497  0.2172
  542loPI   GL2 8662  12.955   7.849  10.433 -0.0141 -0.0731 -0.2300
  542loPI   C1A 8663  13.097   7.978   9.970 -0.0149 -0.2822 -0.0336
  542loPI   C2A 8664  13.238   7.994   9.528 -0.2595  0.0682  0.1078
  542loPI   C3A 8665  13.278   7.974   9.055 -0.0016  0.1787  0.2413
  542loPI   C4A 8666  13.161   8.077   8.618  0.1605  0.3221  0.3200
  542loPI   C5A 8667  12.960   8.084   8.277  0.1241  0.0585 -0.2465
  542loPI   C6A 8668  12.753   8.242   7.948 -0.0890  0.1835  0.0969
  542loPI   C1B 8669  12.877   7.583  10.123 -0.0539  0.1062 -0.1134
  542loPI   C2B 8670  12.894   7.586   9.715 -0.1639  0.0441  0.0148
  542loPI   C3B 8671  12.971   7.499   9.243 -0.0954  0.0731 -0.0019
  542loPI   C4B 8672  13.026   7.568   8.881  0.2436 -0.0916  0.1054
  543loPI    C1 8673  15.108  11.318  10.251 -0.0792 -0.0044  0.0989
  543loPI    C2 8674  14.949  11.339  10.617 -0.0303  0.2386  0.1078
  543loPI    C3 8675  15.083  10.989  10.477 -0.4026  0.0659  0.1704
  543loPI   PO4 8676  14.979  11.506  10.128 -0.2533 -0.0659  0.0167
  543loPI   GL1 8677  15.170  11.878   9.974 -0.0246  0.2792  0.1637
  543loPI   GL2 8678  15.308  11.632   9.754  0.1276 -0.3345 -0.1733
  543loPI   C1A 8679  15.023  11.979   9.551  0.1681 -0.2258  0.0571
  543loPI   C2A 8680  14.997  12.027   9.040 -0.1355 -0.1401 -0.0818
  543loPI   C3A 8681  15.198  12.020   8.601  0.0909  0.0129 -0.0414
  543loPI   C4A 8682  15.258  12.030   8.162 -0.0592 -0.1340 -0.4426
  543loPI   C5A 8683  15.246  12.349   7.773  0.2390  0.2296  0.1631
  543loPI   C6A 8684  15.007  12.516   7.573 -0.3067 -0.0257 -0.1153
  543loPI   C1B 8685  15.285  11.606   9.348 -0.0562 -0.3083  0.1550
  543loPI   C2B 8686  15.373  11.626   8.921  0.4106  0.2553  0.0565
  543loPI   C3B 8687  15.494  11.634   8.460 -0.4226  0.0765 -0.2834
  543loPI   C4B 8688  15.492  11.569   7.976  0.0362  0.1396 -0.3229
  544loPI    C1 8689   2.504  16.307  10.793 -0.1077  0.0563  0.0348
  544loPI    C2 8690   2.868  16.365  10.949 -0.1176  0.0049  0.0774
  544loPI    C3 8691   2.552  16.555  11.103 -0.1170  0.0082  0.0748
  544loPI   PO4 8692   2.448  16.233  10.474 -0.0318  0.0304  0.1696
  544loPI   GL1 8693   2.550  16.184  10.073  0.2304 -0.1195 -0.4027
  544loPI   GL2 8694   2.841  16.027   9.902  0.1535  0.1898  0.1063
  544loPI   C1A 8695   2.382  16.172   9.707  0.0288  0.0815 -0.0615
  544loPI   C2A 8696   2.185  16.084   9.253  0.2723 -0.1842 -0.1628
  544loPI   C3A 8697   2.269  16.104   8.851  0.0737  0.1421 -0.0615
  544loPI   C4A 8698   2.087  16.176   8.375 -0.4405  0.0588  0.0989
  544loPI   C5A 8699   2.284  16.198   7.991 -0.0444  0.1035 -0.2546
  544loPI   C6A 8700   2.258  16.099   7.510  0.4229  0.0264 -0.1855
  544loPI   C1B 8701   2.769  16.111   9.418  0.0657  0.0854  0.1192
  544loPI   C2B 8702   2.887  16.173   9.079  0.0045 -0.0112  0.3733
  544loPI   C3B 8703   2.791  16.120   8.721  0.1054  0.0282 -0.6429
  544loPI   C4B 8704   2.614  16.065   8.329  0.0423 -0.0359 -0.0425
  545loPI    C1 8705  11.352   5.371  10.402  0.2204  0.2458  0.2046
  545loPI    C2 8706  11.575   5.349  10.733  0.2332 -0.1728  0.1736
  545loPI    C3 8707  11.237   5.137  10.705  0.0830  0.0806  0.0272
  545loPI   PO4 8708  11.442   5.608  10.328  0.0768 -0.4554 -0.1509
  545loPI   GL1 8709  11.765   5.630   9.994 -0.3310 -0.1687  0.0353
  545loPI   GL2 8710  11.910   5.845  10.095  0.1370 -0.2966 -0.3960
  545loPI   C1A 8711  11.782   5.662   9.535  0.4283 -0.2155 -0.4514
  545loPI   C2A 8712  11.783   5.679   9.092  0.1201 -0.3026 -0.0637
  545loPI   C3A 8713  11.954   5.798   8.680  0.0451  0.3075 -0.4282
  545loPI   C4A 8714  11.928   5.820   8.300  0.0451 -0.0739 -0.0397
  545loPI   C5A 8715  11.782   5.928   7.996 -0.2963 -0.1876 -0.5303
  545loPI   C6A 8716  11.546   5.807   7.659 -0.0601 -0.2742  0.0367
  545loPI   C1B 8717  12.209   5.741   9.790  0.0619  0.2524  0.0280
  545loPI   C2B 8718  12.281   5.747   9.442 -0.0615 -0.0730  0.3351
  545loPI   C3B 8719  12.361   5.759   8.983  0.2302 -0.2960 -0.5177
  545loPI   C4B 8720  12.408   5.774   8.466 -0.0506 -0.2537 -0.1997
  546loPI    C1 8721  17.000  15.251  10.664  0.1133 -0.1173 -0.1036
  546loPI    C2 8722  17.323  15.354  10.876  0.1153 -0.3512  0.0098
  546loPI    C3 8723  17.053  15.631  10.776  0.1912 -0.2112  0.1872
  546loPI   PO4 8724  17.108  15.142  10.462 -0.2096 -0.1576  0.0843
  546loPI   GL1 8725  17.060  15.078  10.118 -0.0489 -0.0546 -0.0170
  546loPI   GL2 8726  17.303  15.277  10.009 -0.0151 -0.1090  0.1686
  546loPI   C1A 8727  17.180  14.901   9.752 -0.0598  0.1533  0.2782
  546loPI   C2A 8728  17.238  14.832   9.277 -0.0402  0.0392 -0.0452
  546loPI   C3A 8729  17.342  14.789   8.875 -0.0991 -0.0706 -0.0926
  546loPI   C4A 8730  17.369  14.894   8.492  0.0257  0.4476 -0.1292
  546loPI   C5A 8731  17.526  15.050   7.999  0.2039  0.0671  0.4033
  546loPI   C6A 8732  17.262  15.254   7.616 -0.3762  0.3394  0.0584
  546loPI   C1B 8733  17.562  15.332   9.677  0.2900  0.0417  0.3624
  546loPI   C2B 8734  17.513  15.206   9.234 -0.1624  0.0257 -0.1460
  546loPI   C3B 8735  17.613  15.234   8.747  0.3483  0.1449 -0.0862
  546loPI   C4B 8736  17.756  15.220   8.413  0.0022  0.1242 -0.1992
  547loPI    C1 8737   5.224   5.675  10.620  0.0221  0.0226  0.1138
  547loPI    C2 8738   5.125   5.289  10.649  0.2658 -0.0799 -0.3219
  547loPI    C3 8739   5.420   5.438  10.875 -0.2114 -0.0009  0.2737
  547loPI   PO4 8740   5.293   5.636  10.343  0.0011  0.2326 -0.3026
  547loPI   GL1 8741   5.153   5.362   9.975  0.2498  0.0084  0.0621
  547loPI   GL2 8742   4.884   5.679   9.916 -0.0957 -0.0389 -0.0029
  547loPI   C1A 8743   5.325   5.428   9.583 -0.1013 -0.1106  0.2362
  547loPI   C2A 8744   5.169   5.478   9.214  0.3169 -0.0133  0.1770
  547loPI   C3A 8745   5.094   5.385   8.860  0.2423  0.2271 -0.4290
  547loPI   C4A 8746   5.037   5.504   8.457 -0.2698  0.0420 -0.0889
  547loPI   C5A 8747   5.054   5.663   8.087 -0.4713  0.1218  0.2422
  547loPI   C6A 8748   5.322   5.747   7.786  0.1870 -0.1798  0.3936
  547loPI   C1B 8749   4.716   5.730   9.474 -0.1139 -0.1231 -0.1654
  547loPI   C2B 8750   4.709   6.012   9.069 -0.0398  0.0843 -0.1549
  547loPI   C3B 8751   4.997   5.984   8.681  0.2837  0.0731  0.2675
  547loPI   C4B 8752   5.211   6.088   8.331 -0.0447  0.3092  0.0594
  548loPI    C1 8753   3.133   7.223  10.555  0.0319  0.0959  0.1438
  548loPI    C2 8754   3.322   7.573  10.598  0.1967 -0.0125  0.3179
  548loPI    C3 8755   3.505   7.269  10.413 -0.0994  0.1145 -0.2045
  548loPI   PO4 8756   2.946   7.261  10.452 -0.0986  0.2426  0.0747
  548loPI   GL1 8757   2.981   7.397  10.003  0.0698  0.0753  0.1058
  548loPI   GL2 8758   3.228   7.645   9.987 -0.0283  0.0938 -0.1440
  548loPI   C1A 8759   2.914   7.318   9.658 -0.0897 -0.1423  0.1229
  548loPI   C2A 8760   2.887   7.247   9.107  0.1973  0.0357  0.0858
  548loPI   C3A 8761   2.852   7.310   8.713  0.0156 -0.1383  0.0117
  548loPI   C4A 8762   2.956   7.470   8.260  0.2037  0.0508 -0.1843
  548loPI   C5A 8763   3.064   7.929   8.097  0.1504  0.2510 -0.4855
  548loPI   C6A 8764   3.112   8.346   8.046  0.0506  0.1856  0.0016
  548loPI   C1B 8765   3.477   7.357   9.642  0.0136 -0.2402  0.1567
  548loPI   C2B 8766   3.352   7.229   9.272 -0.0006 -0.3525 -0.1930
  548loPI   C3B 8767   3.337   7.236   8.827 -0.0871  0.0602 -0.0020
  548loPI   C4B 8768   3.465   7.313   8.401  0.2166  0.4028 -0.1942
  549loPI    C1 8769  14.107   1.988  10.985  0.0173 -0.2985  0.1318
  549loPI    C2 8770  14.211   2.324  11.174  0.1968 -0.2413 -0.0655
  549loPI    C3 8771  14.041   2.026  11.377 -0.1294  0.0362  0.0783
  549loPI   PO4 8772  14.232   2.045  10.762  0.0071  0.2311  0.0317
  549loPI   GL1 8773  14.162   2.006  10.384  0.2685  0.0314  0.2590
  549loPI   GL2 8774  14.354   2.274  10.334  0.1266 -0.2901 -0.0461
  549loPI   C1A 8775  14.577   1.914  10.137 -0.1738  0.1972  0.1216
  549loPI   C2A 8776  14.662   1.957   9.689 -0.1968 -0.0547  0.0645
  549loPI   C3A 8777  14.757   2.037   9.307 -0.1091  0.1437  0.0864
  549loPI   C4A 8778  14.793   2.130   8.841  0.0803  0.0217  0.4268
  549loPI   C5A 8779  14.824   2.379   8.456 -0.0424  0.1997  0.1613
  549loPI   C6A 8780  14.968   2.688   8.451 -0.1355 -0.0686 -0.0706
  549loPI   C1B 8781  14.404   2.523  10.007 -0.2482 -0.1487 -0.0532
  549loPI   C2B 8782  14.485   2.464   9.661 -0.1835 -0.1238  0.3886
  549loPI   C3B 8783  14.466   2.597   9.202  0.2998 -0.0048 -0.0640
  549loPI   C4B 8784  14.565   2.654   8.765 -0.0479 -0.2647  0.0311
  550loPI    C1 8785   3.893   3.153  10.902 -0.4732  0.2559  0.1129
  550loPI    C2 8786   4.205   3.274  11.120 -0.0882 -0.2281 -0.1482
  550loPI    C3 8787   3.969   2.981  11.255 -0.1271 -0.2092 -0.1753
  550loPI   PO4 8788   3.960   3.098  10.653  0.1210 -0.1745  0.1321
  550loPI   GL1 8789   3.922   3.151  10.235  0.1188  0.2762  0.2141
  550loPI   GL2 8790   4.132   3.180  10.008  0.1251 -0.2141  0.2695
  550loPI   C1A 8791   3.746   3.386   9.862 -0.1443  0.0548 -0.1432
  550loPI   C2A 8792   3.945   3.384   9.513 -0.0106 -0.0705 -0.0414
  550loPI   C3A 8793   3.780   3.521   9.108  0.1648 -0.1126  0.5001
  550loPI   C4A 8794   3.787   3.590   8.643 -0.1061 -0.0287 -0.1050
  550loPI   C5A 8795   3.644   3.621   8.286  0.2998  0.0834  0.0094
  550loPI   C6A 8796   3.460   3.655   7.858  0.2181 -0.1481  0.0495
  550loPI   C1B 8797   4.397   3.427   9.639 -0.2476  0.0300 -0.0201
  550loPI   C2B 8798   4.378   3.586   9.242  0.1325  0.2055  0.0699
  550loPI   C3B 8799   4.263   3.630   8.843 -0.0169 -0.0046 -0.0787
  550loPI   C4B 8800   4.255   3.585   8.426  0.1293 -0.1171 -0.3028
  551loPI    C1 8801  14.521   5.238  11.543 -0.0470  0.0649  0.0891
  551loPI    C2 8802  14.839   5.000  11.594 -0.1028  0.0103  0.1854
  551loPI    C3 8803  14.792   5.324  11.825 -0.1124  0.0232  0.1653
  551loPI   PO4 8804  14.505   5.293  11.258  0.0069  0.1024 -0.0048
  551loPI   GL1 8805  14.692   5.228  10.876 -0.0164  0.1050 -0.1892
  551loPI   GL2 8806  14.597   5.070  10.518  0.0281 -0.0194 -0.0652
  551loPI   C1A 8807  14.664   5.566  10.562  0.3383  0.4597 -0.2692
  551loPI   C2A 8808  14.871   5.675  10.223 -0.4719  0.1006  0.0225
  551loPI   C3A 8809  14.845   5.707   9.792  0.0966 -0.2460 -0.0673
  551loPI   C4A 8810  14.894   5.665   9.409 -0.1355 -0.0883  0.0366
  551loPI   C5A 8811  14.907   5.708   8.960  0.1250 -0.3945  0.0260
  551loPI   C6A 8812  14.974   5.803   8.495  0.1014  0.0429  0.1057
  551loPI   C1B 8813  14.576   5.225  10.143  0.1068 -0.1271 -0.2444
  551loPI   C2B 8814  14.598   5.309   9.698  0.2704 -0.0209 -0.0632
  551loPI   C3B 8815  14.578   5.270   9.369 -0.1342  0.0585  0.4396
  551loPI   C4B 8816  14.638   5.308   8.880  0.0354  0.0700  0.1728
  552loPI    C1 8817   8.138  11.958  10.226  0.2638  0.3181 -0.0083
  552loPI    C2 8818   8.324  11.683  10.449  0.0642  0.2151  0.0333
  552loPI    C3 8819   8.129  11.985  10.625 -0.0429  0.1669 -0.0019
  552loPI   PO4 8820   8.130  11.799  10.021 -0.2747 -0.0425  0.0558
  552loPI   GL1 8821   8.249  11.470   9.697  0.1262 -0.1930 -0.4053
  552loPI   GL2 8822   8.483  11.694   9.583  0.0031  0.0853 -0.0829
  552loPI   C1A 8823   8.095  11.417   9.305  0.1480  0.2748  0.3038
  552loPI   C2A 8824   7.901  11.227   8.880  0.2226 -0.0985 -0.0454
  552loPI   C3A 8825   7.818  11.177   8.421  0.2295  0.3287 -0.1750
  552loPI   C4A 8826   8.086  11.161   8.033  0.0153  0.0911  0.0936
  552loPI   C5A 8827   8.248  10.834   7.814 -0.2556  0.3899 -0.1762
  552loPI   C6A 8828   8.342  10.617   7.421  0.1055  0.1606 -0.2133
  552loPI   C1B 8829   8.623  11.512   9.218 -0.4373 -0.3690  0.4383
  552loPI   C2B 8830   8.474  11.351   8.826  0.0525 -0.0826  0.2635
  552loPI   C3B 8831   8.328  11.364   8.455  0.2051 -0.2138  0.1254
  552loPI   C4B 8832   8.561  11.515   8.102 -0.1245 -0.0639  0.3954
  553loPI    C1 8833  15.219  18.285  10.710 -0.1775 -0.0199  0.0886
  553loPI    C2 8834  15.336  17.990  10.954 -0.2826 -0.0093  0.1523
  553loPI    C3 8835  14.999  18.192  11.031 -0.0748  0.3055  0.2574
  553loPI   PO4 8836  15.290  18.149  10.460 -0.2350  0.1820 -0.0648
  553loPI   GL1 8837  15.261  17.971  10.125 -0.1498 -0.1482 -0.1433
  553loPI   GL2 8838  15.100  17.655   9.932  0.0803  0.4619 -0.3730
  553loPI   C1A 8839  15.453  18.150   9.811  0.1146  0.1484  0.2693
  553loPI   C2A 8840  15.526  18.292   9.467  0.2111 -0.2764 -0.1881
  553loPI   C3A 8841  15.488  18.352   9.038  0.0058 -0.1829  0.1569
  553loPI   C4A 8842  15.526  18.158   8.637  0.1444 -0.0870 -0.0669
  553loPI   C5A 8843  15.746  18.118   8.281  0.3222  0.1106  0.0347
  553loPI   C6A 8844  16.082  18.001   8.022  0.2080  0.1562  0.3528
  553loPI   C1B 8845  15.102  17.621   9.507  0.0923 -0.0981  0.0166
  553loPI   C2B 8846  15.133  17.640   9.010  0.2138 -0.5366 -0.0829
  553loPI   C3B 8847  15.296  17.663   8.627  0.1095  0.0122 -0.3042
  553loPI   C4B 8848  15.639  17.573   8.311  0.2587  0.2814  0.0533
  554loPI    C1 8849   2.764   6.474  11.035  0.0494  0.2685  0.1063
  554loPI    C2 8850   2.504   6.173  11.075  0.1123  0.2087  0.0667
  554loPI    C3 8851   2.734   6.280  11.384  0.2469  0.0706  0.0158
  554loPI   PO4 8852   2.767   6.477  10.713  0.0822  0.0545  0.1014
  554loPI   GL1 8853   2.535   6.522  10.308 -0.6139 -0.1130 -0.2038
  554loPI   GL2 8854   2.632   6.882  10.069  0.2087 -0.0546  0.3232
  554loPI   C1A 8855   2.372   6.488   9.791  0.1972  0.2244 -0.0294
  554loPI   C2A 8856   2.351   6.501   9.357  0.3927  0.0628 -0.4053
  554loPI   C3A 8857   2.381   6.434   8.944  0.1685  0.2462  0.0761
  554loPI   C4A 8858   2.213   6.336   8.606  0.0162 -0.2702 -0.4172
  554loPI   C5A 8859   2.318   6.529   8.269  0.1869 -0.1388 -0.1963
  554loPI   C6A 8860   2.308   6.800   7.930  0.2126 -0.0315  0.1715
  554loPI   C1B 8861   2.689   6.849   9.681 -0.2144 -0.2959  0.1305
  554loPI   C2B 8862   2.580   6.887   9.215 -0.2786  0.0977  0.1193
  554loPI   C3B 8863   2.617   6.878   8.835  0.1582  0.2951 -0.0027
  554loPI   C4B 8864   2.488   6.980   8.462  0.0549 -0.1165  0.1755
  555loPI    C1 8865   5.942   0.512  10.377 -0.1958 -0.2392  0.2006
  555loPI    C2 8866   6.304   0.403  10.508 -0.1656 -0.2488  0.1093
  555loPI    C3 8867   6.003   0.446  10.767  0.0373  0.3165  0.2674
  555loPI   PO4 8868   5.859   0.425  10.215  0.1381  0.0420  0.3089
  555loPI   GL1 8869   5.983   0.280   9.856  0.0918 -0.0916  0.3651
  555loPI   GL2 8870   6.255   0.086  10.121 -0.2598 -0.4888 -0.1762
  555loPI   C1A 8871   6.013   0.202   9.408 -0.1089 -0.0146 -0.3030
  555loPI   C2A 8872   5.960   0.163   8.935 -0.2671 -0.3036  0.1603
  555loPI   C3A 8873   5.998   0.172   8.604  0.2251  0.3032 -0.2960
  555loPI   C4A 8874   6.138   0.220   8.132  0.0234 -0.1610  0.0943
  555loPI   C5A 8875   5.860   0.053   7.800 -0.0336 -0.1017  0.0507
  555loPI   C6A 8876   5.543  -0.202   7.901 -0.0262 -0.1445  0.1061
  555loPI   C1B 8877   6.454   0.183   9.724  0.4628 -0.1709  0.2757
  555loPI   C2B 8878   6.438   0.121   9.234 -0.2023 -0.0132  0.0271
  555loPI   C3B 8879   6.444   0.022   8.845 -0.0948 -0.4531  0.1805
  555loPI   C4B 8880   6.407  -0.016   8.499 -0.2289 -0.2159  0.0506
  556loPI    C1 8881   0.213  17.361  10.836 -0.1188  0.1041  0.0516
  556loPI    C2 8882   0.395  17.521  11.153  0.0131 -0.2576  0.1638
  556loPI    C3 8883  -0.003  17.479  11.151 -0.0053 -0.0945  0.2056
  556loPI   PO4 8884   0.199  17.605  10.598  0.0763 -0.1872 -0.2074
  556loPI   GL1 8885   0.365  17.687  10.123  0.1355  0.0256 -0.0819
  556loPI   GL2 8886   0.091  17.702  10.129  0.0455 -0.0485 -0.2566
  556loPI   C1A 8887   0.403  17.734   9.667 -0.0554  0.0151 -0.1703
  556loPI   C2A 8888   0.272  17.663   9.202  0.1386  0.2647  0.3946
  556loPI   C3A 8889   0.305  17.635   8.742  0.0966  0.1672 -0.2197
  556loPI   C4A 8890   0.337  17.485   8.310 -0.0194  0.0230 -0.3479
  556loPI   C5A 8891   0.407  17.479   7.832  0.0119  0.0958  0.1369
  556loPI   C6A 8892   0.826  17.525   7.466 -0.0023 -0.0688  0.0433
  556loPI   C1B 8893  -0.111  17.792   9.792 -0.0824  0.2435 -0.1320
  556loPI   C2B 8894  -0.233  17.756   9.393  0.0541 -0.0261  0.2154
  556loPI   C3B 8895  -0.249  17.663   8.977 -0.1084 -0.0872  0.0712
  556loPI   C4B 8896  -0.158  17.484   8.549  0.0584  0.1087  0.1180
  557loPI    C1 8897   4.339   2.828  10.509 -0.0380 -0.1767 -0.1757
  557loPI    C2 8898   4.665   2.687  10.694  0.0255  0.2231  0.0280
  557loPI    C3 8899   4.369   2.850  10.908 -0.2024  0.0816 -0.1754
  557loPI   PO4 8900   4.360   2.713  10.199 -0.2159 -0.0633  0.2242
  557loPI   GL1 8901   4.510   2.768   9.817  0.1976 -0.3072 -0.3812
  557loPI   GL2 8902   4.320   2.962   9.566  0.2669  0.1504 -0.1854
  557loPI   C1A 8903   4.309   2.466   9.513 -0.1405  0.0761  0.0471
  557loPI   C2A 8904   4.147   2.571   9.099 -0.3695  0.1347  0.0029
  557loPI   C3A 8905   4.191   2.686   8.770 -0.1410 -0.0203  0.1576
  557loPI   C4A 8906   4.282   2.654   8.332  0.5429 -0.0602 -0.1539
  557loPI   C5A 8907   4.343   2.644   7.935  0.2530 -0.2014  0.2121
  557loPI   C6A 8908   4.628   2.546   7.677  0.1937  0.2180 -0.1049
  557loPI   C1B 8909   4.221   3.130   9.164  0.1006 -0.2554  0.0113
  557loPI   C2B 8910   4.448   3.173   8.769 -0.1036 -0.1718 -0.0514
  557loPI   C3B 8911   4.491   3.157   8.319  0.0063  0.1009 -0.1378
  557loPI   C4B 8912   4.336   3.149   7.972 -0.1116  0.0629  0.0026
  558loPI    C1 8913  10.233  15.767  10.188  0.1204  0.0699 -0.1120
  558loPI    C2 8914  10.334  15.462   9.950  0.0930  0.1095 -0.1745
  558loPI    C3 8915  10.350  15.419  10.347  0.5234  0.1685 -0.1802
  558loPI   PO4 8916   9.970  15.850  10.020 -0.3397  0.1149 -0.1235
  558loPI   GL1 8917   9.877  16.026   9.673  0.2254  0.0528  0.2082
  558loPI   GL2 8918   9.588  15.841   9.556 -0.1997  0.2931 -0.0610
  558loPI   C1A 8919  10.169  16.079   9.339  0.0299  0.1840 -0.0967
  558loPI   C2A 8920  10.292  16.095   8.942  0.1575  0.2021 -0.0709
  558loPI   C3A 8921  10.151  16.109   8.546 -0.2017 -0.1444  0.2896
  558loPI   C4A 8922  10.179  16.072   8.155  0.4705  0.1334 -0.0228
  558loPI   C5A 8923   9.922  16.023   7.814  0.2124 -0.2326  0.3745
  558loPI   C6A 8924   9.788  15.690   7.538 -0.5135 -0.1435 -0.0075
  558loPI   C1B 8925   9.694  16.024   9.211 -0.0064 -0.2114  0.0699
  558loPI   C2B 8926   9.594  16.119   8.789 -0.2884 -0.2098 -0.0210
  558loPI   C3B 8927   9.546  16.182   8.353 -0.4802 -0.1555 -0.1551
  558loPI   C4B 8928   9.585  16.372   7.961  0.1399  0.0950  0.0288
  559loPI    C1 8929  10.458  12.739   9.729  0.0294 -0.3075 -0.1028
  559loPI    C2 8930  10.260  12.694  10.074 -0.1575  0.0892 -0.1526
  559loPI    C3 8931  10.131  12.509   9.744 -0.2749  0.1118 -0.1199
  559loPI   PO4 8932  10.709  12.682   9.845 -0.0098 -0.0344 -0.1211
  559loPI   GL1 8933  10.865  12.360   9.542  0.1943 -0.1108  0.1815
  559loPI   GL2 8934  10.550  12.300   9.459  0.0707  0.1521  0.0293
  559loPI   C1A 8935  10.771  12.293   9.062  0.0081 -0.0507  0.1526
  559loPI   C2A 8936  10.867  12.371   8.646 -0.0178  0.0120  0.1874
  559loPI   C3A 8937  10.917  12.452   8.277  0.3383  0.3268  0.0775
  559loPI   C4A 8938  11.050  12.169   7.885 -0.0373 -0.3980  0.1405
  559loPI   C5A 8939  11.318  11.962   7.790  0.1639  0.2160 -0.3549
  559loPI   C6A 8940  11.302  11.815   7.428  0.2680 -0.6029 -0.0762
  559loPI   C1B 8941  10.460  12.601   9.234  0.1917  0.0113 -0.2230
  559loPI   C2B 8942  10.444  12.612   8.760  0.0909  0.0121  0.0714
  559loPI   C3B 8943  10.458  12.627   8.326  0.1695  0.1770  0.0607
  559loPI   C4B 8944  10.391  12.873   7.917  0.1413  0.3237 -0.1229
  560loPI    C1 8945   0.275   9.245  11.143 -0.1445 -0.1714  0.2266
  560loPI    C2 8946   0.606   9.027  11.198 -0.0283 -0.0526  0.0124
  560loPI    C3 8947   0.494   9.295  11.474  0.1960  0.0881 -0.0305
  560loPI   PO4 8948   0.225   9.337  10.799  0.1380  0.0603 -0.1704
  560loPI   GL1 8949   0.236   9.089  10.425  0.1601  0.0773  0.2275
  560loPI   GL2 8950  -0.094   9.010  10.477  0.1000  0.0684  0.0252
  560loPI   C1A 8951   0.297   9.238  10.064  0.2012 -0.2022  0.4241
  560loPI   C2A 8952   0.312   9.241   9.660 -0.3808 -0.3795  0.4257
  560loPI   C3A 8953   0.221   9.256   9.192  0.1329  0.0793  0.2874
  560loPI   C4A 8954   0.147   9.259   8.727  0.2891 -0.0530  0.0913
  560loPI   C5A 8955   0.003   9.485   8.375 -0.3477 -0.0325  0.1130
  560loPI   C6A 8956  -0.219   9.147   8.018  0.0775 -0.2327  0.1096
  560loPI   C1B 8957  -0.100   8.841  10.043  0.2264  0.3018 -0.1468
  560loPI   C2B 8958  -0.034   8.837   9.615  0.0208 -0.0205  0.0972
  560loPI   C3B 8959  -0.034   8.880   9.139  0.3242 -0.0057 -0.1166
  560loPI   C4B 8960  -0.041   8.710   8.715 -0.3967  0.2458  0.0256
  561loPI    C1 8961   5.222  10.955  10.306  0.1352 -0.0377  0.1007
  561loPI    C2 8962   5.266  11.137  10.660  0.1131 -0.0844  0.1277
  561loPI    C3 8963   5.521  10.850  10.550  0.1811  0.0009  0.0613
  561loPI   PO4 8964   5.203  11.171  10.114 -0.0623  0.1448 -0.2038
  561loPI   GL1 8965   5.135  11.175   9.670 -0.1962 -0.0732 -0.3410
  561loPI   GL2 8966   5.331  11.508   9.764  0.1824  0.3576  0.2188
  561loPI   C1A 8967   5.176  10.980   9.262 -0.2594  0.1209  0.3129
  561loPI   C2A 8968   5.171  10.966   8.860  0.3469 -0.0009 -0.1629
  561loPI   C3A 8969   4.999  10.881   8.449 -0.1294 -0.1088  0.2422
  561loPI   C4A 8970   4.977  10.767   8.037  0.3750  0.3058  0.0055
  561loPI   C5A 8971   5.093  10.413   7.772 -0.2481 -0.1802  0.0621
  561loPI   C6A 8972   5.629  10.274   7.809  0.1643 -0.0878  0.0460
  561loPI   C1B 8973   5.461  11.428   9.373 -0.0413 -0.0795  0.0020
  561loPI   C2B 8974   5.338  11.429   8.933  0.1310 -0.0683 -0.0702
  561loPI   C3B 8975   5.271  11.295   8.520  0.2763 -0.1662 -0.0161
  561loPI   C4B 8976   5.395  11.151   8.154  0.0821 -0.0453  0.0648
  562loPI    C1 8977  12.959   6.602  10.895  0.0526  0.2905  0.1017
  562loPI    C2 8978  12.643   6.809  11.028 -0.0791  0.0057  0.2402
  562loPI    C3 8979  12.999   6.849  11.207 -0.1842 -0.1440  0.4862
  562loPI   PO4 8980  12.893   6.587  10.596 -0.3284 -0.1959  0.2939
  562loPI   GL1 8981  12.856   6.390  10.224 -0.0082 -0.1772  0.1556
  562loPI   GL2 8982  13.129   6.125  10.218 -0.0013  0.0470  0.0269
  562loPI   C1A 8983  12.730   6.617   9.880 -0.2299 -0.2425 -0.1955
  562loPI   C2A 8984  12.795   6.634   9.485  0.0866  0.0947  0.2011
  562loPI   C3A 8985  12.943   6.641   9.126 -0.0334 -0.0244 -0.0255
  562loPI   C4A 8986  12.890   6.701   8.656  0.0890 -0.0505  0.0064
  562loPI   C5A 8987  12.913   6.838   8.235  0.0278  0.1619 -0.0980
  562loPI   C6A 8988  12.780   6.781   7.830 -0.4781 -0.1554  0.1127
  562loPI   C1B 8989  13.059   6.255   9.749  0.1825 -0.0250  0.0573
  562loPI   C2B 8990  13.117   6.231   9.238 -0.1193  0.2093 -0.0499
  562loPI   C3B 8991  13.162   6.255   8.753 -0.1008  0.4846 -0.0117
  562loPI   C4B 8992  13.071   6.309   8.290  0.1540 -0.1379 -0.2084
  563loPI    C1 8993   8.373   2.411  10.020  0.1439  0.0225 -0.0520
  563loPI    C2 8994   8.159   2.266  10.326 -0.0126  0.0685 -0.1386
  563loPI    C3 8995   8.551   2.336  10.371  0.0525 -0.3149 -0.0741
  563loPI   PO4 8996   8.467   2.292   9.814  0.2968  0.0372 -0.3081
  563loPI   GL1 8997   8.583   1.873   9.654  0.0104  0.1657  0.1191
  563loPI   GL2 8998   8.811   2.184   9.417  0.1390 -0.3772  0.0487
  563loPI   C1A 8999   8.603   1.616   9.347  0.0043  0.2144 -0.1026
  563loPI   C2A 9000   8.680   1.457   8.962  0.0075 -0.1363  0.1979
  563loPI   C3A 9001   8.963   1.372   8.593 -0.2443  0.0949 -0.0161
  563loPI   C4A 9002   9.167   1.280   8.249  0.0161  0.0614  0.3424
  563loPI   C5A 9003   9.310   1.089   7.815  0.0048 -0.2741 -0.0414
  563loPI   C6A 9004   9.564   0.988   7.519  0.1476 -0.2303 -0.2987
  563loPI   C1B 9005   8.806   1.945   8.974  0.0161  0.2135  0.1765
  563loPI   C2B 9006   8.909   1.905   8.572  0.0145 -0.0966 -0.2511
  563loPI   C3B 9007   9.041   1.920   8.205 -0.2342 -0.0883  0.0416
  563loPI   C4B 9008   9.101   1.721   7.984  0.3155 -0.1728 -0.0270
  564loPI    C1 9009   2.322  17.993  10.131 -0.1189  0.1765  0.1759
  564loPI    C2 9010   2.579  17.956  10.435  0.1885  0.0375 -0.0962
  564loPI    C3 9011   2.247  17.733  10.427  0.1577  0.0710  0.1564
  564loPI   PO4 9012   2.535  18.024   9.952 -0.0578  0.0878  0.2316
  564loPI   GL1 9013   2.871  17.861   9.746  0.2613  0.1303 -0.2428
  564loPI   GL2 9014   2.577  17.626   9.588 -0.3067  0.1627  0.1796
  564loPI   C1A 9015   2.791  17.963   9.272  0.2550 -0.1693  0.0436
  564loPI   C2A 9016   2.749  17.938   8.914 -0.1902 -0.1642 -0.2187
  564loPI   C3A 9017   2.640  17.957   8.457 -0.1960 -0.1671 -0.0320
  564loPI   C4A 9018   2.613  17.910   8.031 -0.0011  0.0305 -0.3215
  564loPI   C5A 9019   2.344  17.914   7.648  0.0003 -0.0544 -0.3416
  564loPI   C6A 9020   2.558  17.889   7.170  0.0467 -0.3121  0.0405
  564loPI   C1B 9021   2.522  17.492   9.158  0.2511 -0.0131  0.3011
  564loPI   C2B 9022   2.544  17.408   8.789 -0.3693  0.0417  0.2114
  564loPI   C3B 9023   2.420  17.506   8.358 -0.3106  0.0706  0.1228
  564loPI   C4B 9024   2.228  17.517   7.943  0.2207  0.1015 -0.1024
  565loPI    C1 9025  11.886  15.311  10.278 -0.0357 -0.2359  0.0342
  565loPI    C2 9026  11.621  15.289  10.577 -0.2057  0.0025 -0.0951
  565loPI    C3 9027  11.966  15.087  10.600 -0.1656  0.1080  0.3124
  565loPI   PO4 9028  11.746  15.501  10.094  0.1670 -0.3253 -0.0057
  565loPI   GL1 9029  11.589  15.584   9.584  0.3194 -0.0480  0.2715
  565loPI   GL2 9030  11.509  15.319   9.282  0.0837  0.0632  0.1054
  565loPI   C1A 9031  11.548  15.737   9.063  0.0375 -0.2676  0.1027
  565loPI   C2A 9032  11.698  15.668   8.652  0.0151 -0.0056 -0.2612
  565loPI   C3A 9033  11.983  15.742   8.363 -0.0125 -0.0965  0.0112
  565loPI   C4A 9034  12.287  15.445   8.284 -0.1587 -0.0477  0.2914
  565loPI   C5A 9035  12.344  15.029   8.143  0.0025  0.0064  0.0060
  565loPI   C6A 9036  12.190  14.933   7.652 -0.1061 -0.5370  0.1452
  565loPI   C1B 9037  11.389  15.226   8.926 -0.1609 -0.1550  0.1066
  565loPI   C2B 9038  11.413  15.292   8.526  0.3864 -0.4123 -0.1299
  565loPI   C3B 9039  11.453  15.619   8.202 -0.3844  0.3123 -0.0598
  565loPI   C4B 9040  11.569  15.644   7.795 -0.1723 -0.1651 -0.0069
  566loPI    C1 9041   2.069   1.900  10.295 -0.1977  0.2267 -0.0138
  566loPI    C2 9042   2.449   1.832  10.187 -0.2289  0.1179 -0.0565
  566loPI    C3 9043   2.352   1.855  10.574 -0.2014  0.0103 -0.0430
  566loPI   PO4 9044   1.974   1.992  10.169  0.0394 -0.0193  0.1877
  566loPI   GL1 9045   2.012   2.016   9.764  0.0203  0.0299  0.0839
  566loPI   GL2 9046   1.713   2.020   9.697 -0.0263  0.1004  0.1904
  566loPI   C1A 9047   1.982   2.338   9.488 -0.0573  0.0490 -0.1839
  566loPI   C2A 9048   1.815   2.348   9.079 -0.0442  0.0135  0.1624
  566loPI   C3A 9049   1.752   2.334   8.653 -0.0250  0.4342  0.2349
  566loPI   C4A 9050   1.626   2.301   8.252 -0.0987 -0.0486  0.1034
  566loPI   C5A 9051   1.730   2.372   7.844  0.1733 -0.1216 -0.0023
  566loPI   C6A 9052   2.245   2.525   7.793 -0.0036  0.5194 -0.2240
  566loPI   C1B 9053   1.642   1.934   9.351 -0.0941 -0.3268 -0.1516
  566loPI   C2B 9054   1.529   1.935   8.950  0.1323  0.0196 -0.1075
  566loPI   C3B 9055   1.456   1.889   8.539  0.3658  0.0239 -0.0369
  566loPI   C4B 9056   1.477   1.888   8.018 -0.0708  0.2147 -0.0536
  567loPI    C1 9057   7.619  16.734  10.147 -0.3249 -0.0558 -0.0910
  567loPI    C2 9058   7.669  16.778  10.542 -0.1176  0.0393 -0.1262
  567loPI    C3 9059   7.528  17.082  10.323 -0.0307  0.0579 -0.1571
  567loPI   PO4 9060   7.842  16.671  10.040 -0.1530  0.0758  0.0809
  567loPI   GL1 9061   8.099  16.513   9.563 -0.2907  0.1131 -0.4131
  567loPI   GL2 9062   7.841  16.561   9.572 -0.0551  0.3796  0.3851
  567loPI   C1A 9063   8.194  16.357   9.216  0.2354  0.0442 -0.3756
  567loPI   C2A 9064   8.079  16.212   8.853  0.0008 -0.1318  0.1556
  567loPI   C3A 9065   8.110  16.088   8.464 -0.1737 -0.0882  0.2924
  567loPI   C4A 9066   8.046  16.157   8.121  0.0589  0.1619  0.0217
  567loPI   C5A 9067   8.024  15.752   7.836 -0.0313 -0.1646 -0.0615
  567loPI   C6A 9068   7.882  15.561   7.436  0.0251 -0.3441  0.0511
  567loPI   C1B 9069   7.723  16.605   9.066  0.2506 -0.1730  0.1111
  567loPI   C2B 9070   7.760  16.485   8.566  0.2786  0.3210 -0.1330
  567loPI   C3B 9071   7.836  16.608   8.104  0.2595 -0.1542  0.0930
  567loPI   C4B 9072   7.816  16.967   7.849  0.1278  0.2948 -0.2399
  568loPI    C1 9073   6.457  18.342  10.513  0.1996 -0.1800 -0.0784
  568loPI    C2 9074   6.292  18.477  10.852  0.1081 -0.3124 -0.0696
  568loPI    C3 9075   6.638  18.275  10.864  0.2413 -0.0877 -0.0820
  568loPI   PO4 9076   6.296  18.112  10.409  0.1498  0.1581  0.0967
  568loPI   GL1 9077   6.034  18.107  10.060  0.1392  0.0681 -0.1357
  568loPI   GL2 9078   6.063  17.786  10.188  0.0229 -0.3163 -0.0967
  568loPI   C1A 9079   6.078  18.269   9.634 -0.0023  0.0855  0.1488
  568loPI   C2A 9080   5.955  18.230   9.138  0.2418 -0.2523 -0.0317
  568loPI   C3A 9081   5.999  18.178   8.690 -0.1560 -0.0548  0.1116
  568loPI   C4A 9082   5.881  18.289   8.297 -0.0364  0.0313 -0.4335
  568loPI   C5A 9083   6.205  18.153   8.011 -0.0132  0.1239 -0.2095
  568loPI   C6A 9084   6.595  18.225   7.912 -0.2768 -0.0333 -0.3136
  568loPI   C1B 9085   6.170  17.737   9.707 -0.1923  0.2303  0.0545
  568loPI   C2B 9086   6.113  17.727   9.278  0.0840 -0.2638  0.1103
  568loPI   C3B 9087   6.187  17.756   8.857 -0.0390 -0.0193  0.1434
  568loPI   C4B 9088   6.037  17.738   8.406 -0.0161 -0.3143  0.0038
  569loPI    C1 9089   8.928   8.552  10.421 -0.1907 -0.2584 -0.2000
  569loPI    C2 9090   9.207   8.646  10.691 -0.2116  0.2234 -0.3369
  569loPI    C3 9091   9.110   8.263  10.629  0.2091  0.0682 -0.0827
  569loPI   PO4 9092   9.002   8.715  10.228  0.0312 -0.0776 -0.0995
  569loPI   GL1 9093   8.942   9.090   9.956  0.1514 -0.1597  0.1498
  569loPI   GL2 9094   8.703   9.360   9.830 -0.1175 -0.0256 -0.2865
  569loPI   C1A 9095   8.858   8.984   9.527 -0.1907 -0.3242  0.3612
  569loPI   C2A 9096   8.805   8.938   9.103 -0.3844  0.2947  0.3081
  569loPI   C3A 9097   8.794   8.879   8.721  0.3256  0.0652 -0.0244
  569loPI   C4A 9098   8.636   8.791   8.332 -0.1375  0.0593  0.0168
  569loPI   C5A 9099   8.586   8.864   7.897 -0.1837  0.1023 -0.1457
  569loPI   C6A 9100   8.239   8.553   7.795  0.0088  0.2200 -0.0574
  569loPI   C1B 9101   8.670   9.453   9.361 -0.1451  0.0363 -0.1972
  569loPI   C2B 9102   8.666   9.499   8.962 -0.3403 -0.1741  0.1207
  569loPI   C3B 9103   8.698   9.302   8.596  0.5604 -0.0100 -0.0358
  569loPI   C4B 9104   8.693   9.339   8.153  0.2784 -0.0552  0.0050
  570loPI    C1 9105  17.650   3.550  11.288  0.1195  0.1827  0.0512
  570loPI    C2 9106  17.326   3.693  11.474 -0.0469 -0.1937  0.0596
  570loPI    C3 9107  17.480   3.340  11.583  0.0848 -0.2380 -0.2596
  570loPI   PO4 9108  17.495   3.510  11.040  0.4869  0.1031 -0.1523
  570loPI   GL1 9109  17.428   3.672  10.707 -0.1001 -0.0760 -0.2876
  570loPI   GL2 9110  17.477   3.322  10.427  0.0303  0.2050 -0.0430
  570loPI   C1A 9111  17.403   3.783  10.209 -0.0736  0.3256 -0.0230
  570loPI   C2A 9112  17.359   3.682   9.751 -0.1399  0.3676 -0.1287
  570loPI   C3A 9113  17.467   3.874   9.350 -0.1693  0.1298  0.2597
  570loPI   C4A 9114  17.453   3.844   8.893  0.0397  0.1315 -0.0709
  570loPI   C5A 9115  17.360   3.754   8.510 -0.0124  0.1867  0.1598
  570loPI   C6A 9116  17.257   4.110   8.220 -0.1422 -0.2123  0.3245
  570loPI   C1B 9117  17.143   3.329  10.079  0.2527 -0.2077  0.2299
  570loPI   C2B 9118  17.068   3.092   9.736  0.1022 -0.2095 -0.1111
  570loPI   C3B 9119  17.180   3.341   9.392  0.0154  0.1559 -0.1506
  570loPI   C4B 9120  17.224   3.414   8.967  0.1820  0.0039 -0.3332
  571loPI    C1 9121  17.947  10.188  10.979  0.0208 -0.0738 -0.2898
  571loPI    C2 9122  18.192  10.496  11.050 -0.1148  0.0327 -0.2785
  571loPI    C3 9123  18.088  10.251  11.348 -0.0630  0.0170 -0.2731
  571loPI   PO4 9124  18.041  10.046  10.820 -0.0414 -0.0993  0.1453
  571loPI   GL1 9125  18.004   9.919  10.526 -0.1798  0.1694  0.1777
  571loPI   GL2 9126  18.207   9.852  10.360 -0.2773 -0.2845  0.1056
  571loPI   C1A 9127  17.823   9.719  10.057  0.0816 -0.1741 -0.0945
  571loPI   C2A 9128  17.823   9.705   9.702  0.4306  0.0081 -0.0113
  571loPI   C3A 9129  17.932   9.779   9.417 -0.3046  0.3420 -0.0710
  571loPI   C4A 9130  17.785   9.664   8.936  0.1660 -0.0101 -0.1532
  571loPI   C5A 9131  17.969   9.674   8.549 -0.1343 -0.1300  0.0794
  571loPI   C6A 9132  18.045   9.613   8.108  0.0861 -0.2737  0.1869
  571loPI   C1B 9133  18.529   9.709  10.184  0.1351  0.0604 -0.1983
  571loPI   C2B 9134  18.473   9.623   9.774 -0.1224 -0.0505 -0.2297
  571loPI   C3B 9135  18.422   9.693   9.371 -0.0420  0.1883 -0.0785
  571loPI   C4B 9136  18.345   9.616   8.900  0.1499 -0.2870  0.1029
  572loPI    C1 9137  17.859   9.163  11.171  0.1209 -0.1619 -0.3340
  572loPI    C2 9138  18.242   9.057  11.130  0.2186 -0.0167  0.1396
  572loPI    C3 9139  18.143   9.358  11.374 -0.2115 -0.1487  0.1357
  572loPI   PO4 9140  17.781   9.146  10.805 -0.0603  0.4452  0.0060
  572loPI   GL1 9141  17.715   9.340  10.452 -0.1099  0.2766 -0.1592
  572loPI   GL2 9142  18.029   9.399  10.358  0.3353 -0.0758 -0.0135
  572loPI   C1A 9143  17.571   9.308  10.076 -0.1600 -0.0177 -0.1405
  572loPI   C2A 9144  17.578   9.312   9.636 -0.0439  0.0712 -0.3800
  572loPI   C3A 9145  17.661   9.293   9.218  0.1130  0.1460  0.0661
  572loPI   C4A 9146  17.641   9.197   8.699  0.1117  0.0813  0.0081
  572loPI   C5A 9147  17.686   9.360   8.338  0.2520 -0.0750 -0.0249
  572loPI   C6A 9148  17.791   9.195   7.904  0.0992 -0.0596  0.0739
  572loPI   C1B 9149  18.114   9.336   9.955 -0.2951  0.0964  0.3601
  572loPI   C2B 9150  18.169   9.281   9.509  0.0195  0.0622  0.0615
  572loPI   C3B 9151  18.073   9.162   8.960  0.0010  0.1789 -0.2551
  572loPI   C4B 9152  18.109   9.183   8.556 -0.5455  0.1157  0.0285
  573POPI    C1 9153   9.622  13.476  10.226  0.0223 -0.1377  0.1382
  573POPI    C2 9154   9.836  13.486   9.888 -0.0993 -0.3049  0.0547
  573POPI    C3 9155   9.889  13.768  10.166  0.1387 -0.2738 -0.0197
  573POPI   PO4 9156   9.389  13.440  10.143 -0.1773 -0.0993 -0.0461
  573POPI   GL1 9157   9.211  13.450   9.731 -0.1567  0.1460  0.2380
  573POPI   GL2 9158   9.255  13.204   9.427  0.3281  0.3691 -0.2729
  573POPI   C1A 9159   9.535  13.626   9.524  0.1838 -0.0871  0.0908
  573POPI   D2A 9160   9.749  13.981   9.335  0.2580 -0.2820 -0.1642
  573POPI   C3A 9161   9.840  13.880   8.890  0.0925  0.2554 -0.0267
  573POPI   C4A 9162  10.041  13.906   8.585 -0.0849 -0.1964  0.0454
  573POPI   C1B 9163   9.433  13.209   9.078 -0.1531  0.0217 -0.4281
  573POPI   C2B 9164   9.571  13.014   8.679 -0.2016  0.1107  0.2469
  573POPI   C3B 9165   9.569  12.620   8.385  0.0478 -0.2790  0.0392
  573POPI   C4B 9166   9.597  12.354   8.019  0.2647 -0.0635  0.0691
  574POPI    C1 9167  10.015   4.324  10.387  0.0925 -0.0192  0.3851
  574POPI    C2 9168   9.835   4.022  10.579 -0.1211 -0.0567  0.1306
  574POPI    C3 9169   9.651   4.376  10.544 -0.0442 -0.0216  0.0758
  574POPI   PO4 9170  10.013   4.144  10.127 -0.1575 -0.2898  0.0603
  574POPI   GL1 9171   9.769   4.162   9.717  0.0370  0.1901 -0.0825
  574POPI   GL2 9172   9.743   3.896   9.539 -0.1734  0.0806  0.0678
  574POPI   C1A 9173   9.695   4.493   9.360  0.1562 -0.4705  0.0847
  574POPI   D2A 9174   9.598   4.628   8.962 -0.0531  0.1164  0.4516
  574POPI   C3A 9175   9.288   4.579   8.588 -0.1820  0.1248  0.1524
  574POPI   C4A 9176   8.966   4.734   8.480 -0.5333  0.0496 -0.0427
  574POPI   C1B 9177   9.908   4.026   9.169  0.0387  0.2315 -0.0822
  574POPI   C2B 9178   9.977   4.120   8.906 -0.2103  0.1876 -0.3050
  574POPI   C3B 9179   9.952   4.441   8.743 -0.1367 -0.2282  0.0108
  574POPI   C4B 9180   9.820   4.710   8.433 -0.1945  0.4789 -0.0635
  575POPI    C1 9181   7.913   9.721  10.699  0.0237 -0.2160 -0.2101
  575POPI    C2 9182   8.202   9.663  10.969  0.0309 -0.0176 -0.1734
  575POPI    C3 9183   7.894   9.408  10.948 -0.0901  0.0934  0.1813
  575POPI   PO4 9184   8.041   9.682  10.314  0.1015 -0.2552 -0.2472
  575POPI   GL1 9185   8.032   9.699   9.831  0.2495  0.2216 -0.1683
  575POPI   GL2 9186   8.313   9.603   9.647  0.0322  0.3605  0.0548
  575POPI   C1A 9187   7.905   9.833   9.387  0.3848 -0.0842 -0.0219
  575POPI   D2A 9188   7.760   9.793   8.969  0.1618  0.2408 -0.1058
  575POPI   C3A 9189   7.851   9.871   8.562 -0.1405 -0.0326 -0.1451
  575POPI   C4A 9190   7.802  10.001   8.156  0.0594  0.1719  0.2246
  575POPI   C1B 9191   8.227   9.494   9.181 -0.0049  0.2855  0.1117
  575POPI   C2B 9192   8.222   9.535   8.705  0.2448 -0.6825 -0.2012
  575POPI   C3B 9193   8.240   9.522   8.272  0.2003 -0.0858 -0.0296
  575POPI   C4B 9194   8.259   9.871   7.964  0.0583  0.1040 -0.0940
  576POPI    C1 9195   6.074  10.965  10.076 -0.0994 -0.0499  0.1717
  576POPI    C2 9196   6.231  11.302  10.225 -0.2704  0.0611  0.1038
  576POPI    C3 9197   6.055  11.038  10.469 -0.2782  0.0970  0.1371
  576POPI   PO4 9198   6.212  10.928   9.794  0.2039 -0.1414 -0.2152
  576POPI   GL1 9199   6.222  11.107   9.414  0.0931 -0.0050  0.0614
  576POPI   GL2 9200   5.927  11.187   9.456 -0.0427 -0.1691  0.2460
  576POPI   C1A 9201   6.266  11.014   8.944  0.3890 -0.1124  0.0138
  576POPI   D2A 9202   6.142  10.819   8.618 -0.2930 -0.0257  0.2016
  576POPI   C3A 9203   6.236  10.592   8.268  0.5038 -0.1315  0.1951
  576POPI   C4A 9204   6.418  10.230   8.040  0.0974  0.2969 -0.0675
  576POPI   C1B 9205   5.692  11.075   9.059 -0.1750 -0.0516 -0.0022
  576POPI   C2B 9206   5.635  10.937   8.648 -0.1151  0.1418 -0.0071
  576POPI   C3B 9207   5.742  10.837   8.293 -0.1397 -0.3144  0.2920
  576POPI   C4B 9208   5.923  10.660   7.936  0.1103 -0.2822  0.0271
  577POPI    C1 9209   7.848   3.244   9.925 -0.0916  0.0706 -0.3598
  577POPI    C2 9210   8.209   3.148  10.069 -0.2311 -0.1043 -0.1190
  577POPI    C3 9211   8.156   3.493   9.874  0.0275  0.0017 -0.0060
  577POPI   PO4 9212   7.785   3.038   9.790  0.1902 -0.1643 -0.4877
  577POPI   GL1 9213   7.727   2.865   9.397  0.1631  0.0529  0.3670
  577POPI   GL2 9214   7.517   2.721   9.458 -0.2772 -0.1067  0.1693
  577POPI   C1A 9215   7.591   2.830   8.921 -0.0477  0.0693 -0.1511
  577POPI   D2A 9216   7.866   2.879   8.645 -0.0376 -0.3945  0.1681
  577POPI   C3A 9217   8.026   3.228   8.617 -0.0351  0.1431  0.0581
  577POPI   C4A 9218   8.435   3.228   8.441 -0.2570  0.0806 -0.0099
  577POPI   C1B 9219   7.417   2.366   9.219 -0.0137  0.3608  0.0810
  577POPI   C2B 9220   7.440   2.359   8.843 -0.2673 -0.1141 -0.3322
  577POPI   C3B 9221   7.678   2.426   8.504 -0.0241 -0.1110 -0.0200
  577POPI   C4B 9222   7.878   2.516   8.293 -0.2493  0.1433 -0.0647
  578POPI    C1 9223   8.548   4.935  10.248 -0.0413 -0.0463 -0.0372
  578POPI    C2 9224   8.808   4.747  10.487 -0.0721 -0.1560 -0.0894
  578POPI    C3 9225   8.415   4.718  10.557 -0.0723 -0.0203 -0.0323
  578POPI   PO4 9226   8.585   4.870   9.999 -0.3326 -0.1293 -0.2823
  578POPI   GL1 9227   8.408   4.605   9.735  0.1880  0.3211  0.2026
  578POPI   GL2 9228   8.533   4.279   9.614  0.1997  0.2842 -0.3475
  578POPI   C1A 9229   8.624   4.727   9.368  0.1183 -0.1466 -0.0105
  578POPI   D2A 9230   8.275   4.826   9.164  0.3472  0.4585 -0.1232
  578POPI   C3A 9231   8.110   4.730   8.815  0.0392  0.1829  0.3160
  578POPI   C4A 9232   7.996   5.076   8.574 -0.0161  0.0596 -0.0012
  578POPI   C1B 9233   8.321   4.359   9.298  0.3710 -0.2465 -0.1804
  578POPI   C2B 9234   8.112   4.226   8.936  0.4131  0.0611 -0.2860
  578POPI   C3B 9235   8.041   4.150   8.436  0.0698 -0.1666 -0.2818
  578POPI   C4B 9236   7.988   4.251   7.983 -0.0345  0.1606  0.2179
  579POPI    C1 9237   2.400   4.850  10.759  0.0256 -0.0931 -0.1162
  579POPI    C2 9238   2.150   4.785  11.065  0.0798 -0.0836 -0.0699
  579POPI    C3 9239   2.357   4.481  10.908  0.1923 -0.0565  0.0247
  579POPI   PO4 9240   2.269   5.076  10.661 -0.0524  0.0370 -0.1476
  579POPI   GL1 9241   2.259   5.136  10.268 -0.2602 -0.0742 -0.1029
  579POPI   GL2 9242   2.078   4.990  10.127  0.0176 -0.3456 -0.3334
  579POPI   C1A 9243   2.476   5.076   9.851 -0.2297 -0.0387 -0.2234
  579POPI   D2A 9244   2.566   5.093   9.513  0.0902 -0.4822  0.1883
  579POPI   C3A 9245   2.633   5.119   9.123  0.2781 -0.1768 -0.0358
  579POPI   C4A 9246   2.705   5.133   8.748  0.0485  0.2162  0.4067
  579POPI   C1B 9247   2.006   5.105   9.757  0.0851 -0.1620  0.1035
  579POPI   C2B 9248   2.119   5.108   9.323  0.2383  0.0428 -0.3684
  579POPI   C3B 9249   2.194   5.032   8.873  0.0136  0.0717 -0.0944
  579POPI   C4B 9250   1.881   4.904   8.669  0.2590 -0.1484  0.0896
  580POPI    C1 9251   2.972   1.344  10.381  0.1895 -0.1028  0.0487
  580POPI    C2 9252   2.574   1.366  10.418  0.1815  0.0438 -0.1135
  580POPI    C3 9253   2.808   1.626  10.613  0.1826  0.1660 -0.2758
  580POPI   PO4 9254   3.032   1.235  10.122 -0.0364  0.1156 -0.2217
  580POPI   GL1 9255   3.219   1.256   9.657 -0.3311  0.1413 -0.1343
  580POPI   GL2 9256   2.940   1.065   9.618 -0.1693 -0.0442  0.2054
  580POPI   C1A 9257   3.225   1.589   9.387 -0.2082 -0.2843 -0.1789
  580POPI   D2A 9258   3.200   1.549   8.916  0.0716 -0.1599  0.0207
  580POPI   C3A 9259   3.122   1.806   8.634 -0.1074  0.1203 -0.0769
  580POPI   C4A 9260   3.198   1.805   8.198 -0.0765 -0.0641 -0.1211
  580POPI   C1B 9261   2.871   1.276   9.156  0.1766 -0.5557 -0.2889
  580POPI   C2B 9262   2.785   1.410   8.788  0.0985 -0.0685 -0.1003
  580POPI   C3B 9263   2.865   1.451   8.409  0.2229 -0.0434 -0.1641
  580POPI   C4B 9264   2.582   1.442   7.971 -0.0730 -0.0824  0.0362
  581POPI    C1 9265   9.072   3.172  10.211  0.2795  0.0245 -0.0985
  581POPI    C2 9266   9.348   3.263  10.486  0.0369  0.0213  0.1494
  581POPI    C3 9267   9.152   3.555  10.296  0.2087  0.0236 -0.0269
  581POPI   PO4 9268   9.153   3.019  10.034  0.1024 -0.0026  0.3884
  581POPI   GL1 9269   9.264   3.036   9.569  0.1494  0.0996 -0.2041
  581POPI   GL2 9270   9.108   3.176   9.343  0.0573  0.3441 -0.0560
  581POPI   C1A 9271   9.424   2.844   9.231  0.1960 -0.1735  0.2912
  581POPI   D2A 9272   9.320   2.567   8.886  0.2060 -0.1738  0.0596
  581POPI   C3A 9273   9.324   2.797   8.538  0.0229 -0.0011  0.2801
  581POPI   C4A 9274   9.234   3.163   8.327 -0.0208 -0.0603  0.1000
  581POPI   C1B 9275   9.359   3.201   8.901  0.0235 -0.0962  0.4609
  581POPI   C2B 9276   9.708   3.246   8.495 -0.0430 -0.4985  0.3175
  581POPI   C3B 9277   9.601   3.314   8.048  0.2367  0.0710 -0.0029
  581POPI   C4B 9278   9.185   3.403   7.863 -0.4992 -0.0651 -0.1599
  582POPI    C1 9279   6.468   6.377  10.812  0.0060 -0.1069  0.1345
  582POPI    C2 9280   6.861   6.317  10.852  0.0137 -0.3386 -0.2377
  582POPI    C3 9281   6.712   6.688  10.866  0.2468 -0.2476 -0.1179
  582POPI   PO4 9282   6.426   6.268  10.542 -0.0139 -0.1552 -0.1137
  582POPI   GL1 9283   6.379   6.388  10.027  0.2390 -0.1120 -0.0924
  582POPI   GL2 9284   6.567   6.076  10.055 -0.0616  0.3687 -0.3592
  582POPI   C1A 9285   6.444   6.211   9.571  0.3153 -0.4816 -0.0368
  582POPI   D2A 9286   6.439   6.344   9.198 -0.1212  0.0348  0.0049
  582POPI   C3A 9287   6.425   6.133   8.744 -0.0667 -0.0143 -0.0966
  582POPI   C4A 9288   6.609   5.959   8.430  0.0304 -0.1619  0.0653
  582POPI   C1B 9289   6.802   5.924   9.517 -0.0604  0.4393 -0.0432
  582POPI   C2B 9290   6.817   5.961   8.966  0.2632  0.1548 -0.0114
  582POPI   C3B 9291   6.950   6.218   8.662 -0.0020 -0.0996 -0.1995
  582POPI   C4B 9292   7.113   6.300   8.270  0.2945 -0.0518 -0.0827
  583POPI    C1 9293   4.394  13.490  10.474  0.1654  0.1388 -0.0860
  583POPI    C2 9294   4.136  13.232  10.311  0.3210 -0.0648 -0.0154
  583POPI    C3 9295   4.007  13.505  10.573  0.1300  0.0303 -0.2053
  583POPI   PO4 9296   4.539  13.557  10.246  0.1659  0.3888 -0.0276
  583POPI   GL1 9297   4.786  13.401   9.783  0.1563 -0.0856 -0.1000
  583POPI   GL2 9298   5.070  13.313   9.588  0.0032  0.0264  0.0701
  583POPI   C1A 9299   4.569  13.585   9.485 -0.3677  0.1199  0.0617
  583POPI   D2A 9300   4.542  13.730   9.015 -0.2802 -0.1074  0.3284
  583POPI   C3A 9301   4.537  13.560   8.499 -0.1639 -0.1471 -0.1290
  583POPI   C4A 9302   4.446  13.876   8.131 -0.0524 -0.1416 -0.1103
  583POPI   C1B 9303   4.894  13.361   9.191 -0.0144 -0.0351 -0.0641
  583POPI   C2B 9304   4.876  13.309   8.802 -0.2098 -0.3683 -0.0950
  583POPI   C3B 9305   4.768  13.175   8.368 -0.2166  0.1829  0.0182
  583POPI   C4B 9306   4.600  13.397   7.978  0.0322  0.0772  0.3057
  584POPI    C1 9307   2.592   9.036  10.641  0.1152 -0.1711  0.0742
  584POPI    C2 9308   2.888   8.854  10.443  0.0888 -0.0461 -0.0826
  584POPI    C3 9309   2.854   8.807  10.839  0.1374 -0.3051 -0.1069
  584POPI   PO4 9310   2.430   9.082  10.418  0.2394 -0.0163  0.0501
  584POPI   GL1 9311   2.510   9.180  10.087 -0.0894  0.0185 -0.3192
  584POPI   GL2 9312   2.866   9.264  10.126 -0.1054 -0.3202 -0.4373
  584POPI   C1A 9313   2.405   9.193   9.730  0.1319  0.2230 -0.0883
  584POPI   D2A 9314   2.440   9.189   9.301 -0.1173  0.0399  0.1127
  584POPI   C3A 9315   2.237   9.202   8.923 -0.2773  0.0629 -0.1461
  584POPI   C4A 9316   2.309   9.120   8.575  0.0210 -0.2976 -0.3262
  584POPI   C1B 9317   2.935   9.211   9.697 -0.0745  0.1874 -0.0125
  584POPI   C2B 9318   3.083   9.256   9.336  0.1889  0.1881 -0.0004
  584POPI   C3B 9319   2.950   9.226   8.832 -0.1012 -0.0896  0.0298
  584POPI   C4B 9320   2.848   9.175   8.424 -0.0120  0.0270 -0.0095
  585POPI    C1 9321   5.984  14.494  10.047  0.1006  0.0915 -0.1023
  585POPI    C2 9322   5.989  14.285  10.388  0.0190  0.1391 -0.0715
  585POPI    C3 9323   5.692  14.544  10.316  0.0592  0.1615 -0.1596
  585POPI   PO4 9324   5.937  14.354   9.840 -0.1069  0.2091  0.3313
  585POPI   GL1 9325   5.821  14.303   9.389  0.0060  0.3222 -0.1356
  585POPI   GL2 9326   5.706  14.032   9.581 -0.3273 -0.0837  0.0719
  585POPI   C1A 9327   5.652  14.183   8.944 -0.2563 -0.0302 -0.2072
  585POPI   D2A 9328   5.504  14.277   8.606 -0.0766  0.1263  0.4845
  585POPI   C3A 9329   5.173  14.235   8.363 -0.0531 -0.0199  0.2008
  585POPI   C4A 9330   4.772  14.037   8.517  0.1870  0.0600 -0.1060
  585POPI   C1B 9331   5.986  13.921   9.175 -0.1661  0.3619 -0.2362
  585POPI   C2B 9332   6.161  14.103   8.905 -0.2047 -0.0740 -0.0104
  585POPI   C3B 9333   6.075  14.105   8.530  0.2791  0.1568 -0.0009
  585POPI   C4B 9334   6.193  14.106   8.101 -0.2190  0.2759  0.0278
  586POPI    C1 9335  13.743  16.627  10.136 -0.0094 -0.0979 -0.0277
  586POPI    C2 9336  13.599  16.980  10.256  0.2206 -0.0401  0.0836
  586POPI    C3 9337  13.492  16.645  10.447 -0.1011 -0.0487 -0.1039
  586POPI   PO4 9338  13.693  16.623   9.859  0.4426 -0.1829 -0.2792
  586POPI   GL1 9339  13.769  16.793   9.484 -0.2555  0.0269  0.0263
  586POPI   GL2 9340  13.968  16.894   9.325  0.1724 -0.1276  0.1757
  586POPI   C1A 9341  13.572  16.756   9.020 -0.1637 -0.1128  0.3465
  586POPI   D2A 9342  13.641  16.739   8.672 -0.2503 -0.1349 -0.0328
  586POPI   C3A 9343  13.493  16.729   8.286  0.4247  0.0045 -0.0192
  586POPI   C4A 9344  13.341  16.620   7.940  0.1156  0.0981  0.2075
  586POPI   C1B 9345  14.094  16.916   8.869  0.0160 -0.3684 -0.2786
  586POPI   C2B 9346  14.158  16.785   8.486  0.1204 -0.4683  0.1892
  586POPI   C3B 9347  14.225  16.662   8.069 -0.0280 -0.0420  0.2533
  586POPI   C4B 9348  14.113  16.903   7.752 -0.4696 -0.0722 -0.0513
  587POPI    C1 9349   1.880  13.762  10.620 -0.1862 -0.1804 -0.0799
  587POPI    C2 9350   2.159  13.494  10.720  0.1087  0.1516  0.0065
  587POPI    C3 9351   2.031  13.760  10.990 -0.2824  0.0156 -0.0379
  587POPI   PO4 9352   2.001  13.855  10.346  0.0701 -0.0959  0.1648
  587POPI   GL1 9353   1.814  14.014  10.051 -0.0408 -0.0233  0.2510
  587POPI   GL2 9354   1.737  14.333   9.943 -0.0107  0.1326  0.0968
  587POPI   C1A 9355   1.881  13.930   9.653  0.1470  0.2050  0.2911
  587POPI   D2A 9356   1.893  13.744   9.409 -0.0667 -0.1435  0.0235
  587POPI   C3A 9357   1.954  13.833   8.964  0.0345  0.1967  0.0343
  587POPI   C4A 9358   1.849  13.695   8.533 -0.3259 -0.0159  0.0613
  587POPI   C1B 9359   1.633  14.351   9.464 -0.4100 -0.1057 -0.0428
  587POPI   C2B 9360   1.705  14.243   9.137 -0.0537  0.1554  0.0012
  587POPI   C3B 9361   1.696  14.248   8.749  0.1306 -0.0197  0.2216
  587POPI   C4B 9362   1.654  14.373   8.276  0.0541  0.0529 -0.3831
  588DPPI    C1 9363   6.717   3.463  10.268 -0.3377  0.0521 -0.1045
  588DPPI    C2 9364   6.697   3.284  10.625  0.0331  0.1659 -0.0226
  588DPPI    C3 9365   6.957   3.155  10.350 -0.2577  0.0719 -0.2598
  588DPPI   PO4 9366   6.447   3.485  10.253 -0.3238 -0.0053  0.3173
  588DPPI   GL1 9367   6.111   3.684   9.974  0.0271 -0.0661  0.2101
  588DPPI   GL2 9368   6.204   4.010   9.951 -0.2099 -0.3591  0.2811
  588DPPI   C1A 9369   6.174   3.576   9.456 -0.0393  0.2953  0.2258
  588DPPI   C2A 9370   6.278   3.324   9.190 -0.1299  0.2366  0.0313
  588DPPI   C3A 9371   6.235   3.121   8.808  0.4174 -0.1593 -0.0287
  588DPPI   C4A 9372   6.270   3.104   8.414 -0.0171 -0.1364 -0.1999
  588DPPI   C1B 9373   6.354   4.134   9.556  0.3256  0.1185 -0.2572
  588DPPI   C2B 9374   6.235   4.313   9.217 -0.0922  0.2450 -0.0755
  588DPPI   C3B 9375   6.400   4.521   8.789 -0.1269  0.0231  0.1269
  588DPPI   C4B 9376   6.647   4.696   8.528 -0.1263 -0.0968  0.2998
  589DPPI    C1 9377   3.893  10.467  10.577  0.0011  0.0203 -0.1300
  589DPPI    C2 9378   3.815  10.710  10.885  0.1459 -0.0789 -0.0138
  589DPPI    C3 9379   3.656  10.343  10.874  0.0861 -0.0510 -0.0918
  589DPPI   PO4 9380   3.858  10.690  10.361 -0.0463 -0.1627  0.2127
  589DPPI   GL1 9381   3.874  10.731   9.870 -0.4781  0.1057  0.0889
  589DPPI   GL2 9382   3.657  10.884   9.638 -0.2707 -0.0627 -0.1293
  589DPPI   C1A 9383   3.911  10.496   9.534 -0.1508 -0.2002 -0.2087
  589DPPI   C2A 9384   3.826  10.520   9.135 -0.3692  0.3567  0.0380
  589DPPI   C3A 9385   3.694  10.493   8.785 -0.1107  0.0729 -0.0017
  589DPPI   C4A 9386   3.735  10.379   8.393 -0.0363  0.0644  0.0050
  589DPPI   C1B 9387   3.602  11.047   9.234  0.0659  0.0124  0.0078
  589DPPI   C2B 9388   3.510  10.958   8.975  0.0708  0.1072 -0.1818
  589DPPI   C3B 9389   3.324  10.907   8.580  0.1193  0.1537  0.2112
  589DPPI   C4B 9390   3.322  10.765   8.086  0.0300 -0.3245  0.1094
  590DPPI    C1 9391  15.790   7.341  11.021  0.0737  0.2271  0.1602
  590DPPI    C2 9392  15.933   7.030  11.228 -0.0722  0.0688  0.0266
  590DPPI    C3 9393  16.096   7.393  11.274  0.1591 -0.0439  0.1161
  590DPPI   PO4 9394  15.829   7.261  10.806  0.2027  0.0661 -0.4376
  590DPPI   GL1 9395  15.798   6.962  10.423  0.3437  0.0133 -0.0865
  590DPPI   GL2 9396  16.081   7.091  10.367 -0.1743  0.2619 -0.2291
  590DPPI   C1A 9397  15.691   7.090  10.010 -0.0546  0.0999  0.0079
  590DPPI   C2A 9398  15.868   7.181   9.655 -0.0024  0.1241  0.0120
  590DPPI   C3A 9399  15.819   6.995   9.191 -0.2211  0.3172  0.0406
  590DPPI   C4A 9400  15.879   6.996   8.791  0.2582  0.3144 -0.1348
  590DPPI   C1B 9401  16.228   7.006   9.992 -0.1559  0.1902 -0.0718
  590DPPI   C2B 9402  16.347   6.934   9.555 -0.2103 -0.3343 -0.0907
  590DPPI   C3B 9403  16.273   6.943   9.085 -0.2182  0.2794  0.4225
  590DPPI   C4B 9404  16.377   7.030   8.750  0.0432  0.0650  0.0403
  591DPPI    C1 9405   6.571   8.556  10.574 -0.1220 -0.1359  0.1181
  591DPPI    C2 9406   6.261   8.536  10.826 -0.1298  0.1319  0.1328
  591DPPI    C3 9407   6.599   8.339  10.909 -0.2470 -0.0502  0.1849
  591DPPI   PO4 9408   6.567   8.399  10.375  0.2606 -0.2562  0.1273
  591DPPI   GL1 9409   6.680   8.445   9.979  0.0253 -0.1915 -0.0466
  591DPPI   GL2 9410   6.401   8.637   9.928 -0.0519 -0.0431  0.0910
  591DPPI   C1A 9411   6.615   8.589   9.484 -0.0151 -0.0981 -0.0694
  591DPPI   C2A 9412   6.481   8.436   9.111 -0.2850 -0.3387 -0.0316
  591DPPI   C3A 9413   6.451   8.396   8.607  0.0303 -0.1058 -0.3437
  591DPPI   C4A 9414   6.412   8.293   8.203 -0.3872  0.0823  0.2106
  591DPPI   C1B 9415   6.154   8.500   9.599 -0.0079 -0.2878 -0.1865
  591DPPI   C2B 9416   6.000   8.473   9.215 -0.2034  0.0300 -0.0601
  591DPPI   C3B 9417   5.713   8.451   8.891  0.3008  0.1096 -0.0253
  591DPPI   C4B 9418   5.462   8.396   8.473 -0.0366 -0.1911  0.0094
  592DPPI    C1 9419   9.134  12.602  10.352  0.0826 -0.0746 -0.0998
  592DPPI    C2 9420   8.901  12.424  10.080 -0.0824 -0.0081 -0.0029
  592DPPI    C3 9421   8.851  12.345  10.469  0.0707 -0.0092  0.0168
  592DPPI   PO4 9422   9.335  12.594  10.261  0.0539 -0.1400 -0.1263
  592DPPI   GL1 9423   9.341  12.523   9.830 -0.2558  0.1986  0.2670
  592DPPI   GL2 9424   9.609  12.598   9.623 -0.0681 -0.1516 -0.0119
  592DPPI   C1A 9425   9.318  12.262   9.391 -0.0994 -0.0461  0.0087
  592DPPI   C2A 9426   9.065  12.308   8.966  0.0178 -0.3954  0.1953
  592DPPI   C3A 9427   9.182  12.219   8.552 -0.3990  0.1041  0.2806
  592DPPI   C4A 9428   9.242  12.085   8.218  0.0997  0.1484  0.1080
  592DPPI   C1B 9429   9.973  12.439   9.299  0.1253 -0.0007 -0.0275
  592DPPI   C2B 9430  10.083  12.289   8.946  0.0977  0.0012 -0.3005
  592DPPI   C3B 9431  10.165  12.160   8.552  0.0466 -0.1486 -0.0977
  592DPPI   C4B 9432  10.148  12.148   8.152 -0.1594  0.1113  0.0144
  593DPPI    C1 9433   3.391  12.028  10.186  0.0854  0.0913  0.0978
  593DPPI    C2 9434   3.431  11.786  10.501 -0.0486 -0.0543  0.0043
  593DPPI    C3 9435   3.433  11.634  10.131 -0.0152  0.1016 -0.0602
  593DPPI   PO4 9436   3.151  12.137  10.226  0.2171 -0.2113  0.1268
  593DPPI   GL1 9437   2.965  12.297   9.922  0.3299 -0.0858  0.2368
  593DPPI   GL2 9438   2.933  11.902   9.874  0.0969  0.2558  0.3871
  593DPPI   C1A 9439   3.230  12.371   9.583  0.0493 -0.1557 -0.0620
  593DPPI   C2A 9440   3.213  12.378   9.070  0.1458  0.3239 -0.0370
  593DPPI   C3A 9441   3.151  12.307   8.733  0.2160 -0.0740  0.0402
  593DPPI   C4A 9442   3.099  12.306   8.359  0.0180  0.2220  0.2618
  593DPPI   C1B 9443   3.005  11.927   9.403 -0.0105 -0.1501 -0.2366
  593DPPI   C2B 9444   2.921  11.813   9.032 -0.1528 -0.0208  0.0524
  593DPPI   C3B 9445   2.934  11.902   8.592 -0.2019 -0.2323 -0.0468
  593DPPI   C4B 9446   2.810  11.782   8.139  0.1033  0.0015  0.1210
  594DPPI    C1 9447  15.282  12.208  10.469 -0.4131  0.0355  0.1896
  594DPPI    C2 9448  15.437  12.479  10.720  0.0231 -0.0091 -0.0229
  594DPPI    C3 9449  15.309  12.127  10.860  0.2171 -0.0142  0.1463
  594DPPI   PO4 9450  15.436  12.198  10.249  0.3822 -0.2371 -0.2551
  594DPPI   GL1 9451  15.546  12.368   9.877  0.0264  0.1177  0.0103
  594DPPI   GL2 9452  15.689  12.458   9.730  0.1127 -0.0533  0.0889
  594DPPI   C1A 9453  15.528  12.038   9.581 -0.2710 -0.0297 -0.0887
  594DPPI   C2A 9454  15.603  12.007   9.203  0.0568  0.0927 -0.0970
  594DPPI   C3A 9455  15.698  12.080   8.821 -0.4758 -0.0722  0.0446
  594DPPI   C4A 9456  15.741  12.043   8.323 -0.0587 -0.0541 -0.0426
  594DPPI   C1B 9457  15.749  12.507   9.275 -0.0591  0.0514 -0.1525
  594DPPI   C2B 9458  15.853  12.546   8.839 -0.1530  0.2893 -0.0070
  594DPPI   C3B 9459  16.008  12.567   8.369 -0.0144  0.2417  0.0682
  594DPPI   C4B 9460  16.133  12.479   7.977 -0.2376 -0.0003  0.0023
  595DPPI    C1 9461  16.136   0.289  10.685 -0.0817  0.0872 -0.0498
  595DPPI    C2 9462  15.980   0.100  11.002  0.3782 -0.0151  0.1249
  595DPPI    C3 9463  16.133   0.468  11.043  0.2453  0.0590 -0.0294
  595DPPI   PO4 9464  15.970   0.192  10.453  0.0025 -0.1810  0.0438
  595DPPI   GL1 9465  16.218   0.212  10.048  0.0506  0.0458 -0.2149
  595DPPI   GL2 9466  16.488   0.104  10.057 -0.0699  0.1481  0.1154
  595DPPI   C1A 9467  16.194   0.201   9.604 -0.0087  0.2126  0.1533
  595DPPI   C2A 9468  16.260   0.262   9.201 -0.0369  0.1796  0.0890
  595DPPI   C3A 9469  16.225   0.286   8.769 -0.0950  0.1793 -0.1249
  595DPPI   C4A 9470  16.318   0.265   8.370  0.0492  0.2515  0.1366
  595DPPI   C1B 9471  16.701   0.187   9.787  0.0149  0.0203 -0.1708
  595DPPI   C2B 9472  16.792   0.227   9.390 -0.0485 -0.1232  0.3635
  595DPPI   C3B 9473  16.737   0.196   9.048  0.0176  0.1414 -0.0596
  595DPPI   C4B 9474  16.779   0.195   8.589  0.1404 -0.1593 -0.3539
  596DPPI    C1 9475   4.162  11.074  10.380 -0.0875  0.0005  0.0916
  596DPPI    C2 9476   4.456  11.192  10.624  0.1345 -0.1173 -0.1150
  596DPPI    C3 9477   4.241  10.867  10.713 -0.0031  0.0266  0.0878
  596DPPI   PO4 9478   4.280  11.017  10.085  0.1517 -0.0660  0.2925
  596DPPI   GL1 9479   4.233  11.168   9.667  0.1437  0.0941 -0.0391
  596DPPI   GL2 9480   4.306  11.501   9.633 -0.3038 -0.3760  0.0114
  596DPPI   C1A 9481   4.115  10.922   9.310  0.0939 -0.2100 -0.2950
  596DPPI   C2A 9482   4.039  10.940   8.937  0.1390 -0.0490 -0.2029
  596DPPI   C3A 9483   3.973  10.872   8.525  0.2295  0.2989  0.1233
  596DPPI   C4A 9484   3.778  10.892   8.013  0.0132  0.0266 -0.1985
  596DPPI   C1B 9485   4.387  11.425   9.173  0.0204  0.3358  0.3794
  596DPPI   C2B 9486   4.331  11.305   8.659 -0.0520 -0.4932  0.0926
  596DPPI   C3B 9487   4.150  11.334   8.248  0.3128  0.2452 -0.1147
  596DPPI   C4B 9488   4.351  11.412   7.918  0.1770  0.1466  0.1529
  597PYPI    C1 9489   9.016   1.569  10.341 -0.2687 -0.1657 -0.0052
  597PYPI    C2 9490   9.349   1.673  10.537 -0.0048 -0.0642 -0.4914
  597PYPI    C3 9491   8.995   1.683  10.724  0.2579 -0.1631  0.0297
  597PYPI   PO4 9492   9.048   1.683  10.118  0.2043  0.1664  0.1146
  597PYPI   GL1 9493   9.036   1.643   9.679  0.1261 -0.0477 -0.0458
  597PYPI   GL2 9494   9.377   1.676   9.656 -0.0505 -0.3602  0.1366
  597PYPI   C1A 9495   9.123   1.543   9.238  0.2232  0.0789  0.1034
  597PYPI   C2A 9496   9.284   1.640   8.930  0.1387  0.1456 -0.1987
  597PYPI   D3A 9497   9.475   1.676   8.431 -0.2620 -0.1020  0.1560
  597PYPI   C4A 9498   9.663   1.241   8.256  0.0817 -0.3085  0.1239
  597PYPI   C1B 9499   9.622   1.781   9.274  0.1840  0.1873  0.3305
  597PYPI   C2B 9500   9.798   1.765   8.878 -0.0355  0.0761 -0.0890
  597PYPI   C3B 9501   9.950   1.482   8.602 -0.1107  0.0157  0.2502
  597PYPI   C4B 9502  10.252   1.311   8.367  0.3498 -0.2945 -0.1379
  598PYPI    C1 9503   9.169   0.014  10.272  0.0759  0.2743  0.1173
  598PYPI    C2 9504   9.173   0.164  10.643  0.0629  0.0360  0.2155
  598PYPI    C3 9505   9.435  -0.120  10.539 -0.0690 -0.0463  0.1048
  598PYPI   PO4 9506   9.124   0.228  10.133 -0.3006 -0.0294  0.1471
  598PYPI   GL1 9507   9.186   0.200   9.660  0.2690  0.2114 -0.2098
  598PYPI   GL2 9508   9.071  -0.126   9.767 -0.1585 -0.0499  0.0187
  598PYPI   C1A 9509   9.126   0.142   9.326  0.1607  0.3235 -0.2642
  598PYPI   C2A 9510   9.076   0.052   8.933 -0.0946 -0.1876 -0.4293
  598PYPI   D3A 9511   8.992  -0.003   8.561 -0.1131  0.1805  0.2756
  598PYPI   C4A 9512   8.655   0.130   8.185 -0.0206 -0.4638 -0.0056
  598PYPI   C1B 9513   8.958  -0.292   9.239 -0.0233  0.0538  0.0612
  598PYPI   C2B 9514   8.714  -0.346   8.946 -0.0749 -0.4071 -0.0790
  598PYPI   C3B 9515   8.650  -0.415   8.494  0.0638 -0.2178 -0.2020
  598PYPI   C4B 9516   8.710  -0.543   8.060 -0.1194 -0.3249 -0.0497
  599PYPI    C1 9517  18.300   8.102  10.736 -0.1221 -0.1011  0.2017
  599PYPI    C2 9518  18.599   8.045  10.476 -0.1838  0.2546  0.0472
  599PYPI    C3 9519  18.278   7.807  10.467 -0.1597  0.2288 -0.1664
  599PYPI   PO4 9520  18.278   8.373  10.722 -0.2171 -0.0562  0.1135
  599PYPI   GL1 9521  18.064   8.539  10.403  0.0371 -0.2516 -0.0384
  599PYPI   GL2 9522  18.237   8.340  10.224 -0.1126 -0.0068 -0.1744
  599PYPI   C1A 9523  17.855   8.883  10.128 -0.0822  0.0219 -0.4017
  599PYPI   C2A 9524  17.909   8.904   9.745 -0.1313 -0.0403  0.1292
  599PYPI   D3A 9525  17.862   8.844   9.300 -0.1441 -0.2108  0.0388
  599PYPI   C4A 9526  17.876   8.768   8.849  0.2314  0.0478  0.1436
  599PYPI   C1B 9527  18.145   8.433   9.795  0.0017 -0.3187  0.0443
  599PYPI   C2B 9528  18.123   8.401   9.369 -0.3546  0.0179 -0.1342
  599PYPI   C3B 9529  18.204   8.228   9.072 -0.1239  0.4054  0.0729
  599PYPI   C4B 9530  18.176   8.314   8.590 -0.1576  0.0018  0.0104
  600PYPI    C1 9531  15.409  10.778  10.726  0.0108  0.0333  0.0672
  600PYPI    C2 9532  15.741  10.868  10.931  0.0568  0.1741 -0.0668
  600PYPI    C3 9533  15.382  10.913  11.102  0.1062  0.0014  0.0859
  600PYPI   PO4 9534  15.573  10.736  10.486 -0.1142 -0.1830  0.3112
  600PYPI   GL1 9535  15.542  10.473  10.069  0.1310 -0.0447 -0.0075
  600PYPI   GL2 9536  15.203  10.735   9.976 -0.1004  0.0839  0.0440
  600PYPI   C1A 9537  15.517  10.378   9.679 -0.0216 -0.2225 -0.0123
  600PYPI   C2A 9538  15.555  10.277   9.252  0.4812  0.0359 -0.1174
  600PYPI   D3A 9539  15.643  10.227   8.773 -0.0144  0.1338 -0.1683
  600PYPI   C4A 9540  15.544  10.198   8.292  0.1880  0.0400  0.2989
  600PYPI   C1B 9541  15.315  10.789   9.501  0.2123 -0.0756 -0.0731
  600PYPI   C2B 9542  15.349  10.670   9.127  0.0343 -0.0456  0.3220
  600PYPI   C3B 9543  15.387  10.598   8.655  0.0227  0.0241  0.2188
  600PYPI   C4B 9544  15.563  10.702   8.267  0.1919 -0.1860 -0.0188
  601PYPI    C1 9545  13.626  17.597  10.252  0.1653 -0.1339  0.0278
  601PYPI    C2 9546  13.304  17.365  10.305  0.2553 -0.2682 -0.0063
  601PYPI    C3 9547  13.576  17.400  10.597  0.2182 -0.1678  0.0165
  601PYPI   PO4 9548  13.478  17.755  10.077  0.2167 -0.0901 -0.1374
  601PYPI   GL1 9549  13.214  17.943   9.797 -0.1850  0.0850 -0.1011
  601PYPI   GL2 9550  13.325  17.674   9.537  0.1386  0.0375 -0.1803
  601PYPI   C1A 9551  13.265  18.153   9.486 -0.2424 -0.1652  0.1210
  601PYPI   C2A 9552  13.315  18.232   9.026 -0.2274 -0.1120  0.2197
  601PYPI   D3A 9553  13.395  18.355   8.655  0.2009 -0.2899  0.0203
  601PYPI   C4A 9554  13.435  18.186   8.235  0.2116  0.2374  0.1985
  601PYPI   C1B 9555  13.566  17.715   9.265 -0.0595 -0.2249  0.5011
  601PYPI   C2B 9556  13.637  17.775   8.850 -0.0123 -0.0769 -0.1186
  601PYPI   C3B 9557  13.660  17.730   8.449  0.1726 -0.3427  0.1276
  601PYPI   C4B 9558  13.573  17.546   8.076  0.1627  0.0670 -0.0138
  602PYPI    C1 9559   2.434  13.290  10.374  0.0016 -0.2488 -0.2263
  602PYPI    C2 9560   2.298  13.021  10.112 -0.1775 -0.3307 -0.0518
  602PYPI    C3 9561   2.628  12.943  10.325 -0.2115 -0.3994 -0.0238
  602PYPI   PO4 9562   2.389  13.540  10.212  0.0914 -0.2829 -0.1097
  602PYPI   GL1 9563   2.133  13.616   9.900 -0.0590  0.1537 -0.2652
  602PYPI   GL2 9564   2.180  13.380   9.801  0.2428  0.2031  0.3272
  602PYPI   C1A 9565   2.398  13.839   9.514  0.0523  0.0070 -0.1703
  602PYPI   C2A 9566   2.436  13.893   9.147  0.0714  0.0135  0.2672
  602PYPI   D3A 9567   2.338  13.769   8.631  0.0884 -0.0232 -0.2069
  602PYPI   C4A 9568   2.382  13.592   8.291  0.1542 -0.2355  0.2439
  602PYPI   C1B 9569   2.262  13.382   9.368  0.0348  0.0707 -0.2464
  602PYPI   C2B 9570   2.188  13.324   8.975 -0.1978 -0.0331 -0.2449
  602PYPI   C3B 9571   2.198  13.268   8.624 -0.2308  0.1976  0.1058
  602PYPI   C4B 9572   2.181  13.160   8.256  0.1766 -0.2669  0.2934
  603ERGO   ROH 9573   5.143  12.785   9.445  0.2207  0.2715 -0.1972
  603ERGO    R1 9574   4.997  12.763   9.203  0.1135  0.1434 -0.1226
  603ERGO    R2 9575   5.047  12.923   8.984 -0.0213  0.0670 -0.2123
  603ERGO    R3 9576   5.071  12.684   8.856 -0.0292  0.0204 -0.1261
  603ERGO    R4 9577   5.047  12.882   8.641  0.0326 -0.0494 -0.1982
  603ERGO    R5 9578   4.925  12.703   8.667  0.0057 -0.0252 -0.1577
  603ERGO    C1 9579   5.069  12.634   8.321  0.0566 -0.1610 -0.1091
  603ERGO    C2 9580   5.262  12.559   8.122  0.0847 -0.0092 -0.1184
  604ERGO   ROH 9581   6.955   6.491   9.849 -0.1112 -0.1457  0.0142
  604ERGO    R1 9582   7.008   6.380   9.594  0.0641 -0.0697  0.0165
  604ERGO    R2 9583   6.854   6.439   9.371 -0.0013 -0.2771  0.0067
  604ERGO    R3 9584   7.095   6.507   9.264 -0.0819  0.0585  0.0256
  604ERGO    R4 9585   6.903   6.547   9.047 -0.1066 -0.3807 -0.0445
  604ERGO    R5 9586   7.084   6.427   9.039  0.0986 -0.0912  0.0672
  604ERGO    C1 9587   7.157   6.673   8.757 -0.2436 -0.1258 -0.0568
  604ERGO    C2 9588   7.102   6.741   8.433 -0.0182 -0.2366  0.0728
  605ERGO   ROH 9589  13.564   1.324   6.433 -0.0683 -0.2590 -0.1376
  605ERGO    R1 9590  13.402   1.252   6.653 -0.1529 -0.1039 -0.1482
  605ERGO    R2 9591  13.474   1.303   6.915 -0.0937 -0.2232 -0.1437
  605ERGO    R3 9592  13.232   1.425   6.924  0.0422  0.0543 -0.1229
  605ERGO    R4 9593  13.314   1.401   7.205 -0.2601 -0.6944 -0.0676
  605ERGO    R5 9594  13.126   1.332   7.118 -0.2676 -0.2760 -0.4307
  605ERGO    C1 9595  12.993   1.572   7.382 -0.2293 -0.7083 -0.0039
  605ERGO    C2 9596  12.807   1.763   7.565 -0.0951  0.1077  0.4299
  606ERGO   ROH 9597  13.985   3.814  10.295 -0.1692 -0.0862 -0.1701
  606ERGO    R1 9598  14.004   3.930  10.038 -0.2857 -0.1944 -0.2280
  606ERGO    R2 9599  14.245   4.000   9.923 -0.3601  0.0656 -0.2277
  606ERGO    R3 9600  14.158   3.843   9.720 -0.1240 -0.1581 -0.1614
  606ERGO    R4 9601  14.313   4.053   9.588 -0.4963  0.0752 -0.2543
  606ERGO    R5 9602  14.108   3.996   9.542 -0.4138 -0.2938 -0.2065
  606ERGO    C1 9603  14.271   3.936   9.203 -0.3539 -0.1293 -0.2077
  606ERGO    C2 9604  14.407   4.034   8.893  0.2856  0.0901  0.0672
  607ERGO   ROH 9605  17.988   7.382  10.362  0.3528  0.1288  0.0276
  607ERGO    R1 9606  18.106   7.463  10.118  0.4159 -0.0592 -0.0071
  607ERGO    R2 9607  18.243   7.288   9.953  0.0797 -0.2894 -0.0579
  607ERGO    R3 9608  18.069   7.380   9.766  0.1660  0.0075  0.0030
  607ERGO    R4 9609  18.288   7.265   9.611 -0.0067 -0.2086 -0.0748
  607ERGO    R5 9610  18.208   7.466   9.591  0.2454 -0.0985  0.0173
  607ERGO    C1 9611  18.151   7.337   9.237  0.0243  0.1171 -0.0274
  607ERGO    C2 9612  18.219   7.393   8.943  0.1192 -0.1924 -0.0151
  608ERGO   ROH 9613   1.944  10.865   9.648 -0.3490 -0.2686  0.0691
  608ERGO    R1 9614   1.831  10.949   9.403 -0.2853 -0.4036 -0.0068
  608ERGO    R2 9615   1.976  11.082   9.211 -0.3837  0.0571  0.2274
  608ERGO    R3 9616   1.887  10.882   9.049  0.2675 -0.0815  0.0088
  608ERGO    R4 9617   1.884  11.124   8.880 -0.5083  0.1209  0.2687
  608ERGO    R5 9618   1.717  10.987   8.915 -0.0822 -0.4778  0.1223
  608ERGO    C1 9619   1.747  10.960   8.536  0.0306  0.0281  0.0876
  608ERGO    C2 9620   1.627  11.019   8.178  0.1371  0.0817 -0.0343
  609ERGO   ROH 9621   2.035   4.027  10.207  0.2549 -0.1175  0.0598
  609ERGO    R1 9622   1.967   4.178   9.978  0.3739  0.1306  0.1843
  609ERGO    R2 9623   2.140   4.213   9.766  0.2446 -0.2222  0.0191
  609ERGO    R3 9624   1.932   4.115   9.621 -0.1580  0.3286  0.1907
  609ERGO    R4 9625   2.117   4.226   9.421  0.2263 -0.5363  0.0047
  609ERGO    R5 9626   1.904   4.273   9.443  0.3650  0.2453  0.0127
  609ERGO    C1 9627   1.907   4.142   9.084 -0.1624 -0.2021  0.1573
  609ERGO    C2 9628   1.959   4.099   8.751  0.2711  0.0570 -0.0127
  610ERGO   ROH 9629  12.634   0.955   8.095 -0.0161 -0.1916  0.0540
  610ERGO    R1 9630  12.716   0.790   8.309 -0.1143 -0.1277  0.1415
  610ERGO    R2 9631  12.887   0.878   8.507  0.0153 -0.1532  0.0403
  610ERGO    R3 9632  12.688   0.794   8.672 -0.0220  0.1355  0.1480
  610ERGO    R4 9633  12.931   0.784   8.837  0.0578 -0.1969  0.0226
  610ERGO    R5 9634  12.789   0.621   8.804 -0.1929 -0.0035  0.1029
  610ERGO    C1 9635  12.769   0.651   9.184  0.0475  0.0487  0.1134
  610ERGO    C2 9636  12.805   0.626   9.622 -0.0481 -0.1020 -0.3424
  611ERGO   ROH 9637   1.617  15.674   6.517 -0.0424  0.1561 -0.0557
  611ERGO    R1 9638   1.737  15.662   6.773  0.1496  0.3124 -0.1355
  611ERGO    R2 9639   1.841  15.885   6.899 -0.2030  0.4885 -0.1388
  611ERGO    R3 9640   1.676  15.809   7.100  0.0677  0.0982 -0.0535
  611ERGO    R4 9641   1.887  15.964   7.232 -0.1481  0.4774 -0.1440
  611ERGO    R5 9642   1.823  15.762   7.284  0.2796  0.3293 -0.1602
  611ERGO    C1 9643   1.758  15.938   7.616  0.1379  0.1045 -0.0671
  611ERGO    C2 9644   1.866  15.951   7.970 -0.1367 -0.2604 -0.1463
  612ERGO   ROH 9645   4.740  12.900   9.617 -0.2214  0.0072  0.2220
  612ERGO    R1 9646   4.562  12.860   9.401 -0.0925  0.0950  0.0980
  612ERGO    R2 9647   4.574  13.009   9.168  0.1312  0.1000  0.1104
  612ERGO    R3 9648   4.588  12.765   9.051  0.1045  0.0988  0.1114
  612ERGO    R4 9649   4.522  12.949   8.832  0.1917  0.1104  0.0990
  612ERGO    R5 9650   4.413  12.768   8.887  0.1424  0.1350  0.0737
  612ERGO    C1 9651   4.504  12.684   8.526  0.2017  0.1152  0.0933
  612ERGO    C2 9652   4.595  12.702   8.274  0.0274  0.1687 -0.1001
  613ERGO   ROH 9653  18.297  14.134   6.576 -0.0185 -0.1742  0.0719
  613ERGO    R1 9654  18.385  13.999   6.809  0.0858 -0.1239  0.0611
  613ERGO    R2 9655  18.357  14.107   7.062  0.1305 -0.1036  0.0530
  613ERGO    R3 9656  18.232  13.871   7.114  0.2108 -0.1329  0.1215
  613ERGO    R4 9657  18.341  13.956   7.373 -0.2178  0.2213  0.2015
  613ERGO    R5 9658  18.373  13.764   7.275  0.0550  0.1310  0.4481
  613ERGO    C1 9659  18.214  13.647   7.602 -0.3453  0.3830  0.3522
  613ERGO    C2 9660  17.960  13.532   7.770 -0.1061 -0.2050 -0.1288
  614ERGO   ROH 9661  12.321   3.656  10.242  0.0121  0.3527  0.1050
  614ERGO    R1 9662  12.396   3.840  10.040 -0.0204  0.2796  0.0257
  614ERGO    R2 9663  12.636   3.822   9.904 -0.0803  0.1802 -0.0665
  614ERGO    R3 9664  12.475   3.826   9.685 -0.1675  0.1650 -0.0034
  614ERGO    R4 9665  12.741   3.894   9.583 -0.2016  0.1282 -0.1187
  614ERGO    R5 9666  12.558   4.008   9.554 -0.2036  0.1406 -0.0608
  614ERGO    C1 9667  12.651   3.940   9.190 -0.3541  0.0836 -0.0898
  614ERGO    C2 9668  12.746   3.875   8.922 -0.3810 -0.0958 -0.3987
  615ERGO   ROH 9669  16.444   7.615  10.124  0.0530 -0.3332  0.3205
  615ERGO    R1 9670  16.541   7.500   9.884  0.0365 -0.2504  0.2736
  615ERGO    R2 9671  16.373   7.414   9.682  0.0243 -0.1350  0.2328
  615ERGO    R3 9672  16.526   7.578   9.529  0.0576 -0.0979  0.3058
  615ERGO    R4 9673  16.448   7.360   9.349 -0.1293  0.0864  0.1607
  615ERGO    R5 9674  16.650   7.429   9.388 -0.0762 -0.0569  0.1413
  615ERGO    C1 9675  16.635   7.484   9.011 -0.1874  0.2502  0.1872
  615ERGO    C2 9676  16.576   7.463   8.753 -0.2987  0.1547  0.0137
  616ERGO   ROH 9677  10.988  11.875   9.415 -0.0503 -0.0850  0.1251
  616ERGO    R1 9678  11.121  11.818   9.172 -0.0813 -0.0538  0.1007
  616ERGO    R2 9679  10.987  11.789   8.932 -0.0972  0.1230  0.0875
  616ERGO    R3 9680  11.162  11.980   8.849  0.0081  0.0633  0.1695
  616ERGO    R4 9681  11.074  11.846   8.603 -0.0725  0.2193  0.1105
  616ERGO    R5 9682  11.280  11.877   8.668 -0.0529  0.0758  0.1215
  616ERGO    C1 9683  11.290  12.058   8.333  0.0406  0.2195  0.2010
  616ERGO    C2 9684  11.449  12.237   8.155 -0.0036 -0.0711 -0.0398
  617ERGO   ROH 9685  16.546   7.928  10.497 -0.1753  0.3636 -0.0523
  617ERGO    R1 9686  16.614   8.050  10.250 -0.1158  0.2220 -0.1056
  617ERGO    R2 9687  16.848   7.990  10.115 -0.0385  0.2153  0.0359
  617ERGO    R3 9688  16.677   7.939   9.910  0.0696  0.0156 -0.0074
  617ERGO    R4 9689  16.941   7.962   9.783  0.1287 -0.0165  0.0989
  617ERGO    R5 9690  16.760   8.072   9.728  0.1244 -0.1000 -0.0713
  617ERGO    C1 9691  16.835   7.898   9.397  0.3276 -0.3389  0.0950
  617ERGO    C2 9692  16.936   7.892   9.040  0.0240  0.1453  0.0366
  618ERGO   ROH 9693  17.845   5.907  10.391  0.0289 -0.2798 -0.1081
  618ERGO    R1 9694  17.747   5.931  10.127  0.0421  0.0492 -0.0867
  618ERGO    R2 9695  17.765   6.166   9.982  0.6211  0.0596 -0.0200
  618ERGO    R3 9696  17.886   6.006   9.799  0.1889 -0.2083 -0.0855
  618ERGO    R4 9697  17.732   6.196   9.639  0.5107  0.1263 -0.0046
  618ERGO    R5 9698  17.723   5.980   9.625  0.0380  0.1364 -0.0037
  618ERGO    C1 9699  17.827   6.063   9.268  0.0408 -0.0863 -0.0572
  618ERGO    C2 9700  17.821   6.040   8.863 -0.1532  0.0984 -0.4636
  619ERGO   ROH 9701  17.022   6.495  10.544 -0.2600  0.2217 -0.1586
  619ERGO    R1 9702  16.941   6.492  10.272 -0.0850  0.2698 -0.2110
  619ERGO    R2 9703  17.006   6.695  10.096  0.2198  0.1891 -0.1881
  619ERGO    R3 9704  17.106   6.491   9.948  0.1251  0.0820 -0.1087
  619ERGO    R4 9705  17.004   6.684   9.751  0.1533  0.0400 -0.1845
  619ERGO    R5 9706  16.954   6.472   9.763  0.0791  0.0546 -0.0758
  619ERGO    C1 9707  17.098   6.486   9.410  0.0257 -0.1473 -0.1079
  619ERGO    C2 9708  17.097   6.468   9.070 -0.1968 -0.2972  0.3250
  620ERGO   ROH 9709   2.303   9.658   9.842 -0.0212  0.4670  0.0685
  620ERGO    R1 9710   2.137   9.630   9.614 -0.1229  0.3008  0.1589
  620ERGO    R2 9711   2.114   9.828   9.422 -0.3166  0.2223  0.0924
  620ERGO    R3 9712   2.183   9.627   9.253 -0.2984  0.1918  0.1375
  620ERGO    R4 9713   1.998   9.794   9.098 -0.3127  0.1326  0.1011
  620ERGO    R5 9714   1.982   9.579   9.132 -0.2902  0.1423  0.1491
  620ERGO    C1 9715   1.995   9.585   8.751 -0.2932  0.0517  0.1485
  620ERGO    C2 9716   2.045   9.534   8.376  0.3137  0.0310 -0.1036
  621ERGO   ROH 9717  11.676   6.884  10.025 -0.1472  0.0302  0.0482
  621ERGO    R1 9718  11.833   6.777   9.815 -0.0558  0.1048  0.0767
  621ERGO    R2 9719  11.727   6.615   9.619  0.0748 -0.0257  0.1067
  621ERGO    R3 9720  11.839   6.798   9.452 -0.0648  0.0296  0.0731
  621ERGO    R4 9721  11.729   6.592   9.274 -0.1112  0.0399  0.1006
  621ERGO    R5 9722  11.934   6.667   9.275 -0.1321  0.0886 -0.0035
  621ERGO    C1 9723  11.836   6.751   8.917 -0.3506  0.1300  0.0655
  621ERGO    C2 9724  11.855   6.768   8.596 -0.1510 -0.1813  0.3187
  622ERGO   ROH 9725   8.384   7.311   6.199  0.2494  0.2124  0.0931
  622ERGO    R1 9726   8.537   7.185   6.401  0.2774  0.0508 -0.0269
  622ERGO    R2 9727   8.448   7.164   6.662  0.5114  0.2608  0.0711
  622ERGO    R3 9728   8.497   6.899   6.623  0.0862  0.1710  0.0987
  622ERGO    R4 9729   8.493   6.931   6.914  0.2256  0.2337  0.0999
  622ERGO    R5 9730   8.652   6.841   6.796  0.0536 -0.0395  0.0625
  622ERGO    C1 9731   8.564   6.547   7.024 -0.3399  0.1334  0.1426
  622ERGO    C2 9732   8.531   6.364   7.260 -0.0754 -0.1202  0.0199
  623ERGO   ROH 9733  14.253  13.509   9.469  0.1343 -0.0862 -0.0212
  623ERGO    R1 9734  14.181  13.479   9.197  0.2821  0.2500 -0.1026
  623ERGO    R2 9735  14.332  13.582   8.991  0.6643  0.0863  0.0890
  623ERGO    R3 9736  14.325  13.326   8.900  0.2052  0.1511 -0.0913
  623ERGO    R4 9737  14.352  13.490   8.658  0.7197  0.2869  0.0351
  623ERGO    R5 9738  14.200  13.338   8.696  0.3704  0.5586 -0.1826
  623ERGO    C1 9739  14.358  13.196   8.380  0.3211  0.4645 -0.1655
  623ERGO    C2 9740  14.435  13.222   8.074  0.1075 -0.0074 -0.1161
  624ERGO   ROH 9741   0.769   2.046   9.794 -0.0351 -0.1703  0.0550
  624ERGO    R1 9742   0.722   1.935   9.538 -0.1933 -0.2440  0.1134
  624ERGO    R2 9743   0.467   1.901   9.435 -0.2528  0.0609  0.1289
  624ERGO    R3 9744   0.568   2.043   9.227 -0.0400 -0.1863  0.0600
  624ERGO    R4 9745   0.363   1.874   9.107 -0.2841  0.0713  0.1393
  624ERGO    R5 9746   0.570   1.889   9.044 -0.2658 -0.2674  0.1315
  624ERGO    C1 9747   0.397   1.992   8.720 -0.1025 -0.1547  0.0806
  624ERGO    C2 9748   0.409   2.013   8.428 -0.0926 -0.1677 -0.1252
  625ERGO   ROH 9749  12.751  10.917   5.933 -0.4331  0.0576  0.0342
  625ERGO    R1 9750  12.724  11.109   6.139 -0.1423  0.0316  0.1005
  625ERGO    R2 9751  12.923  11.289   6.202 -0.0460  0.0056 -0.1442
  625ERGO    R3 9752  12.725  11.472   6.165 -0.0849  0.0297  0.1530
  625ERGO    R4 9753  12.947  11.624   6.284 -0.0369 -0.0842  0.2384
  625ERGO    R5 9754  12.741  11.615   6.357 -0.0115 -0.1905  0.3220
  625ERGO    C1 9755  12.775  11.991   6.298 -0.0683 -0.1138  0.7401
  625ERGO    C2 9756  12.988  12.316   6.250 -0.0557 -0.0930  0.2134
  626ERGO   ROH 9757  11.854  13.373   9.417  0.0215 -0.0281  0.0537
  626ERGO    R1 9758  11.835  13.281   9.150  0.1091  0.1774 -0.0249
  626ERGO    R2 9759  11.941  13.422   8.937  0.3322  0.2602  0.1334
  626ERGO    R3 9760  12.067  13.187   8.886  0.1958  0.2058  0.0417
  626ERGO    R4 9761  12.072  13.330   8.631  0.1907  0.2513  0.0747
  626ERGO    R5 9762  11.997  13.128   8.665  0.0990  0.2856  0.0536
  626ERGO    C1 9763  12.266  13.056   8.405 -0.0198  0.1953 -0.0454
  626ERGO    C2 9764  12.443  13.135   8.135  0.1553  0.0384  0.0105
  627ERGO   ROH 9765  12.872   8.529  10.005 -0.0644 -0.0607 -0.1818
  627ERGO    R1 9766  12.906   8.417   9.748  0.1375 -0.1344 -0.1251
  627ERGO    R2 9767  12.731   8.466   9.539  0.2452 -0.2702 -0.2519
  627ERGO    R3 9768  12.958   8.541   9.410  0.2979 -0.2266 -0.1349
  627ERGO    R4 9769  12.786   8.431   9.200  0.3461 -0.0644 -0.2578
  627ERGO    R5 9770  12.991   8.372   9.244  0.3211 -0.1263 -0.2319
  627ERGO    C1 9771  13.031   8.482   8.880  0.4543  0.0963 -0.1515
  627ERGO    C2 9772  12.963   8.518   8.512  0.0541  0.2377 -0.2153
  628ERGO   ROH 9773   5.500   0.397   9.858 -0.1797 -0.0062  0.1123
  628ERGO    R1 9774   5.519   0.197   9.659  0.2324  0.0313  0.1060
  628ERGO    R2 9775   5.323   0.159   9.469  0.2263 -0.4679  0.2069
  628ERGO    R3 9776   5.531   0.187   9.295  0.0806  0.0612  0.0981
  628ERGO    R4 9777   5.318   0.059   9.137  0.3689 -0.7167  0.2764
  628ERGO    R5 9778   5.523  -0.012   9.161  0.6251 -0.0766  0.2406
  628ERGO    C1 9779   5.511   0.028   8.782  0.3152 -0.3649  0.2148
  628ERGO    C2 9780   5.383  -0.018   8.464  0.0111  0.0556  0.2835
  629ERGO   ROH 9781  17.237   0.405  10.189  0.0215 -0.0501  0.0332
  629ERGO    R1 9782  17.331   0.559   9.971  0.1489 -0.0825  0.0634
  629ERGO    R2 9783  17.568   0.503   9.840  0.1045 -0.2575  0.0450
  629ERGO    R3 9784  17.408   0.501   9.620  0.0919 -0.0785  0.0519
  629ERGO    R4 9785  17.667   0.594   9.521  0.0933 -0.0729  0.0937
  629ERGO    R5 9786  17.475   0.693   9.495  0.1194 -0.0165  0.1702
  629ERGO    C1 9787  17.574   0.645   9.130  0.0750  0.2027  0.1285
  629ERGO    C2 9788  17.513   0.690   8.790 -0.2164  0.4158  0.1850
  630ERGO   ROH 9789   4.710   2.220   9.818 -0.0570  0.1903  0.0878
  630ERGO    R1 9790   4.801   2.201   9.550 -0.1567 -0.1089  0.0722
  630ERGO    R2 9791   4.666   2.057   9.357 -0.5124  0.0945  0.1623
  630ERGO    R3 9792   4.676   2.292   9.221 -0.0462  0.0300  0.0671
  630ERGO    R4 9793   4.597   2.093   9.020 -0.6318  0.1173  0.1886
  630ERGO    R5 9794   4.764   2.232   9.006 -0.3051 -0.2663  0.0344
  630ERGO    C1 9795   4.566   2.334   8.697 -0.2638  0.0701  0.1145
  630ERGO    C2 9796   4.448   2.182   8.430 -0.1515 -0.0563 -0.0220
  631ERGO   ROH 9797  12.427   1.188   9.770 -0.0819 -0.0268  0.1148
  631ERGO    R1 9798  12.576   1.119   9.539  0.1075  0.2738  0.1422
  631ERGO    R2 9799  12.458   1.013   9.313  0.3689 -0.0397  0.1521
  631ERGO    R3 9800  12.584   1.220   9.189 -0.0890  0.2378  0.1246
  631ERGO    R4 9801  12.489   1.048   8.971  0.5890 -0.2218  0.1495
  631ERGO    R5 9802  12.693   1.119   9.002  0.3839  0.3853  0.3006
  631ERGO    C1 9803  12.625   1.263   8.655  0.2874 -0.0674  0.1225
  631ERGO    C2 9804  12.625   1.348   8.376 -0.0566 -0.0992  0.1754
  632ERGO   ROH 9805   0.315  15.871   6.206 -0.2743 -0.0643 -0.0914
  632ERGO    R1 9806   0.319  16.040   6.433 -0.0022 -0.0060 -0.1359
  632ERGO    R2 9807   0.107  16.058   6.610  0.0099  0.3980 -0.1474
  632ERGO    R3 9808   0.298  15.998   6.794 -0.0923  0.1221 -0.1263
  632ERGO    R4 9809   0.092  16.142   6.944  0.0685  0.3585 -0.1351
  632ERGO    R5 9810   0.304  16.190   6.937  0.1315  0.0894 -0.0921
  632ERGO    C1 9811   0.262  16.136   7.312  0.0067  0.0765 -0.1082
  632ERGO    C2 9812   0.132  16.173   7.606 -0.0862  0.2072 -0.1066
  633ERGO   ROH 9813   4.647   3.063   6.483  0.4009  0.1359 -0.1497
  633ERGO    R1 9814   4.802   2.853   6.593  0.2079  0.0223 -0.0900
  633ERGO    R2 9815   4.849   2.830   6.864  0.0880 -0.0125 -0.0721
  633ERGO    R3 9816   4.748   2.580   6.828 -0.0794  0.0590 -0.1092
  633ERGO    R4 9817   4.863   2.575   7.098  0.0666 -0.1051 -0.1710
  633ERGO    R5 9818   4.906   2.436   6.936 -0.1033 -0.0736 -0.2468
  633ERGO    C1 9819   4.776   2.192   7.199 -0.1031 -0.0920 -0.2635
  633ERGO    C2 9820   4.703   2.070   7.519  0.1078 -0.2881  0.2380
  634PSPI    C1 9821  17.120   9.770   6.105  0.0552 -0.0642 -0.0730
  634PSPI    C2 9822  16.897   9.797   6.436  0.0888 -0.0362 -0.0525
  634PSPI    C3 9823  16.935  10.113   6.194  0.1073 -0.0406 -0.0552
  634PSPI   PO4 9824  17.265   9.553   6.171 -0.2173 -0.0657  0.0484
  634PSPI   GL1 9825  17.544   9.597   6.629 -0.0605  0.3261  0.0177
  634PSPI   GL2 9826  17.422   9.922   6.520 -0.0432  0.4735 -0.0727
  634PSPI   C1A 9827  17.752   9.652   7.005 -0.1978 -0.0014  0.2387
  634PSPI   C2A 9828  17.773   9.574   7.398 -0.0812 -0.2336 -0.1341
  634PSPI   C3A 9829  17.966   9.728   7.584 -0.3717  0.4268  0.1450
  634PSPI   C4A 9830  17.868  10.045   7.743 -0.2567 -0.2600  0.1952
  634PSPI   C1B 9831  17.183   9.922   6.927  0.1447 -0.3878 -0.3063
  634PSPI   C2B 9832  17.206   9.798   7.327  0.1404  0.0943  0.0459
  634PSPI   C3B 9833  16.881   9.557   7.641  0.0257  0.1555  0.0930
  634PSPI   C4B 9834  16.599   9.571   7.904  0.5215  0.0600 -0.1781
  635PSPI    C1 9835  18.337   9.312   5.963 -0.0451 -0.1473 -0.0239
  635PSPI    C2 9836  18.422   9.203   5.588  0.0410  0.0596 -0.0656
  635PSPI    C3 9837  18.043   9.200   5.716 -0.0256  0.2786 -0.2496
  635PSPI   PO4 9838  18.355   9.069   6.142 -0.1310 -0.0253  0.2778
  635PSPI   GL1 9839  18.339   9.010   6.554  0.2149 -0.0744 -0.1057
  635PSPI   GL2 9840  18.029   9.251   6.677 -0.0153  0.2384  0.2616
  635PSPI   C1A 9841  18.656   9.130   6.883  0.1719  0.4376  0.1226
  635PSPI   C2A 9842  18.617   8.997   7.385  0.2178 -0.0957  0.0602
  635PSPI   C3A 9843  18.564   8.787   7.777  0.1563  0.0920 -0.1338
  635PSPI   C4A 9844  18.465   8.687   8.185 -0.0071  0.1437  0.5436
  635PSPI   C1B 9845  18.174   8.972   7.085  0.0188  0.2341  0.0901
  635PSPI   C2B 9846  18.176   8.682   7.464  0.1733 -0.0318 -0.2304
  635PSPI   C3B 9847  18.059   8.704   7.911  0.0033 -0.2491 -0.2958
  635PSPI   C4B 9848  17.904   8.819   8.340 -0.0038 -0.1579 -0.2875
  636PSPI    C1 9849   9.339   6.292   5.447 -0.0697 -0.2624  0.1785
  636PSPI    C2 9850   9.021   6.184   5.228 -0.1348 -0.1050  0.1937
  636PSPI    C3 9851   9.389   6.078   5.113 -0.1744 -0.0837  0.0465
  636PSPI   PO4 9852   9.228   6.340   5.721 -0.2301 -0.2171 -0.2218
  636PSPI   GL1 9853   9.464   6.435   6.114 -0.1149  0.1503 -0.1052
  636PSPI   GL2 9854   9.252   6.708   6.122 -0.1293  0.2825 -0.1949
  636PSPI   C1A 9855   9.496   6.205   6.455  0.0054  0.1690  0.3002
  636PSPI   C2A 9856   9.530   6.426   6.885 -0.1451 -0.0754  0.1831
  636PSPI   C3A 9857   9.532   6.564   7.360 -0.2582 -0.3207  0.0300
  636PSPI   C4A 9858   9.389   7.002   7.612  0.0153  0.2189 -0.0212
  636PSPI   C1B 9859   9.577   6.783   6.479  0.2142  0.4064  0.0791
  636PSPI   C2B 9860   9.565   6.968   6.820 -0.0046 -0.1732 -0.2076
  636PSPI   C3B 9861   9.563   7.098   7.179 -0.2622  0.0905  0.3580
  636PSPI   C4B 9862   9.474   7.429   7.361 -0.4192  0.0685  0.3710
  637PSPI    C1 9863   9.026   8.017   5.655 -0.2414 -0.1018  0.1670
  637PSPI    C2 9864   9.174   7.693   5.472  0.1747  0.0494  0.2234
  637PSPI    C3 9865   9.027   7.996   5.255  0.2988  0.0591  0.1521
  637PSPI   PO4 9866   9.069   7.956   5.941  0.0372  0.0069 -0.1800
  637PSPI   GL1 9867   8.988   8.169   6.324  0.0557  0.0659 -0.2184
  637PSPI   GL2 9868   9.208   7.868   6.500 -0.0682  0.2539  0.0592
  637PSPI   C1A 9869   9.294   8.344   6.608 -0.1746  0.0742 -0.1308
  637PSPI   C2A 9870   9.208   8.325   7.019 -0.1860  0.0940  0.0985
  637PSPI   C3A 9871   9.069   8.486   7.412  0.1580 -0.0854 -0.0190
  637PSPI   C4A 9872   8.734   8.365   7.691  0.1756  0.1003 -0.0307
  637PSPI   C1B 9873   8.913   7.985   6.866 -0.0053  0.1564 -0.1678
  637PSPI   C2B 9874   8.673   8.248   7.147 -0.0836 -0.0918  0.1743
  637PSPI   C3B 9875   8.476   8.647   7.365  0.1642 -0.0260 -0.2527
  637PSPI   C4B 9876   8.277   9.003   7.503 -0.2271 -0.0447  0.0742
  638PSPI    C1 9877  10.143   3.775   5.769  0.1367  0.1205  0.0444
  638PSPI    C2 9878  10.443   3.598   5.572  0.0494  0.1530 -0.1197
  638PSPI    C3 9879  10.077   3.435   5.569  0.0512  0.1449  0.0305
  638PSPI   PO4 9880  10.210   3.824   6.003  0.1077  0.1222 -0.1437
  638PSPI   GL1 9881  10.223   3.745   6.431 -0.0572  0.0426  0.3266
  638PSPI   GL2 9882  10.309   3.450   6.353  0.0354 -0.0004  0.0083
  638PSPI   C1A 9883  10.007   3.679   6.808 -0.1070 -0.2384 -0.1085
  638PSPI   C2A 9884   9.795   3.279   6.975  0.0478 -0.2008 -0.2803
  638PSPI   C3A 9885   9.662   3.005   7.255 -0.1744  0.2664  0.2542
  638PSPI   C4A 9886   9.377   2.974   7.507 -0.3533 -0.0950 -0.0372
  638PSPI   C1B 9887  10.553   3.579   6.827  0.1822  0.3342  0.2729
  638PSPI   C2B 9888  10.817   3.570   7.146 -0.0308  0.1598  0.0155
  638PSPI   C3B 9889  10.803   3.567   7.586  0.0882 -0.0922  0.2714
  638PSPI   C4B 9890  10.977   3.833   8.021 -0.0024 -0.0266  0.1359
  639PSPI    C1 9891   4.886  10.990   5.382  0.0429 -0.0073  0.2018
  639PSPI    C2 9892   5.181  11.014   5.651  0.0625 -0.1719  0.1960
  639PSPI    C3 9893   5.058  10.657   5.520 -0.1528 -0.1052  0.2121
  639PSPI   PO4 9894   4.735  11.200   5.434  0.0267 -0.3061 -0.0172
  639PSPI   GL1 9895   4.448  11.092   5.841 -0.1868 -0.0262  0.1056
  639PSPI   GL2 9896   4.596  10.742   5.696  0.2383  0.1328 -0.0072
  639PSPI   C1A 9897   4.743  11.030   6.279 -0.1382 -0.0268  0.0589
  639PSPI   C2A 9898   4.876  10.949   6.660 -0.1351  0.1246 -0.2878
  639PSPI   C3A 9899   5.243  10.725   6.971 -0.0994 -0.2552 -0.1012
  639PSPI   C4A 9900   5.424  10.528   7.406  0.3727 -0.1831  0.3217
  639PSPI   C1B 9901   4.445  10.681   6.095  0.1691 -0.0361 -0.1855
  639PSPI   C2B 9902   4.118  10.668   6.362  0.1368 -0.1264  0.0666
  639PSPI   C3B 9903   3.842  11.026   6.441  0.0289 -0.0295 -0.0958
  639PSPI   C4B 9904   3.469  11.237   6.497  0.0010 -0.2356  0.2444
  640PSPI    C1 9905   0.147   6.450   6.025  0.3245 -0.1293  0.1706
  640PSPI    C2 9906   0.355   6.568   5.704  0.2380  0.0125  0.1660
  640PSPI    C3 9907   0.498   6.278   5.939  0.4056  0.0585  0.1217
  640PSPI   PO4 9908  -0.057   6.218   5.965 -0.2782 -0.0944 -0.0275
  640PSPI   GL1 9909  -0.128   5.938   6.349  0.3006  0.3703 -0.0183
  640PSPI   GL2 9910  -0.340   6.115   6.407 -0.0170  0.0035  0.1350
  640PSPI   C1A 9911   0.139   5.537   6.495 -0.1658 -0.1204 -0.1013
  640PSPI   C2A 9912   0.334   5.364   6.808 -0.4784 -0.2749 -0.2424
  640PSPI   C3A 9913   0.506   5.277   7.133  0.0821  0.2281  0.0206
  640PSPI   C4A 9914   0.904   5.149   7.210  0.0364 -0.1710 -0.1413
  640PSPI   C1B 9915  -0.428   6.018   6.863 -0.1394 -0.0219 -0.2619
  640PSPI   C2B 9916  -0.456   5.898   7.224 -0.2289  0.1055 -0.1279
  640PSPI   C3B 9917  -0.080   5.748   7.442 -0.1959 -0.1151  0.1385
  640PSPI   C4B 9918   0.085   5.425   7.750  0.1406  0.1882  0.0372
  641PSPI    C1 9919   9.146   3.178   5.385 -0.1456 -0.3232  0.0408
  641PSPI    C2 9920   8.849   3.366   5.194 -0.0757 -0.1058  0.1429
  641PSPI    C3 9921   9.090   3.117   4.994  0.0759  0.2150 -0.0844
  641PSPI   PO4 9922   9.043   3.287   5.630 -0.0191  0.1763 -0.1675
  641PSPI   GL1 9923   8.921   3.260   6.039 -0.3729  0.0637  0.2745
  641PSPI   GL2 9924   8.934   2.924   5.967 -0.1743 -0.0634  0.0553
  641PSPI   C1A 9925   8.989   3.532   6.374 -0.3677 -0.1889  0.1014
  641PSPI   C2A 9926   8.858   3.871   6.442 -0.0768  0.1206  0.3984
  641PSPI   C3A 9927   8.615   4.217   6.588 -0.2358 -0.1142 -0.3377
  641PSPI   C4A 9928   8.366   4.502   6.454 -0.0211  0.2396  0.0911
  641PSPI   C1B 9929   8.707   2.947   6.372 -0.0767 -0.3902 -0.0522
  641PSPI   C2B 9930   8.237   3.041   6.548 -0.0102  0.1798  0.1961
  641PSPI   C3B 9931   7.859   3.052   6.685 -0.1002  0.0225  0.1350
  641PSPI   C4B 9932   7.648   2.818   6.568  0.2178 -0.0091 -0.0174
  642PSPI    C1 9933  15.795   7.156   5.830  0.1198 -0.0196  0.0745
  642PSPI    C2 9934  15.442   6.973   5.783  0.0812  0.0340  0.1538
  642PSPI    C3 9935  15.779   6.788   5.673 -0.0001  0.1337 -0.2811
  642PSPI   PO4 9936  15.812   7.321   6.064  0.2693  0.0040  0.2234
  642PSPI   GL1 9937  15.665   7.202   6.569 -0.0952  0.2610 -0.0620
  642PSPI   GL2 9938  15.706   7.572   6.483 -0.1761  0.1520 -0.1228
  642PSPI   C1A 9939  15.510   7.125   6.950 -0.2841 -0.1613  0.3605
  642PSPI   C2A 9940  15.235   6.905   7.257 -0.3050  0.0953  0.3047
  642PSPI   C3A 9941  14.992   7.121   7.477 -0.2272  0.1469 -0.1575
  642PSPI   C4A 9942  14.952   7.348   7.885  0.1128 -0.1998  0.0519
  642PSPI   C1B 9943  15.831   7.810   6.792 -0.0638  0.2808  0.1711
  642PSPI   C2B 9944  15.910   7.666   7.191 -0.0848 -0.0572  0.2031
  642PSPI   C3B 9945  15.878   7.716   7.596  0.1443 -0.0408 -0.0077
  642PSPI   C4B 9946  15.523   7.710   7.911 -0.1221 -0.0372  0.3752
  643PSPI    C1 9947   3.419   5.583   6.020  0.0734 -0.1472 -0.0760
  643PSPI    C2 9948   3.686   5.818   5.838  0.3512 -0.2406  0.2031
  643PSPI    C3 9949   3.549   5.491   5.653 -0.1772  0.2234 -0.2641
  643PSPI   PO4 9950   3.308   5.811   6.256 -0.1283 -0.2851  0.0877
  643PSPI   GL1 9951   3.323   5.874   6.707 -0.0006 -0.2628  0.0289
  643PSPI   GL2 9952   3.469   6.111   6.668  0.0227  0.3343  0.0156
  643PSPI   C1A 9953   3.626   5.615   6.853  0.0476 -0.0399  0.1683
  643PSPI   C2A 9954   3.696   5.266   7.121 -0.1770 -0.0752 -0.0561
  643PSPI   C3A 9955   3.605   5.127   7.457  0.0352  0.0560 -0.1784
  643PSPI   C4A 9956   3.670   4.938   7.839  0.1141  0.0916 -0.0681
  643PSPI   C1B 9957   3.502   6.091   7.131 -0.1324 -0.1467  0.1081
  643PSPI   C2B 9958   3.554   6.339   7.473  0.0327  0.3816  0.1196
  643PSPI   C3B 9959   3.682   6.426   7.779 -0.0345 -0.1192 -0.1930
  643PSPI   C4B 9960   4.034   6.718   7.930  0.1969  0.4058 -0.0564
  644PSPI    C1 9961  13.223   5.430   5.728  0.1212  0.1242 -0.1246
  644PSPI    C2 9962  13.156   5.083   5.915  0.0320  0.1661 -0.0782
  644PSPI    C3 9963  12.935   5.184   5.597  0.0089  0.2138 -0.0471
  644PSPI   PO4 9964  13.289   5.608   5.895 -0.0708 -0.2764  0.4266
  644PSPI   GL1 9965  13.311   5.921   6.203  0.0545  0.1340 -0.0737
  644PSPI   GL2 9966  13.422   6.043   6.494 -0.2576 -0.0932 -0.0089
  644PSPI   C1A 9967  13.054   5.727   6.647 -0.1212  0.3624  0.1754
  644PSPI   C2A 9968  12.806   5.820   7.106 -0.1387 -0.0915 -0.3665
  644PSPI   C3A 9969  12.741   5.983   7.559  0.4189 -0.2091 -0.1091
  644PSPI   C4A 9970  12.435   6.345   7.749 -0.0485 -0.3525  0.1646
  644PSPI   C1B 9971  13.545   6.082   6.832  0.1099 -0.0971 -0.0100
  644PSPI   C2B 9972  13.420   5.869   7.066  0.0857  0.0361  0.0863
  644PSPI   C3B 9973  13.240   5.505   7.187  0.0037 -0.0644  0.3895
  644PSPI   C4B 9974  13.195   5.262   6.820 -0.1960 -0.0869  0.3222
  645PSPI    C1 9975  10.442   7.719   5.923 -0.1816 -0.0903 -0.1157
  645PSPI    C2 9976  10.231   7.531   5.640 -0.0224 -0.0353 -0.2732
  645PSPI    C3 9977  10.206   7.928   5.677 -0.0076 -0.0373 -0.2396
  645PSPI   PO4 9978  10.431   7.558   6.147 -0.1335  0.1854 -0.1705
  645PSPI   GL1 9979  10.164   7.457   6.357  0.1311  0.0276  0.2103
  645PSPI   GL2 9980  10.062   7.120   6.518  0.1477  0.0890 -0.1414
  645PSPI   C1A 9981  10.228   7.719   6.726 -0.2036 -0.0286  0.1136
  645PSPI   C2A 9982  10.377   7.689   7.146 -0.0830 -0.0173  0.1297
  645PSPI   C3A 9983  10.497   7.869   7.594 -0.3048 -0.1011  0.3633
  645PSPI   C4A 9984  10.557   8.263   7.838  0.0089  0.2028  0.0280
  645PSPI   C1B 9985  10.015   6.842   6.821  0.0850  0.0970  0.0871
  645PSPI   C2B 9986   9.975   6.721   7.226 -0.1995 -0.0779 -0.1071
  645PSPI   C3B 9987   9.923   6.967   7.601  0.2065  0.1785 -0.3426
  645PSPI   C4B 9988  10.008   7.361   7.935 -0.0365 -0.3227  0.0379
  646PSPI    C1 9989  17.849  10.442   5.769 -0.0119 -0.1667  0.0638
  646PSPI    C2 9990  18.164  10.311   5.560 -0.1722  0.2179 -0.4385
  646PSPI    C3 9991  17.816  10.381   5.375 -0.4323  0.2090  0.0324
  646PSPI   PO4 9992  18.069  10.624   6.041  0.0164 -0.0049  0.1310
  646PSPI   GL1 9993  18.341  10.434   6.362 -0.0078 -0.0000  0.1438
  646PSPI   GL2 9994  18.477  10.156   6.415  0.0060  0.0585  0.0972
  646PSPI   C1A 9995  18.396  10.786   6.780  0.0656  0.3320  0.4926
  646PSPI   C2A 9996  18.604  10.905   7.151  0.5194 -0.1803 -0.3527
  646PSPI   C3A 9997  18.639  11.158   7.525  0.2406 -0.1828 -0.1836
  646PSPI   C4A 9998  18.880  11.435   7.740  0.0280  0.0884  0.0374
  646PSPI   C1B 9999  18.559  10.198   6.863  0.2106  0.2382 -0.3001
  646PSPI   C2B10000  18.533  10.380   7.201 -0.2500 -0.1368 -0.3193
  646PSPI   C3B10001  18.598  10.577   7.652 -0.2780  0.3185 -0.0850
  646PSPI   C4B10002  18.483  10.976   7.958  0.0086 -0.3166 -0.1838
  647PSPI    C110003  17.324   3.694   5.842  0.0211  0.1806  0.1273
  647PSPI    C210004  17.185   3.951   5.569 -0.1314 -0.0557 -0.0212
  647PSPI    C310005  17.371   3.616   5.453  0.1885  0.0502  0.1725
  647PSPI   PO410006  17.546   3.807   6.025 -0.3218 -0.1339 -0.5851
  647PSPI   GL110007  17.508   4.049   6.524 -0.0077 -0.0920 -0.2263
  647PSPI   GL210008  17.668   4.185   6.410 -0.3255 -0.0327  0.0378
  647PSPI   C1A10009  17.652   4.292   6.917  0.0243 -0.3221  0.2384
  647PSPI   C2A10010  17.851   4.291   7.269  0.2833  0.2796  0.1065
  647PSPI   C3A10011  18.143   4.359   7.628 -0.0876  0.0410  0.1590
  647PSPI   C4A10012  18.530   4.367   7.404 -0.1429  0.0217  0.1469
  647PSPI   C1B10013  18.013   4.287   6.542 -0.3102 -0.1619  0.0887
  647PSPI   C2B10014  18.157   4.525   6.789 -0.1940 -0.1462  0.4438
  647PSPI   C3B10015  18.207   4.731   7.124  0.1791 -0.0596 -0.1447
  647PSPI   C4B10016  18.002   4.908   7.451  0.0853  0.1380  0.1999
  648PSPI    C110017  16.435  17.923   5.705  0.0212 -0.1790  0.0441
  648PSPI    C210018  16.598  17.999   5.348 -0.0275  0.2682  0.1110
  648PSPI    C310019  16.201  18.009   5.393 -0.0358 -0.0393  0.1241
  648PSPI   PO410020  16.563  18.025   5.873 -0.0197 -0.1701 -0.2000
  648PSPI   GL110021  16.511  18.073   6.337  0.0731  0.0037 -0.1119
  648PSPI   GL210022  16.843  18.067   6.531 -0.0197 -0.1125  0.2526
  648PSPI   C1A10023  16.503  17.828   6.777  0.2237 -0.0011  0.0561
  648PSPI   C2A10024  16.321  17.494   7.085 -0.0120 -0.3726  0.2118
  648PSPI   C3A10025  16.420  17.149   7.245  0.0895 -0.6081 -0.1295
  648PSPI   C4A10026  16.305  16.767   7.435 -0.1370  0.2539 -0.1261
  648PSPI   C1B10027  16.992  17.979   6.985 -0.1055 -0.3157 -0.1879
  648PSPI   C2B10028  17.362  18.046   7.255  0.0562 -0.0093  0.0885
  648PSPI   C3B10029  17.587  18.368   7.502  0.1378 -0.3250 -0.3122
  648PSPI   C4B10030  17.781  18.620   7.751  0.0144  0.2096  0.1035
  649PSPI    C110031  17.641   8.358   6.240 -0.4398 -0.0374  0.1963
  649PSPI    C210032  17.667   8.348   5.841  0.1535 -0.1793  0.2304
  649PSPI    C310033  17.486   8.655   6.021 -0.0584 -0.0796 -0.1424
  649PSPI   PO410034  17.955   8.279   6.315 -0.2240 -0.3864 -0.0558
  649PSPI   GL110035  18.128   8.377   6.606 -0.5289 -0.2483 -0.2358
  649PSPI   GL210036  18.508   8.538   6.747 -0.1341  0.0253  0.0446
  649PSPI   C1A10037  18.042   8.519   7.002  0.0354 -0.3131 -0.2277
  649PSPI   C2A10038  17.682   8.529   7.329  0.1824 -0.0870 -0.0018
  649PSPI   C3A10039  17.603   8.740   7.672 -0.2762 -0.3887 -0.1740
  649PSPI   C4A10040  17.409   8.846   8.100 -0.1194 -0.0166  0.0507
  649PSPI   C1B10041  18.514   8.465   7.205  0.0080  0.2578 -0.1187
  649PSPI   C2B10042  18.731   8.299   7.606 -0.1775 -0.1309  0.2365
  649PSPI   C3B10043  18.764   8.345   8.058 -0.4212  0.0871  0.2736
  649PSPI   C4B10044  18.651   8.315   8.495 -0.0963  0.2466  0.0165
  650PSPI    C110045   3.533  15.350   4.888  0.2728 -0.1109 -0.0838
  650PSPI    C210046   3.625  14.967   4.956  0.0526 -0.1417  0.0501
  650PSPI    C310047   3.904  15.250   4.999  0.1807 -0.2721  0.0850
  650PSPI   PO410048   3.297  15.343   5.068  0.2081 -0.0832  0.3086
  650PSPI   GL110049   3.334  15.535   5.616 -0.2474 -0.0903  0.1534
  650PSPI   GL210050   3.660  15.503   5.735  0.1318  0.1648 -0.3159
  650PSPI   C1A10051   3.182  15.509   6.060 -0.0813  0.0951 -0.1549
  650PSPI   C2A10052   3.157  15.580   6.446  0.0396  0.1777  0.0893
  650PSPI   C3A10053   3.321  15.709   6.871  0.1286  0.3545  0.1688
  650PSPI   C4A10054   3.259  15.630   7.281 -0.0016 -0.0681 -0.0440
  650PSPI   C1B10055   3.643  15.552   6.160  0.0223 -0.1933 -0.1409
  650PSPI   C2B10056   3.682  15.595   6.545 -0.0275 -0.1129 -0.0347
  650PSPI   C3B10057   3.919  15.600   6.852  0.4992 -0.1837 -0.0836
  650PSPI   C4B10058   3.800  15.566   7.312 -0.3586 -0.0428 -0.1248
  651PSPI    C110059  10.987   0.367   5.510  0.0667  0.2604 -0.0626
  651PSPI    C210060  10.721   0.612   5.341 -0.0437  0.0632 -0.1776
  651PSPI    C310061  10.852   0.291   5.142 -0.0651 -0.0918  0.0548
  651PSPI   PO410062  11.152   0.530   5.659 -0.2230  0.0697 -0.1768
  651PSPI   GL110063  10.971   0.496   6.015  0.2056  0.2545 -0.0812
  651PSPI   GL210064  11.094   0.112   5.980 -0.0990 -0.1571 -0.0196
  651PSPI   C1A10065  10.774   0.282   6.421 -0.1769 -0.0288 -0.0095
  651PSPI   C2A10066  10.690   0.176   6.992  0.1566 -0.6810 -0.0457
  651PSPI   C3A10067  11.047   0.318   7.224  0.0340  0.0519 -0.0058
  651PSPI   C4A10068  11.361   0.482   7.409  0.1179 -0.0153 -0.1001
  651PSPI   C1B10069  11.394   0.228   6.241  0.1079  0.2954 -0.5295
  651PSPI   C2B10070  11.857   0.465   6.191 -0.1548 -0.0032 -0.2424
  651PSPI   C3B10071  12.311   0.338   6.147  0.0450 -0.2138  0.2076
  651PSPI   C4B10072  12.490   0.135   6.314 -0.0037 -0.1679  0.3380
  652PSPI    C110073   3.581   4.601   5.471 -0.0308 -0.0612 -0.1109
  652PSPI    C210074   3.751   4.264   5.340  0.1519 -0.0180  0.0116
  652PSPI    C310075   3.893   4.619   5.221 -0.0575  0.0172 -0.1392
  652PSPI   PO410076   3.546   4.593   5.702  0.4147  0.2258  0.1013
  652PSPI   GL110077   3.491   4.274   6.071 -0.2739  0.0187  0.0670
  652PSPI   GL210078   3.331   4.490   6.240 -0.1782  0.1912 -0.0643
  652PSPI   C1A10079   3.573   3.880   6.193  0.1724  0.0124  0.3883
  652PSPI   C2A10080   3.719   3.628   6.577 -0.2091  0.1418  0.0488
  652PSPI   C3A10081   3.713   3.446   6.908  0.1209  0.1362 -0.1528
  652PSPI   C4A10082   3.704   3.040   7.163 -0.1606 -0.3141  0.0503
  652PSPI   C1B10083   3.492   4.358   6.607 -0.1924 -0.2804  0.1399
  652PSPI   C2B10084   3.869   4.451   6.831  0.2389  0.0085 -0.0125
  652PSPI   C3B10085   3.924   4.315   7.092 -0.2739 -0.0523  0.2765
  652PSPI   C4B10086   3.764   4.041   7.539  0.1814 -0.0549  0.0254
  653PSPI    C110087  10.172  15.734   5.309 -0.1192 -0.0093  0.0517
  653PSPI    C210088  10.133  15.580   4.942  0.0860 -0.2453  0.1258
  653PSPI    C310089  10.466  15.779   5.041 -0.1466  0.1937  0.0536
  653PSPI   PO410090  10.218  15.576   5.536  0.3781 -0.0624 -0.2746
  653PSPI   GL110091  10.092  15.582   6.069  0.2643 -0.0833 -0.1769
  653PSPI   GL210092  10.459  15.784   6.021  0.3322  0.0325 -0.6480
  653PSPI   C1A10093   9.885  15.231   6.374  0.3284 -0.0697  0.0173
  653PSPI   C2A10094   9.930  14.829   6.642 -0.1496 -0.1123  0.2879
  653PSPI   C3A10095   9.958  14.704   7.070  0.3018 -0.0653  0.0090
  653PSPI   C4A10096   9.706  14.696   7.461 -0.1849 -0.1677  0.0593
  653PSPI   C1B10097  10.554  15.968   6.471  0.1887  0.0488 -0.2116
  653PSPI   C2B10098  10.416  15.997   6.928 -0.0352  0.0511 -0.1938
  653PSPI   C3B10099  10.179  15.785   7.054 -0.1137  0.0906  0.1729
  653PSPI   C4B10100   9.760  15.928   7.017  0.0486  0.2441  0.2837
  654POPI    C110101   6.589  14.855   5.544  0.0827 -0.1521 -0.0600
  654POPI    C210102   6.258  14.662   5.431  0.1121 -0.1425 -0.1635
  654POPI    C310103   6.528  14.773   5.158  0.0161  0.1941 -0.1266
  654POPI   PO410104   6.562  14.777   5.822  0.1593  0.1887 -0.1123
  654POPI   GL110105   6.668  14.541   6.117 -0.1383 -0.0632 -0.0180
  654POPI   GL210106   6.468  14.166   6.069  0.1200 -0.0535 -0.1149
  654POPI   C1A10107   6.555  14.399   6.497 -0.0456 -0.0710 -0.2715
  654POPI   D2A10108   6.171  14.363   6.739  0.4699 -0.2376 -0.1081
  654POPI   C3A10109   6.003  13.935   6.989  0.0691  0.2879 -0.1953
  654POPI   C4A10110   6.212  13.830   7.427 -0.2203 -0.0632 -0.1001
  654POPI   C1B10111   6.885  14.086   6.290 -0.1299 -0.0904  0.0656
  654POPI   C2B10112   7.357  14.209   6.625  0.1274  0.1126  0.0845
  654POPI   C3B10113   7.523  14.087   7.053 -0.3312  0.0625  0.2628
  654POPI   C4B10114   7.860  13.848   7.384  0.0787 -0.2520  0.2662
  655POPI    C110115   3.798   0.316   5.580  0.1346 -0.2012  0.0057
  655POPI    C210116   3.475   0.186   5.385  0.2330 -0.2659 -0.1152
  655POPI    C310117   3.700   0.476   5.227  0.1563 -0.1236  0.0346
  655POPI   PO410118   3.716   0.322   5.824  0.1274  0.1826 -0.3270
  655POPI   GL110119   3.913   0.526   6.205  0.0719  0.0064 -0.0869
  655POPI   GL210120   3.924   0.846   6.192 -0.4624 -0.3395  0.1100
  655POPI   C1A10121   4.121   0.555   6.615  0.1353 -0.1048  0.0131
  655POPI   D2A10122   4.402   0.681   6.978 -0.1734  0.3646 -0.0913
  655POPI   C3A10123   4.288   0.480   7.364  0.0203  0.0133  0.0264
  655POPI   C4A10124   4.271   0.377   7.780  0.3485  0.0823 -0.3609
  655POPI   C1B10125   4.149   1.019   6.488  0.2753 -0.2294  0.0995
  655POPI   C2B10126   4.384   1.353   6.253  0.0987 -0.6048  0.0534
  655POPI   C3B10127   4.488   1.701   6.382 -0.1267  0.2887 -0.1087
  655POPI   C4B10128   4.229   2.044   6.514 -0.2690  0.0964 -0.1247
  656POPI    C110129   6.549   4.029   5.707 -0.0257  0.3667 -0.0756
  656POPI    C210130   6.826   4.040   5.419  0.0504 -0.0561 -0.0252
  656POPI    C310131   6.476   3.858   5.352  0.0341 -0.0789  0.1202
  656POPI   PO410132   6.558   4.303   5.823  0.0772  0.1168 -0.0412
  656POPI   GL110133   6.385   4.583   6.125  0.0337  0.1791  0.4829
  656POPI   GL210134   6.632   4.377   6.320 -0.3187  0.0078  0.0604
  656POPI   C1A10135   6.384   4.763   6.549 -0.2578  0.5346  0.1457
  656POPI   D2A10136   6.355   5.114   6.729 -0.3388 -0.2432  0.1885
  656POPI   C3A10137   6.804   5.350   6.600 -0.0321 -0.1691 -0.1148
  656POPI   C4A10138   7.171   5.169   6.267  0.0477 -0.0858  0.3480
  656POPI   C1B10139   6.760   4.499   6.726  0.0487  0.0422 -0.1261
  656POPI   C2B10140   6.583   4.583   7.107 -0.2670 -0.0042 -0.0485
  656POPI   C3B10141   6.612   4.683   7.512 -0.0868 -0.0119  0.0021
  656POPI   C4B10142   6.498   4.997   7.713 -0.3619 -0.2124 -0.1892
  657POPI    C110143  18.309  16.691   5.734 -0.3174  0.0859  0.0533
  657POPI    C210144  18.381  17.057   5.877  0.0794  0.0223  0.0287
  657POPI    C310145  18.151  17.010   5.553 -0.0567  0.2395  0.0917
  657POPI   PO410146  18.221  16.513   5.942  0.1247 -0.0040 -0.0903
  657POPI   GL110147  18.126  16.618   6.306 -0.1284  0.0228  0.2625
  657POPI   GL210148  18.179  16.855   6.367  0.1647  0.1176  0.2328
  657POPI   C1A10149  18.177  16.363   6.698 -0.1641 -0.0109 -0.2036
  657POPI   D2A10150  18.105  16.388   7.128 -0.1861 -0.0127 -0.1370
  657POPI   C3A10151  18.089  16.084   7.402 -0.0492  0.1287  0.0348
  657POPI   C4A10152  18.144  15.953   7.829  0.1894  0.0406  0.0408
  657POPI   C1B10153  17.953  16.884   6.673 -0.1745 -0.1546  0.0274
  657POPI   C2B10154  17.822  16.820   7.111 -0.0122 -0.1364  0.1037
  657POPI   C3B10155  17.445  16.793   7.245  0.1706 -0.1608 -0.0522
  657POPI   C4B10156  17.079  17.053   7.183  0.0343  0.1770  0.3418
  658POPI    C110157   6.565  11.601   5.656  0.0932  0.1740  0.1581
  658POPI    C210158   6.477  11.439   6.011  0.0129  0.0641  0.0889
  658POPI    C310159   6.623  11.210   5.718 -0.0881  0.1195 -0.0056
  658POPI   PO410160   6.569  11.862   5.708  0.1063  0.0526  0.2669
  658POPI   GL110161   6.371  12.071   6.065  0.0221  0.3217 -0.0253
  658POPI   GL210162   6.155  12.192   6.137  0.4643 -0.1335 -0.1939
  658POPI   C1A10163   6.610  12.189   6.481  0.2441 -0.1591 -0.0013
  658POPI   D2A10164   6.581  11.911   6.937 -0.0342 -0.1695  0.0794
  658POPI   C3A10165   6.248  11.656   6.999  0.0986  0.1298  0.1258
  658POPI   C4A10166   5.928  11.344   7.130 -0.0730  0.0149 -0.0221
  658POPI   C1B10167   6.156  12.471   6.446 -0.0083 -0.1778  0.1070
  658POPI   C2B10168   6.358  12.403   6.986 -0.0367  0.0478  0.2300
  658POPI   C3B10169   6.466  12.513   7.439 -0.0008 -0.2061 -0.1025
  658POPI   C4B10170   6.529  12.344   7.806 -0.4037  0.0831 -0.2774
  659POPI    C110171   2.572   8.063   6.086 -0.0262  0.0101  0.2866
  659POPI    C210172   2.536   8.461   6.099 -0.0975  0.0007  0.3815
  659POPI    C310173   2.599   8.278   5.749  0.1594  0.1143  0.3664
  659POPI   PO410174   2.323   8.069   6.310  0.1828  0.0205  0.3236
  659POPI   GL110175   2.065   8.002   6.736 -0.0020 -0.2024  0.0850
  659POPI   GL210176   1.955   7.755   6.581  0.1229 -0.0861 -0.6817
  659POPI   C1A10177   1.885   7.958   7.098 -0.3165 -0.1116 -0.2370
  659POPI   D2A10178   1.922   7.691   7.456 -0.2048  0.0105  0.2511
  659POPI   C3A10179   2.262   7.842   7.826 -0.1953  0.2738 -0.0662
  659POPI   C4A10180   2.684   7.663   7.874 -0.3275 -0.1343 -0.0296
  659POPI   C1B10181   1.918   7.383   6.876  0.1486 -0.2107  0.2432
  659POPI   C2B10182   1.914   7.180   7.314 -0.1668 -0.1265 -0.0797
  659POPI   C3B10183   1.744   6.917   7.584 -0.1129 -0.0026  0.0347
  659POPI   C4B10184   1.978   6.514   7.696  0.0595 -0.0003  0.0908
  660POPI    C110185  17.154   8.184   6.007  0.1792  0.0086 -0.0345
  660POPI    C210186  16.929   7.886   5.862  0.0626 -0.1274  0.4100
  660POPI    C310187  17.328   7.872   5.826  0.0315 -0.0926 -0.0033
  660POPI   PO410188  16.912   8.320   6.245  0.0607  0.0378  0.3715
  660POPI   GL110189  16.897   8.344   6.690 -0.2900 -0.0911 -0.0935
  660POPI   GL210190  16.650   8.145   6.897  0.3892 -0.1579  0.0437
  660POPI   C1A10191  16.982   8.742   6.950 -0.2097  0.0654  0.1188
  660POPI   D2A10192  17.218   8.868   7.409 -0.0047 -0.1113 -0.0911
  660POPI   C3A10193  17.014   8.679   7.702 -0.2483 -0.1339 -0.0479
  660POPI   C4A10194  16.621   8.692   7.879  0.4330  0.0511  0.1054
  660POPI   C1B10195  16.573   8.522   7.195 -0.3514 -0.2109  0.3007
  660POPI   C2B10196  16.712   8.916   7.410 -0.0990  0.0285  0.0191
  660POPI   C3B10197  16.436   9.202   7.645 -0.2674  0.2908 -0.2537
  660POPI   C4B10198  16.134   9.101   7.705 -0.1432 -0.0672  0.2194
  661POPI    C110199  10.699   8.856   5.724  0.2973 -0.0312  0.2494
  661POPI    C210200  10.746   8.482   5.590  0.1120  0.1442 -0.3384
  661POPI    C310201  11.043   8.748   5.550  0.1214  0.1501 -0.2300
  661POPI   PO410202  10.489   8.810   5.942 -0.1703 -0.0114 -0.0502
  661POPI   GL110203  10.447   8.698   6.412 -0.1509 -0.1207  0.2909
  661POPI   GL210204  10.619   8.448   6.444  0.2210  0.0362  0.0477
  661POPI   C1A10205  10.324   9.065   6.588 -0.4475 -0.1982 -0.0161
  661POPI   D2A10206  10.148   9.479   6.517 -0.2342 -0.0046  0.3576
  661POPI   C3A10207  10.129   9.818   6.983 -0.0735 -0.0256 -0.2354
  661POPI   C4A10208   9.831  10.078   7.385  0.1243  0.2481 -0.1147
  661POPI   C1B10209  10.748   8.420   6.880 -0.0924 -0.0224 -0.1414
  661POPI   C2B10210  10.648   8.490   7.384  0.3019 -0.0075  0.1391
  661POPI   C3B10211  10.857   8.650   7.720  0.2308  0.1914  0.3108
  661POPI   C4B10212  10.629   9.047   8.038 -0.2266 -0.1766 -0.0151
  662POPI    C110213   2.869   1.674   5.464  0.1998  0.4192  0.3881
  662POPI    C210214   2.540   1.703   5.689  0.0187  0.1052  0.1725
  662POPI    C310215   2.511   1.589   5.307  0.3752  0.1178  0.1381
  662POPI   PO410216   3.041   1.576   5.585  0.1423  0.3297  0.3403
  662POPI   GL110217   2.975   1.473   6.016 -0.0684  0.0549 -0.2851
  662POPI   GL210218   2.830   1.801   6.058 -0.1208  0.2376  0.3078
  662POPI   C1A10219   3.351   1.780   6.171  0.0585 -0.1820  0.1273
  662POPI   D2A10220   3.319   2.007   6.551  0.1386 -0.2388 -0.2967
  662POPI   C3A10221   3.746   2.100   6.790 -0.1083 -0.1811 -0.0085
  662POPI   C4A10222   3.720   2.229   7.268 -0.0321  0.1376 -0.0142
  662POPI   C1B10223   2.915   1.690   6.454  0.2329 -0.4923  0.1197
  662POPI   C2B10224   2.963   1.760   6.881 -0.0153  0.0022 -0.0295
  662POPI   C3B10225   3.032   1.515   7.296 -0.2978  0.1816  0.1572
  662POPI   C4B10226   3.330   1.423   7.580 -0.0002  0.0892 -0.0214
  663POPI    C110227   7.973   3.186   5.396 -0.1225 -0.0883  0.0649
  663POPI    C210228   8.336   3.249   5.240 -0.2025 -0.1323 -0.1419
  663POPI    C310229   8.021   3.454   5.104 -0.2472 -0.0536  0.0758
  663POPI   PO410230   7.956   3.166   5.701  0.0091  0.0661 -0.2445
  663POPI   GL110231   7.921   3.090   6.138 -0.3856  0.0705  0.1443
  663POPI   GL210232   7.554   3.154   6.070  0.0509 -0.0294  0.1637
  663POPI   C1A10233   7.955   3.501   6.395  0.3109  0.1658  0.2843
  663POPI   D2A10234   8.047   3.516   6.867  0.2213 -0.0869 -0.0119
  663POPI   C3A10235   8.174   3.181   7.141  0.0094  0.0869  0.0983
  663POPI   C4A10236   8.453   2.990   7.446  0.1060  0.1995  0.0459
  663POPI   C1B10237   7.443   3.337   6.355  0.1572 -0.2472  0.1415
  663POPI   C2B10238   7.101   3.491   6.487 -0.1825 -0.2352 -0.0183
  663POPI   C3B10239   7.092   3.607   6.884 -0.0009 -0.1832  0.1635
  663POPI   C4B10240   7.069   3.758   7.371 -0.4125  0.0909  0.2574
  664POPI    C110241  13.242   7.373   5.780  0.3634 -0.0592  0.0249
  664POPI    C210242  13.430   7.633   6.019 -0.1303  0.3139  0.0234
  664POPI    C310243  13.444   7.680   5.622  0.3120 -0.0433 -0.0107
  664POPI   PO410244  13.302   7.104   5.946 -0.0190 -0.1646 -0.1544
  664POPI   GL110245  13.173   6.802   6.251 -0.2039  0.0990  0.0325
  664POPI   GL210246  13.126   6.515   6.330  0.0216  0.2743  0.2019
  664POPI   C1A10247  13.344   7.001   6.632  0.0462 -0.1157  0.2663
  664POPI   D2A10248  13.304   7.011   7.012  0.0452 -0.0152  0.1097
  664POPI   C3A10249  12.908   6.852   7.257  0.1481 -0.0976  0.1338
  664POPI   C4A10250  12.667   6.492   7.258 -0.0656 -0.0414  0.2362
  664POPI   C1B10251  12.902   6.204   6.667 -0.0181 -0.2636  0.0441
  664POPI   C2B10252  12.563   6.197   6.896 -0.1291 -0.0069 -0.0705
  664POPI   C3B10253  12.314   5.967   7.241  0.0374 -0.3864 -0.0214
  664POPI   C4B10254  11.895   5.878   7.302 -0.2704 -0.0034  0.1062
  665POPI    C110255  16.165   6.017   6.223 -0.1622 -0.0870 -0.1718
  665POPI    C210256  16.026   6.359   6.069 -0.1079  0.0055 -0.0184
  665POPI    C310257  16.199   6.088   5.831  0.1911  0.2511 -0.0864
  665POPI   PO410258  16.313   6.056   6.460 -0.0119  0.0875 -0.0375
  665POPI   GL110259  16.358   5.758   6.802 -0.1116 -0.0974  0.1572
  665POPI   GL210260  15.916   5.783   6.708  0.0960  0.0423  0.0450
  665POPI   C1A10261  16.304   5.726   7.234 -0.2988 -0.2115  0.1086
  665POPI   D2A10262  16.274   5.573   7.639  0.0748  0.1913  0.0047
  665POPI   C3A10263  16.514   5.677   7.869 -0.1722 -0.0574  0.1756
  665POPI   C4A10264  16.895   5.680   7.875 -0.1945 -0.0954  0.3127
  665POPI   C1B10265  15.873   5.548   7.087 -0.1213  0.0182  0.1112
  665POPI   C2B10266  15.856   5.392   7.443 -0.1129  0.2927 -0.2329
  665POPI   C3B10267  15.756   5.323   7.875 -0.1445  0.0886 -0.1601
  665POPI   C4B10268  15.897   4.955   8.267  0.0843 -0.2324 -0.3294
  666POPI    C110269   5.693   0.569   5.548 -0.1921  0.2555 -0.0013
  666POPI    C210270   5.938   0.620   5.860  0.0479 -0.2033 -0.1053
  666POPI    C310271   6.028   0.784   5.506 -0.0412  0.0206 -0.0255
  666POPI   PO410272   5.421   0.682   5.719 -0.0162 -0.2247  0.1786
  666POPI   GL110273   5.319   0.772   6.133 -0.2592 -0.0242 -0.0424
  666POPI   GL210274   5.213   0.898   6.416 -0.1128 -0.0424 -0.3662
  666POPI   C1A10275   5.496   0.453   6.362 -0.1146 -0.2412  0.0916
  666POPI   D2A10276   5.495   0.281   6.770  0.1647  0.0538 -0.0475
  666POPI   C3A10277   5.397   0.070   7.042 -0.3935  0.0781 -0.1952
  666POPI   C4A10278   5.497  -0.111   7.427  0.0400  0.0671 -0.0154
  666POPI   C1B10279   5.376   0.742   6.767 -0.1813  0.0609 -0.1649
  666POPI   C2B10280   5.406   0.621   7.205  0.0298  0.1201 -0.2516
  666POPI   C3B10281   5.638   0.649   7.616 -0.2669  0.0921  0.0607
  666POPI   C4B10282   5.825   0.818   8.023  0.2413  0.1744  0.0468
  667POPI    C110283   4.266  14.524   5.331  0.0013 -0.0431 -0.0453
  667POPI    C210284   4.201  14.906   5.231 -0.0124 -0.0895 -0.2156
  667POPI    C310285   3.893  14.670   5.329  0.0271  0.0320  0.2196
  667POPI   PO410286   4.407  14.494   5.512  0.4022  0.0427 -0.1313
  667POPI   GL110287   4.500  14.661   5.948  0.2678  0.0929  0.1145
  667POPI   GL210288   4.467  14.334   6.006  0.0113 -0.1011  0.1891
  667POPI   C1A10289   4.375  14.704   6.353  0.0219  0.1622 -0.3766
  667POPI   D2A10290   4.281  14.553   6.766 -0.3126  0.0673  0.0539
  667POPI   C3A10291   4.391  14.752   7.140 -0.0175 -0.2570 -0.1425
  667POPI   C4A10292   4.688  15.055   7.201 -0.0825  0.2324  0.0505
  667POPI   C1B10293   4.453  14.190   6.440 -0.1880  0.0470 -0.3788
  667POPI   C2B10294   4.535  13.983   6.924 -0.1635  0.1840  0.1741
  667POPI   C3B10295   4.743  13.927   7.295  0.1189  0.4510  0.1759
  667POPI   C4B10296   4.434  13.807   7.649  0.2179 -0.0122 -0.3872
  668POPI    C110297  15.851   3.916   6.175  0.1080  0.1127  0.2167
  668POPI    C210298  15.884   3.832   5.785  0.1203  0.1395  0.2119
  668POPI    C310299  15.816   3.538   6.048  0.0711  0.1267  0.1851
  668POPI   PO410300  16.060   4.170   6.142  0.2024 -0.0021 -0.1467
  668POPI   GL110301  16.298   4.338   6.534 -0.1334 -0.0191  0.2255
  668POPI   GL210302  16.147   4.584   6.584 -0.1618  0.2843  0.2859
  668POPI   C1A10303  16.198   4.025   6.901  0.0060 -0.0442 -0.2442
  668POPI   D2A10304  16.252   4.119   7.357  0.1295 -0.0361 -0.0744
  668POPI   C3A10305  16.485   4.247   7.713  0.0608 -0.1335 -0.2574
  668POPI   C4A10306  16.825   4.125   8.003 -0.0593 -0.1781  0.1157
  668POPI   C1B10307  16.120   4.475   7.028 -0.1340  0.0479  0.0511
  668POPI   C2B10308  15.952   4.499   7.520 -0.0973 -0.1700  0.2294
  668POPI   C3B10309  16.010   4.084   7.778  0.0522  0.1373  0.3395
  668POPI   C4B10310  15.908   4.008   8.162 -0.2181  0.3106 -0.1233
  669POPI    C110311  10.399   4.243   5.600  0.0655  0.0659 -0.0481
  669POPI    C210312  10.293   3.978   5.320 -0.1188  0.1404 -0.0507
  669POPI    C310313  10.450   4.330   5.213  0.1616  0.0200 -0.0460
  669POPI   PO410314  10.591   4.134   5.768  0.0817  0.2273  0.1106
  669POPI   GL110315  10.581   4.203   6.176 -0.3377  0.0483  0.4155
  669POPI   GL210316  10.763   4.008   6.365 -0.3258  0.0811  0.2105
  669POPI   C1A10317  10.459   4.620   6.391 -0.1272  0.0546 -0.2110
  669POPI   D2A10318  10.287   4.849   6.771  0.0429 -0.0010 -0.0458
  669POPI   C3A10319  10.019   5.052   7.089  0.1274 -0.0493 -0.3035
  669POPI   C4A10320   9.871   5.062   7.564  0.1785  0.0400  0.1756
  669POPI   C1B10321  10.601   4.048   6.740 -0.0155 -0.1510  0.0216
  669POPI   C2B10322  10.353   3.956   7.068  0.0035 -0.0636  0.1113
  669POPI   C3B10323  10.309   3.614   7.445  0.0852 -0.0418  0.0772
  669POPI   C4B10324  10.049   3.465   7.747  0.1296  0.1164  0.1367
  670POPI    C110325   0.761   3.650   5.049 -0.0212 -0.1268 -0.2758
  670POPI    C210326   0.458   3.897   5.134  0.2028 -0.0321  0.2937
  670POPI    C310327   0.708   3.982   4.833 -0.0310  0.1559  0.1494
  670POPI   PO410328   0.895   3.606   5.273  0.1452 -0.0974 -0.1349
  670POPI   GL110329   0.931   3.441   5.599 -0.0064  0.2528 -0.1917
  670POPI   GL210330   0.804   3.216   5.754  0.2004 -0.1240 -0.2607
  670POPI   C1A10331   0.912   3.676   6.062  0.1740  0.0587  0.2157
  670POPI   D2A10332   0.829   4.091   6.128 -0.0218 -0.4100 -0.1382
  670POPI   C3A10333   0.553   4.078   6.547 -0.0274  0.2467 -0.0345
  670POPI   C4A10334   0.520   3.844   7.027  0.1773 -0.0290  0.0900
  670POPI   C1B10335   0.782   3.201   6.263  0.1602 -0.0009 -0.0177
  670POPI   C2B10336   0.956   2.916   6.616  0.0689  0.0625 -0.2163
  670POPI   C3B10337   0.996   2.897   7.014 -0.0120 -0.1519 -0.0380
  670POPI   C4B10338   0.916   2.949   7.457  0.3832 -0.1911 -0.2132
  671POPI    C110339  15.788   5.182   5.883  0.2765 -0.0793 -0.1848
  671POPI    C210340  15.530   4.927   5.714 -0.2368  0.3166 -0.0239
  671POPI    C310341  15.701   5.213   5.494 -0.0175  0.1240 -0.1069
  671POPI   PO410342  15.911   5.055   6.016 -0.0618 -0.0467  0.0710
  671POPI   GL110343  16.185   5.076   6.379 -0.1281 -0.0030  0.1324
  671POPI   GL210344  16.130   5.271   6.722  0.2982 -0.0563 -0.1082
  671POPI   C1A10345  15.762   4.978   6.642  0.4926 -0.2291  0.1292
  671POPI   D2A10346  15.688   4.554   6.822  0.1778 -0.1263 -0.2883
  671POPI   C3A10347  15.625   4.461   7.166  0.2749  0.1167  0.1976
  671POPI   C4A10348  15.695   4.119   7.381  0.1465 -0.0654  0.0127
  671POPI   C1B10349  15.990   4.949   7.110 -0.4406 -0.3253  0.1093
  671POPI   C2B10350  15.665   4.975   7.319 -0.2151  0.2618  0.0215
  671POPI   C3B10351  15.679   4.869   7.731 -0.0271  0.5620  0.0059
  671POPI   C4B10352  15.637   4.535   8.028  0.1298 -0.1010 -0.2883
  672POPI    C110353   5.672   8.058   6.055  0.1822  0.0470 -0.1544
  672POPI    C210354   5.609   7.728   5.837 -0.0464 -0.0020 -0.0177
  672POPI    C310355   5.701   8.073   5.656 -0.1074 -0.0711 -0.1822
  672POPI   PO410356   5.880   7.965   6.242  0.1597  0.0379 -0.1861
  672POPI   GL110357   5.926   7.796   6.589  0.0991  0.3178 -0.0409
  672POPI   GL210358   5.734   7.540   6.636  0.0720  0.2689  0.0706
  672POPI   C1A10359   6.069   7.773   6.990 -0.0568 -0.1306  0.2302
  672POPI   D2A10360   5.960   8.125   7.288  0.1804 -0.0062 -0.2879
  672POPI   C3A10361   5.670   8.416   7.478 -0.1752 -0.1960 -0.1462
  672POPI   C4A10362   5.455   8.482   7.870  0.0245 -0.1109  0.0500
  672POPI   C1B10363   5.296   7.230   6.642 -0.2067  0.3065 -0.0532
  672POPI   C2B10364   4.828   7.192   6.809  0.0681  0.0288  0.4559
  672POPI   C3B10365   4.711   6.907   7.196  0.1326 -0.3968  0.1338
  672POPI   C4B10366   4.787   6.961   7.638  0.1264  0.2564  0.0818
  673POPI    C110367  17.172  16.422   5.761  0.0940 -0.1631  0.0177
  673POPI    C210368  16.978  16.666   5.510  0.0138  0.0185  0.2522
  673POPI    C310369  16.772  16.433   5.761  0.0949 -0.1079  0.2027
  673POPI   PO410370  17.461  16.636   5.873  0.0651  0.0080  0.1114
  673POPI   GL110371  17.639  16.699   6.340  0.1852  0.1940 -0.0339
  673POPI   GL210372  17.385  16.797   6.364  0.2355  0.1731 -0.2008
  673POPI   C1A10373  17.617  16.525   6.713  0.1821  0.1494  0.0743
  673POPI   D2A10374  17.637  16.301   7.069  0.0942  0.1564  0.2081
  673POPI   C3A10375  17.732  16.518   7.516 -0.1945  0.2594  0.1457
  673POPI   C4A10376  17.754  16.573   7.930  0.1954 -0.2973  0.2167
  673POPI   C1B10377  17.488  17.024   6.746 -0.0095  0.1227 -0.0820
  673POPI   C2B10378  17.623  17.281   7.177 -0.0016 -0.3044 -0.0073
  673POPI   C3B10379  17.736  17.215   7.587  0.1851  0.0833  0.0633
  673POPI   C4B10380  17.633  17.096   7.949  0.0731  0.1900  0.2855
  674POPI    C110381  10.984  15.114   5.599  0.1116  0.1461  0.0667
  674POPI    C210382  10.859  14.931   5.266  0.1077  0.1715  0.0542
  674POPI    C310383  11.239  14.890   5.386 -0.0054 -0.2144  0.2965
  674POPI   PO410384  10.887  14.944   5.760 -0.0261 -0.1763 -0.0288
  674POPI   GL110385  10.591  14.722   5.888 -0.1261  0.0041 -0.0078
  674POPI   GL210386  10.543  14.784   6.292  0.1493 -0.0187  0.1645
  674POPI   C1A10387  10.559  14.324   6.140 -0.0154  0.0947  0.2502
  674POPI   D2A10388  10.760  13.994   6.336 -0.2413  0.1711  0.1666
  674POPI   C3A10389  10.855  13.881   6.802  0.2401  0.2335 -0.0836
  674POPI   C4A10390  11.177  13.727   7.078 -0.2560 -0.0382  0.0039
  674POPI   C1B10391  10.719  14.907   6.685  0.1575 -0.3838  0.1240
  674POPI   C2B10392  10.826  15.101   7.112 -0.3562 -0.0954 -0.0318
  674POPI   C3B10393  10.808  15.081   7.489 -0.1295  0.0243  0.0547
  674POPI   C4B10394  10.789  14.919   7.892 -0.2697  0.0933  0.0619
  675POPI    C110395   9.150  14.265   5.506  0.0857  0.0265  0.0982
  675POPI    C210396   9.382  14.140   5.807  0.2998 -0.1059 -0.1183
  675POPI    C310397   9.357  13.925   5.470  0.2233  0.1447 -0.2755
  675POPI   PO410398   9.219  14.497   5.516  0.0302 -0.0102  0.0572
  675POPI   GL110399   9.251  14.826   5.746  0.4142  0.1750 -0.1784
  675POPI   GL210400   8.942  14.709   5.866  0.4879 -0.1236  0.0523
  675POPI   C1A10401   9.339  14.502   6.136 -0.3208 -0.0442  0.2977
  675POPI   D2A10402   9.585  14.513   6.462 -0.2726  0.1599  0.4298
  675POPI   C3A10403   9.556  14.566   6.828  0.0775 -0.2410  0.2497
  675POPI   C4A10404   9.267  14.576   7.186 -0.0123 -0.0921 -0.3164
  675POPI   C1B10405   8.770  14.619   6.219 -0.1158  0.0928 -0.1757
  675POPI   C2B10406   8.903  14.464   6.510  0.0551  0.1885 -0.0561
  675POPI   C3B10407   9.139  14.296   6.779 -0.0783 -0.0134 -0.4717
  675POPI   C4B10408   9.482  14.120   7.046  0.0609 -0.1225 -0.3289
  676POPI    C110409  16.584   8.968   6.046 -0.0004 -0.0722 -0.0676
  676POPI    C210410  16.290   8.801   5.834  0.0002 -0.2747  0.0888
  676POPI    C310411  16.472   8.592   6.123  0.2466 -0.1254  0.0437
  676POPI   PO410412  16.492   9.232   6.089  0.3083 -0.0311 -0.0761
  676POPI   GL110413  16.406   9.482   6.408  0.2234 -0.5372  0.0572
  676POPI   GL210414  16.106   9.638   6.369  0.1453 -0.2577 -0.0744
  676POPI   C1A10415  16.148   9.359   6.802 -0.0761  0.1961 -0.1033
  676POPI   D2A10416  16.112   9.160   7.235 -0.4363  0.2344  0.3734
  676POPI   C3A10417  15.924   9.504   7.545  0.1342 -0.0205 -0.1228
  676POPI   C4A10418  15.992   9.549   7.954  0.1514 -0.1194  0.3400
  676POPI   C1B10419  15.751   9.592   6.719 -0.2041 -0.3905 -0.1608
  676POPI   C2B10420  15.688   9.478   7.132  0.1618  0.0870  0.1337
  676POPI   C3B10421  15.385   9.447   7.507 -0.1773  0.0296 -0.1450
  676POPI   C4B10422  14.965   9.378   7.474  0.0953 -0.1647 -0.1878
  677POPI    C110423  11.388  13.120   5.460  0.2014  0.1646  0.0788
  677POPI    C210424  11.415  13.210   5.071  0.0680  0.1398  0.0636
  677POPI    C310425  11.283  12.850   5.185 -0.0160  0.1921  0.1332
  677POPI   PO410426  11.587  13.177   5.585  0.0564  0.0397 -0.1228
  677POPI   GL110427  11.533  13.478   6.024 -0.0519  0.2150 -0.1612
  677POPI   GL210428  11.625  13.799   6.002  0.1196 -0.2858  0.2778
  677POPI   C1A10429  11.190  13.449   6.243  0.1678  0.4758 -0.1244
  677POPI   D2A10430  10.877  13.452   6.512 -0.2421  0.1216 -0.1654
  677POPI   C3A10431  10.505  13.580   6.438  0.1764 -0.1825  0.0211
  677POPI   C4A10432  10.275  13.873   6.268 -0.2942 -0.0939  0.3258
  677POPI   C1B10433  11.792  13.826   6.298  0.3079 -0.2207 -0.1899
  677POPI   C2B10434  11.734  14.133   6.561  0.1059 -0.0718  0.1519
  677POPI   C3B10435  11.890  14.396   6.824  0.3859 -0.1082 -0.0668
  677POPI   C4B10436  12.003  14.612   7.310  0.2776  0.2149  0.6014
  678POPI    C110437  16.543   6.894   6.144  0.0936 -0.0711 -0.0628
  678POPI    C210438  16.306   7.163   5.966  0.2693 -0.0267 -0.2332
  678POPI    C310439  16.277   6.776   5.870 -0.2535 -0.1325  0.2907
  678POPI   PO410440  16.540   6.946   6.438  0.0832  0.0100  0.1275
  678POPI   GL110441  16.524   7.085   6.843 -0.0794 -0.0722 -0.2921
  678POPI   GL210442  16.685   6.742   6.863 -0.3878  0.2445 -0.0897
  678POPI   C1A10443  16.342   7.090   7.202 -0.0814  0.0392 -0.1565
  678POPI   D2A10444  16.256   7.419   7.488  0.2262 -0.1173  0.3043
  678POPI   C3A10445  16.520   7.645   7.825  0.2854 -0.0148  0.1396
  678POPI   C4A10446  16.524   7.754   8.258  0.0984 -0.1923 -0.0775
  678POPI   C1B10447  16.850   6.809   7.266  0.2068  0.0836  0.1638
  678POPI   C2B10448  16.741   6.975   7.523  0.2760 -0.0818 -0.0463
  678POPI   C3B10449  16.705   7.194   7.856  0.0798 -0.0905 -0.1018
  678POPI   C4B10450  16.607   7.281   8.312 -0.0285  0.4680  0.0996
  679POPI    C110451   7.135  10.027   5.562  0.1144  0.1245 -0.1078
  679POPI    C210452   7.017   9.653   5.644 -0.2273  0.2611  0.0413
  679POPI    C310453   7.085   9.763   5.266  0.2379 -0.0519  0.0263
  679POPI   PO410454   7.295  10.092   5.818  0.1178 -0.4173  0.1846
  679POPI   GL110455   7.266  10.019   6.265 -0.1541  0.2791  0.3193
  679POPI   GL210456   7.021  10.116   6.390  0.1441  0.2820  0.0040
  679POPI   C1A10457   7.426  10.225   6.656 -0.2167 -0.0032 -0.0363
  679POPI   D2A10458   7.644  10.259   7.076  0.1064  0.0278 -0.0165
  679POPI   C3A10459   7.557  10.011   7.470 -0.0685 -0.0553 -0.0433
  679POPI   C4A10460   7.630   9.660   7.638 -0.2756  0.1816  0.0710
  679POPI   C1B10461   7.139   9.803   6.741 -0.1672  0.2274 -0.3386
  679POPI   C2B10462   7.472   9.772   7.074  0.4377 -0.0328  0.1695
  679POPI   C3B10463   7.736   9.564   7.014  0.0613 -0.1062 -0.0391
  679POPI   C4B10464   7.822   9.044   6.887  0.2275 -0.1594  0.5331
  680POPI    C110465   9.962  14.627   5.190 -0.1707 -0.0328  0.1201
  680POPI    C210466  10.171  14.289   5.236  0.1433  0.1392 -0.0031
  680POPI    C310467  10.010  14.378   4.881  0.0538  0.1170  0.0315
  680POPI   PO410468  10.084  14.769   5.500  0.2377  0.0320  0.2260
  680POPI   GL110469   9.991  15.133   5.750 -0.0704 -0.2220  0.0174
  680POPI   GL210470   9.743  14.842   5.898  0.0707 -0.3393 -0.0188
  680POPI   C1A10471  10.159  14.987   6.085  0.0196 -0.1287  0.0873
  680POPI   D2A10472  10.140  14.569   6.243  0.1228 -0.0819 -0.2672
  680POPI   C3A10473  10.348  14.555   6.637  0.0593  0.1103  0.0198
  680POPI   C4A10474  10.450  14.140   6.670  0.2816 -0.1157 -0.1206
  680POPI   C1B10475   9.527  14.940   6.186  0.0690  0.2515  0.1593
  680POPI   C2B10476   9.446  15.028   6.616 -0.2693  0.2498 -0.0480
  680POPI   C3B10477   9.517  14.984   7.085 -0.2874  0.0340  0.0671
  680POPI   C4B10478   9.551  15.193   7.533 -0.3959 -0.2316 -0.1247
  681POPI    C110479   6.697  13.090   5.214  0.2122 -0.0950  0.1624
  681POPI    C210480   6.816  12.870   4.902  0.1095 -0.1304  0.1478
  681POPI    C310481   6.517  12.742   5.134 -0.0264  0.0466  0.0727
  681POPI   PO410482   6.919  13.191   5.355 -0.1887 -0.0969 -0.1672
  681POPI   GL110483   6.940  13.266   5.786 -0.1473  0.0245  0.1261
  681POPI   GL210484   7.139  13.459   6.018 -0.2461  0.3131 -0.0574
  681POPI   C1A10485   6.746  13.105   6.163 -0.0165 -0.1144 -0.1991
  681POPI   D2A10486   6.742  13.109   6.583 -0.0379 -0.1210 -0.0438
  681POPI   C3A10487   6.859  13.401   6.880  0.0335  0.1861 -0.2476
  681POPI   C4A10488   6.663  13.523   7.221 -0.0506  0.3228  0.4251
  681POPI   C1B10489   7.267  13.112   6.336 -0.1361 -0.0573  0.3847
  681POPI   C2B10490   7.217  12.984   6.729  0.0506  0.2937 -0.0204
  681POPI   C3B10491   7.261  13.227   7.055  0.2301  0.5086  0.1693
  681POPI   C4B10492   7.320  13.684   7.384  0.1413 -0.4393  0.1259
  682POPI    C110493   2.626  16.926   5.414 -0.1170  0.2243 -0.2911
  682POPI    C210494   2.948  16.696   5.352  0.0495  0.3417  0.1096
  682POPI    C310495   2.784  16.896   5.047  0.1391  0.0037 -0.1663
  682POPI   PO410496   2.529  16.684   5.633 -0.1621  0.1205 -0.0020
  682POPI   GL110497   2.650  16.692   5.996 -0.2911 -0.0633 -0.1209
  682POPI   GL210498   2.765  16.865   6.303 -0.1489  0.3436  0.1612
  682POPI   C1A10499   2.454  16.446   6.360 -0.1725 -0.3905 -0.3103
  682POPI   D2A10500   2.371  16.442   6.797 -0.0342 -0.1763 -0.1643
  682POPI   C3A10501   1.970  16.377   6.897 -0.2523 -0.4523  0.0958
  682POPI   C4A10502   1.823  16.494   7.288 -0.2856 -0.1265  0.0141
  682POPI   C1B10503   2.637  16.923   6.627  0.2380 -0.1482 -0.0002
  682POPI   C2B10504   2.587  17.019   7.094 -0.2287 -0.0395  0.0417
  682POPI   C3B10505   2.745  16.890   7.465 -0.0039 -0.1197  0.1425
  682POPI   C4B10506   2.920  16.486   7.561 -0.2838  0.4508 -0.0224
  683POPI    C110507  16.451  15.781   5.732  0.1823 -0.1156  0.1034
  683POPI    C210508  16.461  15.496   6.012  0.3219 -0.0701  0.1456
  683POPI    C310509  16.606  15.423   5.647  0.1988 -0.1086  0.1040
  683POPI   PO410510  16.178  15.853   5.746 -0.0186  0.0693 -0.1559
  683POPI   GL110511  16.037  15.872   6.146 -0.2014 -0.2331  0.2352
  683POPI   GL210512  16.061  15.668   6.354  0.0311 -0.3503 -0.0896
  683POPI   C1A10513  16.259  16.018   6.595 -0.0778 -0.4255 -0.2769
  683POPI   D2A10514  16.263  16.153   7.081 -0.3113 -0.1402  0.0878
  683POPI   C3A10515  16.517  16.454   7.163 -0.0166  0.0823 -0.0493
  683POPI   C4A10516  16.665  16.751   7.025 -0.3732 -0.0907 -0.2412
  683POPI   C1B10517  16.295  15.335   6.576 -0.2299 -0.2205  0.3473
  683POPI   C2B10518  16.337  14.848   6.657  0.1295 -0.1231 -0.2287
  683POPI   C3B10519  16.520  14.530   6.640 -0.0912 -0.1147 -0.1025
  683POPI   C4B10520  16.959  14.407   6.450  0.0835 -0.0039  0.2593
  684POPI    C110521   2.877   0.560   5.464  0.0591 -0.1680 -0.0657
  684POPI    C210522   2.831   0.773   5.129 -0.0815 -0.2384 -0.0918
  684POPI    C310523   3.161   0.553   5.183  0.1933  0.1975  0.0544
  684POPI   PO410524   2.721   0.718   5.679  0.0460  0.1119  0.0854
  684POPI   GL110525   2.645   0.903   6.119  0.2949  0.0667 -0.0184
  684POPI   GL210526   2.363   0.907   6.077 -0.0606 -0.0483  0.4248
  684POPI   C1A10527   2.740   1.206   6.496  0.0956 -0.0800  0.1216
  684POPI   D2A10528   2.699   1.264   6.967  0.2226 -0.1587  0.1576
  684POPI   C3A10529   2.795   0.988   7.291  0.0502  0.1710  0.1319
  684POPI   C4A10530   2.579   0.792   7.535 -0.1520 -0.0514 -0.1223
  684POPI   C1B10531   2.165   1.122   6.436 -0.0221 -0.1228 -0.0610
  684POPI   C2B10532   2.094   1.039   6.789  0.0448  0.0227  0.1199
  684POPI   C3B10533   2.239   1.200   7.173 -0.2297  0.0823 -0.1754
  684POPI   C4B10534   2.349   1.218   7.508  0.0844  0.0559  0.0426
  685POPI    C110535  17.813  16.268   5.828  0.1951 -0.0724 -0.1138
  685POPI    C210536  17.698  16.233   5.446 -0.0598  0.0811 -0.0533
  685POPI    C310537  17.871  16.571   5.573 -0.2444  0.1440  0.0341
  685POPI   PO410538  17.832  15.963   5.886  0.1070  0.0292  0.3011
  685POPI   GL110539  17.845  15.718   6.277 -0.2132  0.2574 -0.0675
  685POPI   GL210540  17.487  15.678   6.242 -0.0339  0.0346  0.0870
  685POPI   C1A10541  18.142  15.806   6.528  0.3026 -0.4306 -0.2360
  685POPI   D2A10542  18.172  15.873   6.956  0.3606  0.4375  0.2506
  685POPI   C3A10543  18.414  15.667   7.350  0.3510  0.0244 -0.3482
  685POPI   C4A10544  18.441  15.538   7.809 -0.1091  0.1608 -0.2559
  685POPI   C1B10545  17.586  15.414   6.669 -0.1815  0.1670  0.0351
  685POPI   C2B10546  17.582  15.294   7.119  0.1160 -0.2073  0.2640
  685POPI   C3B10547  17.670  15.080   7.508 -0.2119 -0.3221 -0.1098
  685POPI   C4B10548  17.907  14.733   7.657  0.2439  0.0432  0.2103
  686POPI    C110549   5.981   4.442   5.817 -0.1619 -0.1324 -0.0275
  686POPI    C210550   5.638   4.304   5.665 -0.1411  0.1744 -0.3667
  686POPI    C310551   5.881   4.528   5.440  0.0494  0.3689  0.0225
  686POPI   PO410552   5.867   4.485   6.146  0.0382 -0.2893  0.3221
  686POPI   GL110553   5.764   4.556   6.514  0.2571  0.1158 -0.0646
  686POPI   GL210554   6.130   4.363   6.565  0.0151 -0.1648  0.1299
  686POPI   C1A10555   5.667   4.601   6.910 -0.2202 -0.1678 -0.2056
  686POPI   D2A10556   5.601   4.582   7.293  0.2494 -0.0231 -0.1451
  686POPI   C3A10557   5.142   4.548   7.463  0.1245  0.0613  0.2465
  686POPI   C4A10558   4.864   4.904   7.596 -0.2627  0.1095  0.0762
  686POPI   C1B10559   6.104   4.424   7.031  0.1807 -0.0987 -0.1193
  686POPI   C2B10560   6.159   4.418   7.441  0.1629  0.1346  0.3181
  686POPI   C3B10561   6.370   4.393   7.840  0.2680  0.2816 -0.0251
  686POPI   C4B10562   6.226   4.479   8.296  0.0178  0.3004  0.1707
  687POPI    C110563   6.529   0.080   5.074  0.0399  0.1556 -0.2438
  687POPI    C210564   6.706  -0.229   4.891 -0.2151 -0.0423 -0.1629
  687POPI    C310565   6.316  -0.245   4.978 -0.1304  0.1071  0.2684
  687POPI   PO410566   6.718   0.124   5.363  0.1357  0.0835  0.0483
  687POPI   GL110567   6.784  -0.002   5.737 -0.0742  0.1327  0.0994
  687POPI   GL210568   6.622  -0.143   5.994  0.1511  0.0848  0.3460
  687POPI   C1A10569   6.670   0.335   6.125  0.1864 -0.0241 -0.0445
  687POPI   D2A10570   6.281   0.475   6.393  0.0812 -0.0500  0.4165
  687POPI   C3A10571   5.894   0.217   6.219 -0.1794 -0.0352 -0.0880
  687POPI   C4A10572   5.686  -0.116   6.174 -0.2896  0.3000 -0.2152
  687POPI   C1B10573   6.236  -0.093   6.313 -0.0242 -0.2090  0.0121
  687POPI   C2B10574   5.914  -0.137   6.624  0.2024  0.1575 -0.0291
  687POPI   C3B10575   5.814  -0.223   7.045 -0.0913 -0.0243  0.4576
  687POPI   C4B10576   5.758   0.293   7.287 -0.1541 -0.1540  0.2951
  688POPI    C110577   2.901   7.317   5.739  0.0905 -0.0307  0.0354
  688POPI    C210578   3.187   7.502   5.530  0.1681 -0.0488  0.1248
  688POPI    C310579   3.129   7.109   5.486  0.0142 -0.0076 -0.0528
  688POPI   PO410580   2.904   7.226   5.979 -0.0080 -0.0559 -0.1428
  688POPI   GL110581   2.919   7.392   6.409  0.0697  0.0878  0.0669
  688POPI   GL210582   3.052   7.564   6.571 -0.1339  0.0509 -0.2188
  688POPI   C1A10583   2.821   6.992   6.609 -0.0570 -0.0268 -0.0799
  688POPI   D2A10584   2.885   6.921   6.974 -0.1590  0.0043  0.2860
  688POPI   C3A10585   3.067   7.101   7.279  0.0803  0.0595 -0.4758
  688POPI   C4A10586   3.075   7.406   7.656 -0.1460 -0.2906  0.2092
  688POPI   C1B10587   2.920   7.531   6.903 -0.2107 -0.0073  0.3385
  688POPI   C2B10588   2.659   7.434   7.278  0.0807  0.0397  0.1020
  688POPI   C3B10589   2.308   7.447   7.556 -0.1594  0.2720 -0.4524
  688POPI   C4B10590   2.014   7.380   7.865  0.0849 -0.4401 -0.3716
  689POPI    C110591   1.401  13.598   5.674  0.3064 -0.0613  0.0463
  689POPI    C210592   1.497  13.964   5.804  0.1547  0.2165 -0.5831
  689POPI    C310593   1.772  13.739   5.621  0.1782  0.1167 -0.4278
  689POPI   PO410594   1.202  13.483   5.801 -0.2266 -0.1268  0.0486
  689POPI   GL110595   1.103  13.370   6.154  0.0464 -0.0026  0.2515
  689POPI   GL210596   1.160  13.382   6.503  0.0747  0.1375  0.0583
  689POPI   C1A10597   0.912  13.788   6.492  0.0055  0.0423 -0.0135
  689POPI   D2A10598   0.931  14.201   6.549 -0.0342  0.0146  0.1322
  689POPI   C3A10599   0.789  14.242   6.987  0.2874  0.1370 -0.0094
  689POPI   C4A10600   0.964  14.388   7.456 -0.0570  0.0887  0.0245
  689POPI   C1B10601   1.177  13.314   6.977  0.4451 -0.0946  0.1346
  689POPI   C2B10602   1.282  13.522   7.376  0.0991 -0.0141 -0.0627
  689POPI   C3B10603   1.382  13.451   7.795 -0.0295 -0.1933  0.0595
  689POPI   C4B10604   1.610  13.606   8.038  0.1427 -0.1896  0.0556
  690POPI    C110605  12.762  15.108   5.150  0.0163 -0.0662  0.0691
  690POPI    C210606  12.668  14.765   5.334  0.1032 -0.1296 -0.0036
  690POPI    C310607  13.035  14.817   5.183  0.0190 -0.0979 -0.2012
  690POPI   PO410608  12.744  15.346   5.377  0.1083  0.1175 -0.3546
  690POPI   GL110609  12.914  15.587   5.721  0.1694  0.1701  0.0354
  690POPI   GL210610  12.958  15.412   6.036 -0.1708 -0.0042  0.4108
  690POPI   C1A10611  12.746  15.879   6.143 -0.2611 -0.1272 -0.0443
  690POPI   D2A10612  12.827  16.018   6.643 -0.4246  0.0553  0.4423
  690POPI   C3A10613  12.781  15.985   7.103  0.0714  0.4178  0.1088
  690POPI   C4A10614  13.115  15.963   7.368 -0.0084 -0.1141  0.1597
  690POPI   C1B10615  13.038  15.487   6.402  0.1918  0.2232 -0.0260
  690POPI   C2B10616  12.913  15.506   6.907 -0.1182  0.0546  0.0625
  690POPI   C3B10617  12.601  15.502   7.171 -0.0416  0.0052  0.1934
  690POPI   C4B10618  12.230  15.663   7.332  0.2145  0.0194 -0.1711
  691POPI    C110619   8.360  11.232   5.252  0.0068  0.0010  0.0125
  691POPI    C210620   8.026  11.423   5.363 -0.0656 -0.0333 -0.1431
  691POPI    C310621   8.010  11.140   5.081  0.0609 -0.1853  0.0002
  691POPI   PO410622   8.453  11.016   5.479 -0.1992 -0.3257 -0.1168
  691POPI   GL110623   8.640  10.908   5.804  0.3782  0.0952 -0.2692
  691POPI   GL210624   8.851  11.187   5.901 -0.0001  0.0847 -0.4043
  691POPI   C1A10625   8.482  10.928   6.226 -0.1361 -0.0130 -0.2499
  691POPI   D2A10626   8.598  10.862   6.658 -0.3423  0.1818  0.3107
  691POPI   C3A10627   8.224  10.892   6.876 -0.3579  0.1315  0.0426
  691POPI   C4A10628   8.008  10.625   7.024  0.1233  0.1460 -0.1725
  691POPI   C1B10629   8.911  11.137   6.398  0.0038 -0.0812  0.2735
  691POPI   C2B10630   9.202  10.920   6.649 -0.1627  0.1432  0.0256
  691POPI   C3B10631   9.349  10.498   6.801 -0.0378  0.2895 -0.2482
  691POPI   C4B10632   9.705  10.174   6.810 -0.0205  0.0699 -0.0249
  692POPI    C110633  11.782  15.737   5.519  0.1785  0.2166  0.2124
  692POPI    C210634  12.107  15.956   5.442  0.3765 -0.1541 -0.0400
  692POPI    C310635  11.912  15.776   5.143 -0.1726  0.2070  0.0857
  692POPI   PO410636  11.830  15.528   5.626  0.1960  0.1465  0.0225
  692POPI   GL110637  12.113  15.450   5.996  0.0072  0.0066  0.0003
  692POPI   GL210638  11.935  15.172   5.929  0.2853 -0.2747  0.1274
  692POPI   C1A10639  12.100  15.272   6.415 -0.0956  0.0702 -0.3967
  692POPI   D2A10640  12.097  15.368   6.901  0.1399  0.0345 -0.2431
  692POPI   C3A10641  12.033  15.203   7.278  0.0697  0.5365 -0.1340
  692POPI   C4A10642  11.759  15.037   7.492  0.1712 -0.1854  0.3043
  692POPI   C1B10643  11.668  15.128   6.216 -0.0556  0.0170 -0.0191
  692POPI   C2B10644  11.731  15.088   6.651  0.1126  0.0002 -0.0946
  692POPI   C3B10645  11.644  14.822   7.051 -0.1315  0.0407 -0.2847
  692POPI   C4B10646  11.483  14.464   7.113  0.0210  0.0305  0.0115
  693POPI    C110647  13.339   0.391   5.096 -0.0879  0.0887 -0.0182
  693POPI    C210648  13.734   0.329   5.086 -0.1023 -0.0040 -0.0168
  693POPI    C310649  13.589   0.700   5.050 -0.0321 -0.0106 -0.4184
  693POPI   PO410650  13.261   0.245   5.288 -0.2929 -0.0802 -0.1825
  693POPI   GL110651  13.029   0.370   5.776 -0.1162 -0.0069 -0.0264
  693POPI   GL210652  12.987   0.107   5.978 -0.0576 -0.0046  0.1074
  693POPI   C1A10653  12.803   0.580   6.169  0.1374  0.1483  0.0943
  693POPI   D2A10654  12.824   0.515   6.618  0.2495  0.4328 -0.1278
  693POPI   C3A10655  12.549   0.403   6.854 -0.1456 -0.1294 -0.1084
  693POPI   C4A10656  12.213   0.448   7.216 -0.1012  0.2387 -0.2002
  693POPI   C1B10657  13.011   0.091   6.415  0.1851 -0.1004  0.1142
  693POPI   C2B10658  12.874  -0.057   6.870  0.0910  0.0295  0.0233
  693POPI   C3B10659  12.506  -0.074   7.130  0.1836  0.3541 -0.1121
  693POPI   C4B10660  12.198  -0.053   7.460  0.2229 -0.0678 -0.0111
  694POPI    C110661  13.061  12.042   5.175 -0.0429 -0.2278  0.1094
  694POPI    C210662  13.047  11.705   4.960 -0.1768 -0.1754  0.0347
  694POPI    C310663  12.733  11.953   4.964 -0.1010 -0.0800  0.1361
  694POPI   PO410664  13.174  11.989   5.386  0.2834  0.3820  0.0626
  694POPI   GL110665  13.350  12.247   5.784 -0.1795  0.2093  0.2203
  694POPI   GL210666  13.427  12.460   6.050  0.0084 -0.3972 -0.2204
  694POPI   C1A10667  13.358  11.893   6.105  0.0295  0.2884 -0.1764
  694POPI   D2A10668  13.810  11.636   6.216  0.0197 -0.0815  0.4275
  694POPI   C3A10669  14.069  11.774   6.552  0.0751 -0.0067  0.0976
  694POPI   C4A10670  13.903  11.832   6.927  0.1718 -0.1704  0.0624
  694POPI   C1B10671  13.446  12.560   6.456  0.0686 -0.4837 -0.1519
  694POPI   C2B10672  13.487  12.617   6.925 -0.2030 -0.3225  0.1878
  694POPI   C3B10673  13.462  12.716   7.397  0.2104  0.1138  0.3449
  694POPI   C4B10674  13.640  12.757   7.828  0.1343  0.1232  0.1082
  695POPI    C110675  14.327   1.897   5.847 -0.0240  0.0811 -0.0843
  695POPI    C210676  14.434   1.561   5.658 -0.0511  0.1591 -0.2397
  695POPI    C310677  14.049   1.670   5.672 -0.0394  0.1970 -0.2119
  695POPI   PO410678  14.457   1.822   6.095  0.0387  0.2373 -0.1165
  695POPI   GL110679  14.355   1.704   6.479  0.2843 -0.1864  0.0114
  695POPI   GL210680  14.648   1.798   6.653 -0.3544  0.0298 -0.3624
  695POPI   C1A10681  14.302   1.651   6.997 -0.3122 -0.0830 -0.0584
  695POPI   D2A10682  14.395   1.519   7.405  0.2207  0.1083 -0.0867
  695POPI   C3A10683  14.273   1.466   7.748  0.0182 -0.2612 -0.2150
  695POPI   C4A10684  13.933   1.419   8.116 -0.2048 -0.3040 -0.0822
  695POPI   C1B10685  14.630   2.230   6.903  0.0630  0.3709  0.0225
  695POPI   C2B10686  14.482   2.502   7.281  0.1350  0.0058  0.1885
  695POPI   C3B10687  14.479   2.631   7.646  0.2970  0.0389  0.2799
  695POPI   C4B10688  14.793   2.562   8.001  0.3087 -0.3349 -0.1731
  696POPI    C110689  16.058  17.724   5.927  0.2013  0.6394  0.2171
  696POPI    C210690  15.666  17.726   6.004  0.1899  0.1981  0.1935
  696POPI    C310691  15.797  17.804   5.635  0.0873 -0.1693  0.0756
  696POPI   PO410692  16.250  17.695   6.193  0.0064  0.0044 -0.1474
  696POPI   GL110693  16.335  17.479   6.394  0.1969  0.1917 -0.1046
  696POPI   GL210694  16.097  17.417   6.669 -0.1355 -0.1228  0.1363
  696POPI   C1A10695  16.477  17.146   6.705  0.0023 -0.1959 -0.3937
  696POPI   D2A10696  16.156  16.924   6.920  0.1026 -0.0859 -0.0582
  696POPI   C3A10697  15.923  17.020   7.335  0.1647 -0.2413  0.0220
  696POPI   C4A10698  16.041  17.008   7.779 -0.0405  0.0419  0.1106
  696POPI   C1B10699  15.697  17.273   6.844  0.3084  0.0480  0.0073
  696POPI   C2B10700  15.409  16.842   6.838  0.1551 -0.1228  0.1353
  696POPI   C3B10701  14.967  16.703   6.706  0.2276 -0.0228  0.0321
  696POPI   C4B10702  14.633  16.613   6.448  0.0531 -0.2818  0.1485
  697POPI    C110703  13.627   4.290   6.125 -0.0747  0.1562  0.0797
  697POPI    C210704  13.913   4.224   5.854  0.0773 -0.2647  0.3326
  697POPI    C310705  13.895   4.575   6.044 -0.2247  0.1593 -0.4365
  697POPI   PO410706  13.647   4.083   6.314  0.1255 -0.0159  0.3266
  697POPI   GL110707  13.721   4.172   6.800 -0.0473 -0.0603  0.0102
  697POPI   GL210708  13.870   4.402   6.559 -0.2274 -0.0116  0.0499
  697POPI   C1A10709  13.757   4.196   7.334 -0.1625  0.0662 -0.1185
  697POPI   D2A10710  13.775   3.991   7.687 -0.2107  0.0182  0.1815
  697POPI   C3A10711  14.190   4.163   7.757 -0.3455  0.0025  0.1983
  697POPI   C4A10712  14.494   4.237   7.954  0.0779 -0.3191  0.0777
  697POPI   C1B10713  14.314   4.552   6.879  0.1423  0.0394  0.0556
  697POPI   C2B10714  14.673   4.869   6.865  0.1353 -0.1407 -0.1191
  697POPI   C3B10715  14.937   5.115   7.199  0.4600  0.1759  0.1693
  697POPI   C4B10716  15.129   5.007   7.524 -0.0100  0.1571  0.0714
  698POPI    C110717  15.093  14.862   6.015  0.1280  0.1196 -0.2330
  698POPI    C210718  14.765  15.033   5.862  0.0150  0.0643 -0.0558
  698POPI    C310719  14.838  14.646   5.795 -0.0178  0.0480  0.0013
  698POPI   PO410720  15.251  15.145   5.902  0.0761  0.0452 -0.3967
  698POPI   GL110721  15.231  15.493   6.314 -0.0399 -0.2117 -0.2479
  698POPI   GL210722  14.993  15.328   6.341  0.1730 -0.3479 -0.4336
  698POPI   C1A10723  15.649  15.500   6.621  0.1531  0.0918 -0.1098
  698POPI   D2A10724  15.872  15.784   6.951 -0.0606  0.1339  0.1721
  698POPI   C3A10725  15.687  16.085   7.204  0.1429 -0.0582 -0.1790
  698POPI   C4A10726  15.440  16.288   7.555  0.0208  0.1521 -0.0761
  698POPI   C1B10727  14.859  15.654   6.703  0.2521  0.1044 -0.1828
  698POPI   C2B10728  14.659  15.870   7.091  0.0920 -0.0669  0.0149
  698POPI   C3B10729  14.395  15.949   7.503 -0.0914 -0.0833  0.0308
  698POPI   C4B10730  14.376  16.412   7.642  0.1955 -0.4114 -0.2557
  699POPI    C110731  12.304   7.439   5.792 -0.0445  0.1931 -0.0962
  699POPI    C210732  12.622   7.444   5.549 -0.0820  0.0732 -0.1488
  699POPI    C310733  12.423   7.782   5.625  0.0366  0.1424 -0.1438
  699POPI   PO410734  12.349   7.343   5.969  0.1023  0.1905 -0.1935
  699POPI   GL110735  12.556   7.535   6.310  0.0828 -0.3610  0.1187
  699POPI   GL210736  12.444   7.845   6.150  0.0076  0.0837 -0.0263
  699POPI   C1A10737  12.743   7.462   6.631  0.0130 -0.1839  0.0398
  699POPI   D2A10738  12.828   7.237   6.948  0.0869 -0.1464 -0.0289
  699POPI   C3A10739  13.092   7.313   7.285 -0.3177 -0.0098 -0.3206
  699POPI   C4A10740  13.328   7.636   7.584 -0.0271  0.0085 -0.0545
  699POPI   C1B10741  12.296   8.026   6.527  0.2708  0.2378  0.0954
  699POPI   C2B10742  12.346   8.086   6.977 -0.0436  0.0721  0.1873
  699POPI   C3B10743  12.317   8.428   7.227  0.1960  0.0801  0.4626
  699POPI   C4B10744  12.352   8.489   7.677  0.0018  0.2856  0.3078
  700POPI    C110745   7.249  11.023   5.285  0.1785  0.0813  0.0386
  700POPI    C210746   7.631  10.923   5.348  0.1378 -0.1030 -0.0015
  700POPI    C310747   7.517  11.059   4.990  0.1881  0.0646  0.0453
  700POPI   PO410748   7.185  11.199   5.591 -0.1222  0.3328  0.0503
  700POPI   GL110749   7.075  11.016   6.007  0.0599  0.0490 -0.1911
  700POPI   GL210750   6.957  11.333   6.055 -0.0731 -0.0610  0.2325
  700POPI   C1A10751   6.998  10.814   6.365 -0.2907  0.2057  0.0572
  700POPI   D2A10752   6.907  10.465   6.678  0.1115 -0.2480  0.0488
  700POPI   C3A10753   6.855  10.563   7.156 -0.1536 -0.0777  0.4008
  700POPI   C4A10754   6.661  10.939   7.468  0.0559 -0.0597 -0.1101
  700POPI   C1B10755   6.932  11.338   6.425 -0.1045  0.1229 -0.1500
  700POPI   C2B10756   6.863  11.370   6.909 -0.0950 -0.1458 -0.0426
  700POPI   C3B10757   6.859  11.598   7.267 -0.2407 -0.2120 -0.3150
  700POPI   C4B10758   7.038  11.726   7.644 -0.0211 -0.1102  0.1354
  701POPS   CNO10759   0.940  16.697   5.484  0.0723 -0.0018  0.2183
  701POPS   PO410760   1.140  16.292   5.555 -0.1340  0.0054  0.0555
  701POPS   GL110761   1.246  16.409   5.910  0.1385  0.2442  0.0668
  701POPS   GL210762   1.192  16.442   6.364 -0.2282  0.0493  0.0767
  701POPS   C1A10763   1.552  16.673   6.161  0.0526  0.1280  0.0862
  701POPS   D2A10764   1.428  17.088   6.443  0.3470 -0.2206 -0.0846
  701POPS   C3A10765   1.755  17.346   6.726 -0.1342 -0.3580  0.0586
  701POPS   C4A10766   1.710  17.670   6.976  0.0692  0.0134  0.0250
  701POPS   C1B10767   1.134  16.828   6.707  0.0637 -0.2890 -0.1714
  701POPS   C2B10768   0.870  17.090   7.038 -0.0821  0.0943  0.0383
  701POPS   C3B10769   0.626  17.055   7.409  0.1997  0.1584 -0.1961
  701POPS   C4B10770   0.561  17.038   7.750  0.0433 -0.1243 -0.2089
  702POPS   CNO10771   8.707  10.114   5.530  0.1490  0.0636 -0.1758
  702POPS   PO410772   8.851   9.656   5.740  0.1107 -0.0740  0.0112
  702POPS   GL110773   8.821   9.929   6.123  0.0681 -0.2122 -0.1859
  702POPS   GL210774   9.124  10.013   6.242  0.0086  0.0153  0.1029
  702POPS   C1A10775   8.731   9.903   6.585 -0.0029  0.1169 -0.3287
  702POPS   D2A10776   8.804   9.860   6.997 -0.2529 -0.1259  0.1842
  702POPS   C3A10777   8.498   9.768   7.413 -0.1017 -0.1701 -0.1617
  702POPS   C4A10778   8.101   9.501   7.716 -0.2270 -0.3052 -0.2196
  702POPS   C1B10779   9.352   9.984   6.564 -0.2476 -0.1159 -0.0982
  702POPS   C2B10780   9.306   9.903   6.943 -0.0279 -0.4161 -0.6902
  702POPS   C3B10781   9.316  10.045   7.264  0.1150 -0.3452 -0.0099
  702POPS   C4B10782   9.380  10.009   7.670 -0.0880  0.2263  0.3177
  703POPS   CNO10783  10.403   0.112   5.314  0.1881 -0.2266 -0.3077
  703POPS   PO410784  10.794  -0.131   5.352 -0.2872  0.3743 -0.2499
  703POPS   GL110785  11.011  -0.254   5.630  0.3751 -0.1495 -0.2151
  703POPS   GL210786  11.261  -0.102   5.550  0.1455  0.1804  0.3504
  703POPS   C1A10787  11.322  -0.632   5.731  0.0887 -0.1599  0.2444
  703POPS   D2A10788  11.693  -0.702   5.841  0.0001  0.2974 -0.3031
  703POPS   C3A10789  11.657  -0.632   6.297 -0.3508 -0.1584  0.1833
  703POPS   C4A10790  11.335  -0.536   6.482  0.0184  0.2283  0.0416
  703POPS   C1B10791  11.442  -0.190   5.964  0.1091 -0.0453  0.0547
  703POPS   C2B10792  11.108  -0.145   6.377  0.0559  0.0691  0.0229
  703POPS   C3B10793  11.167   0.082   6.712 -0.1078  0.0283  0.0345
  703POPS   C4B10794  11.522   0.121   7.046 -0.0644  0.1199 -0.0251
  704POPS   CNO10795  16.157  16.944   5.578 -0.1808  0.2040 -0.5073
  704POPS   PO410796  16.417  16.788   5.962 -0.1815  0.1846  0.0785
  704POPS   GL110797  16.640  16.572   6.262  0.1954 -0.3845 -0.2978
  704POPS   GL210798  16.942  16.496   6.354 -0.1614  0.0761  0.0440
  704POPS   C1A10799  16.425  16.490   6.650  0.0275  0.0199  0.0072
  704POPS   D2A10800  15.997  16.509   6.728 -0.3964  0.1446  0.0590
  704POPS   C3A10801  15.830  16.580   7.106  0.1649 -0.1515 -0.0063
  704POPS   C4A10802  15.885  16.490   7.509 -0.1724 -0.0708 -0.0571
  704POPS   C1B10803  16.813  16.185   6.716  0.2919  0.1705 -0.1698
  704POPS   C2B10804  16.720  15.988   7.106 -0.1501  0.2228  0.0650
  704POPS   C3B10805  16.693  15.737   7.454  0.2132  0.0724 -0.0228
  704POPS   C4B10806  16.865  15.473   7.860  0.1808  0.0099  0.0487
  705POPS   CNO10807   6.486   0.876   5.396  0.0753 -0.2447  0.6099
  705POPS   PO410808   6.620   1.311   5.345 -0.0902  0.1540  0.0635
  705POPS   GL110809   6.651   1.221   5.827  0.2631  0.0867 -0.1985
  705POPS   GL210810   6.881   1.029   5.973 -0.0597 -0.0839  0.2190
  705POPS   C1A10811   6.412   0.976   6.137  0.0245 -0.0782  0.0643
  705POPS   D2A10812   6.025   0.930   6.278  0.1640 -0.1063 -0.1529
  705POPS   C3A10813   5.860   0.737   6.657 -0.2384 -0.2030  0.0128
  705POPS   C4A10814   5.980   0.321   6.799  0.2216  0.1075 -0.1458
  705POPS   C1B10815   6.843   1.189   6.389  0.0870  0.1151  0.2736
  705POPS   C2B10816   6.703   1.173   6.898  0.1249  0.0363  0.1927
  705POPS   C3B10817   6.462   1.024   7.230 -0.2378  0.2221 -0.0122
  705POPS   C4B10818   6.202   0.824   7.583 -0.0152  0.2151 -0.3264
  706POPS   CNO10819   2.548   2.193   5.824  0.0159  0.0795  0.2228
  706POPS   PO410820   2.108   2.360   5.860 -0.1330  0.0867  0.1978
  706POPS   GL110821   2.104   2.482   6.316  0.1850 -0.1116  0.4070
  706POPS   GL210822   2.350   2.211   6.302  0.0899  0.0486  0.1699
  706POPS   C1A10823   1.909   2.577   6.724 -0.0690  0.0095  0.1712
  706POPS   D2A10824   1.939   2.309   7.180  0.1623 -0.3337  0.2695
  706POPS   C3A10825   2.256   2.175   7.362 -0.0553 -0.2186  0.0866
  706POPS   C4A10826   2.614   2.435   7.463  0.2008  0.0493  0.0513
  706POPS   C1B10827   2.664   2.129   6.456 -0.1059 -0.0291 -0.1945
  706POPS   C2B10828   2.727   2.204   6.992  0.3058  0.2014 -0.1080
  706POPS   C3B10829   2.925   2.067   7.374 -0.1530  0.0894 -0.2182
  706POPS   C4B10830   2.908   1.782   7.746 -0.1573 -0.0247 -0.0110
  707POPS   CNO10831   5.710  15.542   5.694 -0.2104 -0.2642 -0.1738
  707POPS   PO410832   5.532  16.011   5.506  0.0023  0.1145  0.0973
  707POPS   GL110833   5.558  16.004   6.016 -0.4128  0.1218  0.0692
  707POPS   GL210834   5.427  15.713   6.059  0.0446  0.3117 -0.1212
  707POPS   C1A10835   5.319  16.034   6.432  0.1257  0.1558  0.1271
  707POPS   D2A10836   5.089  16.048   6.821 -0.1987 -0.2160 -0.0166
  707POPS   C3A10837   5.199  16.119   7.182 -0.3155  0.1020 -0.0724
  707POPS   C4A10838   5.292  16.394   7.550  0.0849  0.0693 -0.2046
  707POPS   C1B10839   5.629  15.667   6.416 -0.1749  0.2528  0.2958
  707POPS   C2B10840   5.588  15.672   6.858 -0.2502  0.0489  0.2041
  707POPS   C3B10841   5.378  15.682   7.175  0.0470  0.1334 -0.1498
  707POPS   C4B10842   4.852  15.686   7.203  0.5149 -0.0275  0.0832
  708POPS   CNO10843  17.097   6.234   6.067 -0.2457  0.0200  0.1960
  708POPS   PO410844  17.138   6.120   6.434 -0.0011 -0.1526 -0.2486
  708POPS   GL110845  17.000   6.316   6.768 -0.0783  0.1844 -0.0343
  708POPS   GL210846  16.687   6.257   6.697  0.2275  0.5647 -0.4730
  708POPS   C1A10847  17.099   6.320   7.220 -0.5156 -0.3397  0.1005
  708POPS   D2A10848  17.056   6.491   7.574 -0.1755  0.0328  0.1609
  708POPS   C3A10849  16.870   6.223   7.938 -0.0297 -0.4556 -0.2254
  708POPS   C4A10850  17.158   6.010   8.212 -0.0585 -0.1524  0.0234
  708POPS   C1B10851  16.636   6.233   7.143  0.1532 -0.0687  0.3461
  708POPS   C2B10852  16.569   6.451   7.450 -0.0203  0.2064  0.0341
  708POPS   C3B10853  16.643   6.675   7.875 -0.1240 -0.0969  0.1861
  708POPS   C4B10854  16.269   6.824   8.079 -0.0046 -0.0244 -0.0935
  709POPS   CNO10855  11.145  13.387   5.774 -0.1097 -0.1954 -0.2222
  709POPS   PO410856  10.744  13.584   5.681  0.1816 -0.4157 -0.2579
  709POPS   GL110857  10.704  13.344   6.031 -0.0776 -0.0360 -0.1681
  709POPS   GL210858  10.898  13.088   6.075  0.1389 -0.0220 -0.1377
  709POPS   C1A10859  10.503  12.994   6.331  0.0879 -0.0289 -0.1098
  709POPS   D2A10860  10.601  12.995   6.736  0.1175 -0.0381 -0.2760
  709POPS   C3A10861  10.605  13.433   6.917 -0.0680  0.1595 -0.0624
  709POPS   C4A10862  10.824  13.539   7.358 -0.0370  0.2232 -0.0151
  709POPS   C1B10863  11.028  13.001   6.475  0.2117 -0.1751 -0.1882
  709POPS   C2B10864  11.120  13.172   6.889  0.2280 -0.0228 -0.0115
  709POPS   C3B10865  11.117  13.199   7.318 -0.2007  0.3419 -0.2851
  709POPS   C4B10866  10.857  13.171   7.695 -0.3811 -0.0339  0.1734
  710POPS   CNO10867   5.999  13.690   5.644  0.0760 -0.1470 -0.1623
  710POPS   PO410868   5.722  14.124   5.760  0.0017  0.1097 -0.1743
  710POPS   GL110869   5.712  14.204   6.136 -0.0639  0.1068  0.1065
  710POPS   GL210870   5.965  14.322   6.282  0.0511  0.1582 -0.0196
  710POPS   C1A10871   5.677  14.048   6.583 -0.0337 -0.1717 -0.1425
  710POPS   D2A10872   5.557  13.745   6.932 -0.3281 -0.1666  0.0778
  710POPS   C3A10873   5.575  13.278   6.931  0.3821 -0.1956 -0.1666
  710POPS   C4A10874   5.755  12.931   6.776  0.1554  0.0493 -0.4719
  710POPS   C1B10875   5.822  14.648   6.582  0.0895  0.0959 -0.2128
  710POPS   C2B10876   5.563  14.712   6.931 -0.2585  0.0229 -0.0267
  710POPS   C3B10877   5.728  14.729   7.385 -0.2788  0.2847 -0.0913
  710POPS   C4B10878   6.167  14.780   7.702  0.1367 -0.3063 -0.0959
  711POPS   CNO10879   3.505  15.084   5.958  0.0059  0.2140 -0.0698
  711POPS   PO410880   3.179  14.851   5.537  0.0317 -0.1130  0.0479
  711POPS   GL110881   3.050  14.871   5.981  0.1717 -0.1202 -0.0407
  711POPS   GL210882   2.943  14.647   6.086  0.0780 -0.0020 -0.1176
  711POPS   C1A10883   2.949  15.157   6.311 -0.1867  0.4453 -0.2786
  711POPS   D2A10884   2.560  15.445   6.363 -0.2259 -0.1932 -0.0296
  711POPS   C3A10885   2.661  15.348   6.860  0.1000 -0.0131 -0.1186
  711POPS   C4A10886   2.422  15.228   7.172 -0.1289  0.0724 -0.1673
  711POPS   C1B10887   2.992  14.784   6.579  0.0117  0.1349 -0.1618
  711POPS   C2B10888   3.213  14.743   6.934  0.1152 -0.2989  0.3897
  711POPS   C3B10889   3.445  14.381   7.143 -0.0126  0.0430  0.1691
  711POPS   C4B10890   3.616  14.061   7.112  0.1711  0.3227 -0.0807
  712POPS   CNO10891  17.002  11.533   6.005 -0.2494  0.2999 -0.1114
  712POPS   PO410892  16.678  11.635   5.915 -0.2168  0.2314  0.0502
  712POPS   GL110893  16.619  11.639   6.329 -0.3836  0.1849  0.1343
  712POPS   GL210894  16.520  11.886   6.368 -0.1506 -0.0926  0.0147
  712POPS   C1A10895  16.731  11.565   6.719 -0.0296  0.1065  0.2128
  712POPS   D2A10896  16.880  11.217   7.086 -0.1222  0.1294 -0.0952
  712POPS   C3A10897  17.082  11.233   7.538 -0.0037 -0.0463  0.1785
  712POPS   C4A10898  17.170  11.293   7.986  0.2453  0.2230 -0.0798
  712POPS   C1B10899  16.467  11.929   6.870  0.2363 -0.0697 -0.0840
  712POPS   C2B10900  16.373  11.980   7.324 -0.1947 -0.1369 -0.0444
  712POPS   C3B10901  16.155  12.265   7.491  0.3053  0.1914  0.1141
  712POPS   C4B10902  16.068  12.731   7.351  0.2279  0.1743 -0.0448
  713POPS   CNO10903   6.141  11.375   5.568 -0.0084  0.2190 -0.2329
  713POPS   PO410904   6.125  11.074   5.821  0.0588  0.0203  0.1798
  713POPS   GL110905   6.059  11.177   6.233 -0.0224 -0.1306 -0.0022
  713POPS   GL210906   6.190  10.894   6.410  0.4408  0.0729  0.0513
  713POPS   C1A10907   5.965  11.429   6.573  0.2885  0.5137 -0.4430
  713POPS   D2A10908   5.598  11.716   6.910 -0.4388  0.3235 -0.0830
  713POPS   C3A10909   5.382  12.071   6.862 -0.3985 -0.1610  0.1681
  713POPS   C4A10910   5.168  12.181   6.437  0.0795 -0.1283 -0.0173
  713POPS   C1B10911   5.913  10.961   6.782 -0.0864  0.4355 -0.1479
  713POPS   C2B10912   5.706  10.843   7.072  0.0679  0.0965 -0.2025
  713POPS   C3B10913   5.582  11.062   7.391 -0.0176 -0.2760 -0.0571
  713POPS   C4B10914   5.763  11.195   7.776  0.1362  0.1624  0.3124
  714POPS   CNO10915   1.441   3.333   5.695 -0.0077  0.0719  0.1473
  714POPS   PO410916   1.873   3.124   5.755  0.0099 -0.1555 -0.0401
  714POPS   GL110917   1.767   3.249   6.174  0.0303 -0.3404  0.2446
  714POPS   GL210918   2.000   3.044   6.285  0.1287  0.4244  0.3359
  714POPS   C1A10919   1.692   3.418   6.544 -0.1734 -0.2575 -0.4025
  714POPS   D2A10920   1.619   3.470   6.923  0.1345  0.0626 -0.0153
  714POPS   C3A10921   1.271   3.200   7.224  0.2109 -0.5039  0.0780
  714POPS   C4A10922   1.462   3.059   7.602 -0.1581 -0.0170 -0.2317
  714POPS   C1B10923   2.224   3.039   6.636  0.1763 -0.3488  0.3563
  714POPS   C2B10924   2.304   3.196   7.057  0.1721 -0.1323  0.1820
  714POPS   C3B10925   2.316   3.288   7.443  0.2499 -0.2738  0.1417
  714POPS   C4B10926   2.107   3.242   7.756  0.0911 -0.1994 -0.2340
  715POPS   CNO10927  14.078  12.779   5.656  0.0657  0.0851  0.3683
  715POPS   PO410928  13.633  12.727   5.577 -0.1002 -0.1194 -0.2598
  715POPS   GL110929  13.346  12.951   5.794  0.2844 -0.0406  0.1413
  715POPS   GL210930  13.656  13.120   5.879 -0.0942 -0.2202 -0.3136
  715POPS   C1A10931  13.076  12.873   6.193  0.3275  0.0877 -0.2771
  715POPS   D2A10932  12.931  12.727   6.473  0.0987 -0.2224 -0.1280
  715POPS   C3A10933  12.991  12.829   6.853  0.2478  0.3223 -0.0308
  715POPS   C4A10934  13.001  12.585   7.226 -0.1267  0.0276  0.0542
  715POPS   C1B10935  13.648  13.118   6.292 -0.0064  0.1186 -0.2182
  715POPS   C2B10936  13.449  13.115   6.614  0.3299 -0.1111  0.4190
  715POPS   C3B10937  13.311  13.161   7.081  0.0648 -0.0036  0.3218
  715POPS   C4B10938  12.936  13.206   7.199 -0.0554 -0.0323 -0.2926
  716POPS   CNO10939   4.544   2.642   5.768 -0.3656  0.1995 -0.0804
  716POPS   PO410940   4.559   2.980   5.983  0.1179 -0.1771 -0.2760
  716POPS   GL110941   4.271   3.095   6.181  0.3627  0.0921  0.0823
  716POPS   GL210942   3.920   3.010   6.091 -0.0686 -0.1406 -0.1434
  716POPS   C1A10943   4.089   3.290   6.562  0.1509  0.0628  0.0454
  716POPS   D2A10944   4.145   3.257   6.999 -0.0088  0.1074  0.1826
  716POPS   C3A10945   3.938   3.450   7.320  0.1744  0.0700  0.1673
  716POPS   C4A10946   3.877   3.457   7.824  0.2004  0.2708  0.3979
  716POPS   C1B10947   3.933   2.813   6.475  0.2016  0.3816 -0.0585
  716POPS   C2B10948   4.028   2.476   6.752  0.0924  0.2176 -0.0832
  716POPS   C3B10949   4.239   2.275   7.038 -0.3249  0.1498 -0.0689
  716POPS   C4B10950   4.394   2.474   7.265  0.1594  0.0303  0.0654
  717POPS   CNO10951   2.044  12.541   5.241 -0.0237 -0.0421 -0.1386
  717POPS   PO410952   2.250  12.642   5.653 -0.0624  0.0875  0.3408
  717POPS   GL110953   2.298  12.595   6.012 -0.3774 -0.0681  0.2954
  717POPS   GL210954   2.128  12.347   6.178  0.1563 -0.2550  0.2402
  717POPS   C1A10955   2.290  12.727   6.512  0.0960 -0.0154 -0.0903
  717POPS   D2A10956   2.501  12.680   6.796 -0.1754  0.0484  0.1871
  717POPS   C3A10957   2.550  12.801   7.287 -0.1978  0.3729 -0.1341
  717POPS   C4A10958   2.648  12.922   7.715  0.0653 -0.1567 -0.0989
  717POPS   C1B10959   2.151  12.118   6.616  0.1223 -0.3380  0.2337
  717POPS   C2B10960   2.264  11.915   6.967 -0.3262 -0.0585  0.1639
  717POPS   C3B10961   2.503  11.663   7.271  0.3146 -0.0160  0.2008
  717POPS   C4B10962   2.687  11.811   7.631  0.0120  0.1888 -0.2003
  718POPS   CNO10963   3.760   6.698   6.180  0.0347  0.0812 -0.0905
  718POPS   PO410964   3.854   6.248   6.114 -0.0126  0.1572 -0.2126
  718POPS   GL110965   3.914   6.380   6.572 -0.0196  0.0310 -0.0944
  718POPS   GL210966   3.960   6.721   6.636  0.0049  0.0169 -0.2066
  718POPS   C1A10967   4.064   6.188   7.076 -0.1354 -0.1639 -0.1398
  718POPS   D2A10968   4.425   6.158   7.328 -0.0602 -0.1380  0.1704
  718POPS   C3A10969   4.418   5.642   7.503  0.2556 -0.1374 -0.1955
  718POPS   C4A10970   4.557   5.350   7.796  0.2069  0.4048 -0.1020
  718POPS   C1B10971   3.931   7.093   6.878  0.0022 -0.0362  0.2181
  718POPS   C2B10972   4.119   7.221   7.230 -0.5751  0.1313 -0.0247
  718POPS   C3B10973   4.092   7.518   7.598  0.1490  0.1749 -0.4113
  718POPS   C4B10974   3.985   7.633   8.043  0.1112  0.1889 -0.1128
  719POPS   CNO10975   4.583   4.616   5.521  0.1831 -0.0873 -0.1821
  719POPS   PO410976   4.915   4.580   5.815 -0.0971 -0.1121  0.0378
  719POPS   GL110977   4.948   4.834   6.213 -0.2460 -0.0088  0.1043
  719POPS   GL210978   5.232   4.764   6.438 -0.1504  0.1136 -0.0373
  719POPS   C1A10979   4.817   4.814   6.652  0.1752 -0.0981  0.3416
  719POPS   D2A10980   4.561   5.150   6.835 -0.0061  0.0970  0.0408
  719POPS   C3A10981   4.516   4.984   7.164 -0.0927  0.0443  0.2746
  719POPS   C4A10982   4.354   4.528   7.255 -0.3489 -0.0005 -0.1654
  719POPS   C1B10983   5.241   4.494   6.758 -0.1745  0.0830 -0.0450
  719POPS   C2B10984   5.342   4.218   7.046 -0.2085  0.1404  0.2360
  719POPS   C3B10985   5.409   4.059   7.507  0.0544  0.0638 -0.1367
  719POPS   C4B10986   5.636   3.631   7.724 -0.1514  0.1872 -0.1231
  720POPS   CNO10987  17.729   5.752   5.229  0.2405  0.0207  0.0702
  720POPS   PO410988  17.703   5.629   5.759 -0.0587 -0.1309  0.2946
  720POPS   GL110989  17.874   5.603   6.195 -0.1312  0.1404  0.0716
  720POPS   GL210990  17.737   5.826   6.393  0.1426  0.3361  0.0072
  720POPS   C1A10991  18.096   5.485   6.532  0.2380 -0.3557  0.1298
  720POPS   D2A10992  18.337   5.559   6.957 -0.0071  0.4054  0.1063
  720POPS   C3A10993  18.485   5.290   7.264 -0.0852  0.4001  0.0600
  720POPS   C4A10994  18.473   4.956   7.584  0.1726 -0.3531 -0.3129
  720POPS   C1B10995  17.688   5.641   6.813  0.1745 -0.3690 -0.1228
  720POPS   C2B10996  17.575   5.715   7.346 -0.1934 -0.1302  0.0127
  720POPS   C3B10997  17.904   5.789   7.688 -0.3274  0.2557 -0.0867
  720POPS   C4B10998  18.262   5.768   7.964 -0.2181  0.0227 -0.2501
  721POPS   CNO10999  17.638   3.305   5.732  0.2456  0.1129 -0.0470
  721POPS   PO411000  18.016   3.189   6.019 -0.1584 -0.1632 -0.0453
  721POPS   GL111001  17.926   3.045   6.398  0.2749 -0.2467 -0.1341
  721POPS   GL211002  18.089   3.165   6.514  0.3234 -0.0684  0.0867
  721POPS   C1A11003  17.866   3.111   6.922 -0.0336  0.0555  0.1356
  721POPS   D2A11004  17.763   3.411   7.208 -0.1742 -0.0953  0.3225
  721POPS   C3A11005  17.873   3.629   7.614  0.1720  0.0544  0.2674
  721POPS   C4A11006  17.562   3.694   7.860  0.1674 -0.0597 -0.0842
  721POPS   C1B11007  18.280   3.378   6.736  0.3111  0.1637 -0.3205
  721POPS   C2B11008  18.251   3.283   7.242  0.0879 -0.1593  0.1315
  721POPS   C3B11009  18.294   3.202   7.685  0.0426 -0.1347  0.0807
  721POPS   C4B11010  18.331   3.100   8.102 -0.0434  0.1543  0.2103
  722POPS   CNO11011   7.512  14.740   5.005 -0.2219 -0.1817 -0.1934
  722POPS   PO411012   7.342  14.818   5.484 -0.3342  0.1214  0.1011
  722POPS   GL111013   7.291  14.783   5.872  0.1665  0.0875  0.1181
  722POPS   GL211014   6.992  14.955   6.006 -0.1151 -0.1298  0.1208
  722POPS   C1A11015   7.182  14.494   6.220  0.1044 -0.1825  0.1223
  722POPS   D2A11016   7.404  14.668   6.754  0.1920  0.0236 -0.0800
  722POPS   C3A11017   7.518  14.548   7.158 -0.0525  0.0831  0.0940
  722POPS   C4A11018   7.322  14.348   7.495  0.2719 -0.0044 -0.0847
  722POPS   C1B11019   7.309  14.991   6.350  0.0958  0.0587  0.1467
  722POPS   C2B11020   7.215  15.189   6.671 -0.1308 -0.1202 -0.3899
  722POPS   C3B11021   7.330  15.109   6.970  0.0408  0.0949  0.1133
  722POPS   C4B11022   7.749  15.051   7.176  0.0665 -0.2540  0.1220
  723POPS   CNO11023  14.623  11.911   5.767  0.0420  0.3544 -0.1314
  723POPS   PO411024  14.440  11.579   5.579 -0.0496 -0.1969  0.2072
  723POPS   GL111025  14.629  11.440   5.973 -0.3428 -0.3197  0.1508
  723POPS   GL211026  15.017  11.513   5.897 -0.0064  0.2263  0.0395
  723POPS   C1A11027  14.394  11.430   6.387  0.1171 -0.1244 -0.0520
  723POPS   D2A11028  14.284  11.408   6.850 -0.0429  0.0458 -0.0422
  723POPS   C3A11029  14.354  11.525   7.216 -0.3990  0.3469  0.3359
  723POPS   C4A11030  14.143  11.943   7.344 -0.1149 -0.1045 -0.0939
  723POPS   C1B11031  14.877  11.449   6.347 -0.0595  0.3033  0.1036
  723POPS   C2B11032  14.776  11.457   6.868  0.1473 -0.0862 -0.0775
  723POPS   C3B11033  14.719  11.796   7.090  0.0670  0.2404  0.3246
  723POPS   C4B11034  14.633  11.800   7.508 -0.0762 -0.2795  0.0271
  724POPS   CNO11035   8.251   6.030   5.323  0.0772 -0.2898 -0.2547
  724POPS   PO411036   8.205   5.716   5.434 -0.0653 -0.2051  0.0747
  724POPS   GL111037   8.365   5.799   5.801 -0.0819  0.2093 -0.2595
  724POPS   GL211038   8.123   5.558   6.031 -0.2325  0.2433 -0.0519
  724POPS   C1A11039   8.531   6.055   6.141 -0.1109  0.2387 -0.1156
  724POPS   D2A11040   8.603   6.519   6.136  0.0104 -0.0229 -0.0022
  724POPS   C3A11041   8.836   6.716   6.325  0.0181 -0.0463  0.1249
  724POPS   C4A11042   9.149   6.558   6.581  0.1488  0.0826  0.1609
  724POPS   C1B11043   8.138   5.514   6.427  0.0403 -0.2146 -0.0546
  724POPS   C2B11044   8.058   5.071   6.765 -0.1779 -0.2910 -0.0649
  724POPS   C3B11045   8.018   4.670   6.777 -0.1289 -0.3618  0.1879
  724POPS   C4B11046   8.241   4.327   6.915 -0.1484 -0.1386  0.0317
  725POPS   CNO11047   2.032  15.058   5.819 -0.0680 -0.0401 -0.0178
  725POPS   PO411048   2.311  15.483   5.903  0.2260 -0.0262  0.0807
  725POPS   GL111049   2.003  15.324   6.267  0.2588 -0.2768 -0.3643
  725POPS   GL211050   1.951  14.979   6.377 -0.2138 -0.1294 -0.0387
  725POPS   C1A11051   2.114  15.356   6.709 -0.0234  0.2239  0.4204
  725POPS   D2A11052   2.115  14.901   7.002 -0.4252 -0.1064  0.1680
  725POPS   C3A11053   2.288  14.532   6.985  0.1228  0.0533  0.3513
  725POPS   C4A11054   2.243  14.129   7.177  0.3513 -0.2748  0.1753
  725POPS   C1B11055   2.402  14.924   6.582 -0.0847 -0.3102  0.0847
  725POPS   C2B11056   2.673  14.847   7.005 -0.0495 -0.1687 -0.0261
  725POPS   C3B11057   3.046  14.759   7.420 -0.0128 -0.0216 -0.1722
  725POPS   C4B11058   3.220  14.861   7.867  0.0857  0.5304 -0.1341
  726POPS   CNO11059   8.276  15.515   5.507  0.1321  0.0489 -0.1659
  726POPS   PO411060   8.495  15.335   5.743  0.3563 -0.0153 -0.4668
  726POPS   GL111061   8.602  15.436   6.111  0.3132  0.0738 -0.0716
  726POPS   GL211062   8.534  15.760   6.312 -0.2781  0.2198 -0.1453
  726POPS   C1A11063   8.635  15.379   6.653  0.1105 -0.0476 -0.3213
  726POPS   D2A11064   8.646  15.489   7.153 -0.4210 -0.2633  0.2680
  726POPS   C3A11065   8.940  15.372   7.438  0.3678  0.1513  0.1434
  726POPS   C4A11066   9.233  15.614   7.518  0.2127 -0.0059 -0.2604
  726POPS   C1B11067   8.910  15.881   6.595  0.2028 -0.0523  0.0443
  726POPS   C2B11068   9.076  15.812   7.081 -0.2514  0.0738 -0.1380
  726POPS   C3B11069   8.793  15.889   7.520  0.0305  0.0675  0.0187
  726POPS   C4B11070   8.447  15.567   7.739 -0.1754 -0.0308  0.1494
  727POPS   CNO11071  14.777   4.827   6.299 -0.0405  0.0340  0.0074
  727POPS   PO411072  14.644   4.399   6.228 -0.1858  0.1565  0.2065
  727POPS   GL111073  14.704   4.361   6.658  0.0612  0.2357  0.1077
  727POPS   GL211074  14.552   4.086   6.696 -0.0330  0.1272  0.2180
  727POPS   C1A11075  14.754   4.291   7.108  0.0573 -0.2425  0.0449
  727POPS   D2A11076  14.651   4.049   7.510 -0.0578  0.1720 -0.2682
  727POPS   C3A11077  14.960   4.092   7.879 -0.0035 -0.1822 -0.1890
  727POPS   C4A11078  14.936   4.243   8.242 -0.1141  0.1041  0.3001
  727POPS   C1B11079  14.730   3.718   7.180  0.0236  0.0232  0.4517
  727POPS   C2B11080  14.622   3.429   7.468 -0.1403 -0.4973 -0.2615
  727POPS   C3B11081  14.346   3.694   7.839  0.2238  0.2960 -0.1760
  727POPS   C4B11082  13.998   3.613   7.988  0.1519 -0.4049  0.0623
  728POPS   CNO11083   2.129   8.233   5.670 -0.1091 -0.2004  0.0056
  728POPS   PO411084   2.083   8.584   5.821  0.0490  0.0035 -0.2408
  728POPS   GL111085   2.002   8.509   6.264 -0.1869  0.1495 -0.1784
  728POPS   GL211086   2.243   8.525   6.510 -0.1330 -0.0804  0.3243
  728POPS   C1A11087   1.712   8.617   6.510 -0.0452  0.0633 -0.0659
  728POPS   D2A11088   1.730   8.448   6.963  0.0020  0.1373  0.0926
  728POPS   C3A11089   1.707   8.636   7.348 -0.0727  0.3452 -0.2572
  728POPS   C4A11090   1.434   8.755   7.686 -0.0507  0.4933  0.1515
  728POPS   C1B11091   2.121   8.743   6.902  0.3027 -0.0580 -0.2305
  728POPS   C2B11092   2.325   8.947   7.257 -0.2030 -0.1140 -0.2604
  728POPS   C3B11093   2.350   8.816   7.741  0.1208 -0.1667 -0.0426
  728POPS   C4B11094   2.523   8.790   8.264  0.2157 -0.0150  0.1046
  729POPS   CNO11095  10.221  13.742   5.775  0.2062  0.0746  0.3035
  729POPS   PO411096   9.805  13.989   5.650 -0.1009  0.2004  0.2476
  729POPS   GL111097   9.821  13.783   6.064  0.2040  0.1318 -0.2284
  729POPS   GL211098   9.815  14.134   6.165 -0.1405  0.2728  0.0652
  729POPS   C1A11099   9.750  13.591   6.455 -0.2830 -0.2587  0.1911
  729POPS   D2A11100  10.094  13.662   6.752 -0.0663  0.1140 -0.0135
  729POPS   C3A11101  10.243  13.813   7.085  0.0146 -0.2421 -0.0954
  729POPS   C4A11102  10.598  14.070   7.291  0.0008 -0.1930  0.0370
  729POPS   C1B11103   9.836  14.060   6.629  0.1107 -0.0181  0.0381
  729POPS   C2B11104  10.050  14.269   6.966 -0.1282  0.3514  0.0960
  729POPS   C3B11105  10.170  14.311   7.288  0.1903  0.3068 -0.0940
  729POPS   C4B11106  10.307  14.486   7.737 -0.1548 -0.0472  0.0120
  730POPS   CNO11107   1.966   5.448   5.831 -0.0457 -0.3179 -0.0574
  730POPS   PO411108   2.203   5.456   6.182  0.1551 -0.0968  0.0735
  730POPS   GL111109   2.208   5.283   6.648 -0.1602  0.0039  0.2336
  730POPS   GL211110   2.076   5.234   6.832 -0.1390  0.0990 -0.1086
  730POPS   C1A11111   2.540   5.501   7.000 -0.1044  0.0822 -0.1757
  730POPS   D2A11112   2.721   5.642   7.284 -0.0348  0.0107  0.3921
  730POPS   C3A11113   2.680   6.034   7.559  0.1192 -0.1184  0.2054
  730POPS   C4A11114   2.439   6.232   7.852  0.0502 -0.0906 -0.3641
  730POPS   C1B11115   2.005   5.608   6.977  0.0183  0.0447 -0.2658
  730POPS   C2B11116   1.808   5.990   7.334  0.1549 -0.1338 -0.1000
  730POPS   C3B11117   1.833   6.074   7.770 -0.0101  0.0809 -0.0681
  730POPS   C4B11118   2.004   6.123   8.177  0.1744 -0.1189  0.2181
  731POPS   CNO11119  17.534   7.220   6.086 -0.2117 -0.0309 -0.1005
  731POPS   PO411120  17.461   7.462   6.548  0.0026  0.1281  0.2698
  731POPS   GL111121  17.427   7.701   6.928  0.0038  0.0315 -0.1188
  731POPS   GL211122  17.033   7.698   6.953 -0.0659 -0.0837 -0.2449
  731POPS   C1A11123  17.645   7.921   7.395  0.2688 -0.1166 -0.0539
  731POPS   D2A11124  17.467   8.154   7.694  0.2692  0.0780 -0.1401
  731POPS   C3A11125  17.466   7.851   8.070 -0.0904 -0.0904 -0.1354
  731POPS   C4A11126  17.409   7.870   8.577 -0.0765  0.0948  0.2290
  731POPS   C1B11127  17.191   7.681   7.397 -0.0991  0.0850  0.0150
  731POPS   C2B11128  17.005   7.593   7.699 -0.0146  0.2265  0.1927
  731POPS   C3B11129  17.027   7.565   8.058 -0.1551  0.1924  0.0415
  731POPS   C4B11130  17.156   7.329   8.312 -0.0627  0.1757 -0.1709
  732POPS   CNO11131   2.356   1.066   5.164 -0.0830  0.3184  0.2094
  732POPS   PO411132   2.248   0.957   5.559 -0.0713 -0.2522 -0.0766
  732POPS   GL111133   2.077   1.249   5.816 -0.1744  0.0537 -0.1183
  732POPS   GL211134   1.785   1.015   5.919  0.0728  0.1655 -0.0238
  732POPS   C1A11135   1.873   1.462   6.195  0.2743 -0.0225  0.3981
  732POPS   D2A11136   1.779   1.797   6.468 -0.2920  0.0919  0.0313
  732POPS   C3A11137   2.069   2.042   6.643 -0.0202  0.2637 -0.0868
  732POPS   C4A11138   2.275   2.262   6.806 -0.1794  0.2154  0.0148
  732POPS   C1B11139   1.688   0.943   6.379  0.1701  0.1188  0.0503
  732POPS   C2B11140   1.558   0.936   6.730 -0.1733  0.0776  0.2758
  732POPS   C3B11141   1.685   1.032   7.167  0.1180 -0.0511 -0.1939
  732POPS   C4B11142   1.944   0.894   7.414 -0.1488  0.1968 -0.0530
  733POPS   CNO11143  13.379   3.167   6.205  0.2467  0.4238  0.1684
  733POPS   PO411144  13.322   3.621   6.046 -0.1024 -0.0796  0.0782
  733POPS   GL111145  13.166   3.568   6.392 -0.0656  0.0942 -0.0099
  733POPS   GL211146  12.940   3.278   6.356 -0.0646  0.0821 -0.3579
  733POPS   C1A11147  13.325   3.476   6.786  0.1257 -0.1103 -0.0781
  733POPS   D2A11148  13.598   3.355   7.036 -0.4269  0.0122 -0.0707
  733POPS   C3A11149  13.655   3.027   7.303  0.1799  0.0022  0.1606
  733POPS   C4A11150  13.322   3.002   7.573 -0.0798 -0.1693 -0.2327
  733POPS   C1B11151  13.127   3.042   6.731  0.0990 -0.0410  0.2833
  733POPS   C2B11152  13.135   3.193   7.139  0.0959  0.1855 -0.2500
  733POPS   C3B11153  13.290   3.564   7.441  0.2117  0.0749 -0.0756
  733POPS   C4B11154  13.349   3.758   7.819 -0.0124 -0.2197  0.0509
  734POPS   CNO11155  16.091  14.371   5.447  0.3086  0.1188 -0.1405
  734POPS   PO411156  15.691  14.211   5.597 -0.0886 -0.0859  0.2096
  734POPS   GL111157  15.829  14.380   5.957  0.1228 -0.2462  0.1263
  734POPS   GL211158  15.533  14.413   6.126  0.0935 -0.2173  0.1757
  734POPS   C1A11159  16.089  14.507   6.365 -0.3418 -0.1616  0.4304
  734POPS   D2A11160  16.053  14.439   6.819 -0.0303 -0.1087  0.0441
  734POPS   C3A11161  16.254  14.549   7.214 -0.1891  0.0635  0.3753
  734POPS   C4A11162  16.712  14.749   7.287  0.0824 -0.1466 -0.1961
  734POPS   C1B11163  15.747  14.235   6.486 -0.0127 -0.0812  0.2068
  734POPS   C2B11164  15.518  14.248   6.969 -0.2902  0.4460 -0.0839
  734POPS   C3B11165  15.624  14.366   7.350  0.0185  0.0269  0.1646
  734POPS   C4B11166  15.906  14.635   7.647  0.2589  0.2631  0.3156
  735POPS   CNO11167  14.720   6.384   5.799 -0.4263  0.0361 -0.1528
  735POPS   PO411168  14.564   6.546   6.239 -0.0228  0.0865  0.6344
  735POPS   GL111169  14.587   6.806   6.644 -0.0030 -0.2852 -0.1786
  735POPS   GL211170  14.437   7.083   6.646  0.1556 -0.0719 -0.0715
  735POPS   C1A11171  14.697   6.865   7.120 -0.1882 -0.2373 -0.1273
  735POPS   D2A11172  14.735   6.393   7.115  0.1729 -0.0364 -0.0087
  735POPS   C3A11173  14.874   6.181   7.525 -0.1033 -0.1039 -0.0518
  735POPS   C4A11174  14.665   6.214   7.873  0.0241 -0.1928  0.1242
  735POPS   C1B11175  14.140   6.865   6.926 -0.0151 -0.1782  0.2369
  735POPS   C2B11176  14.071   6.899   7.348  0.3522  0.2331 -0.2646
  735POPS   C3B11177  13.867   6.807   7.718  0.2135  0.1563 -0.2824
  735POPS   C4B11178  13.402   6.707   7.935 -0.0847 -0.0557  0.0795
  736POPS   CNO11179  14.445   8.031   6.192  0.0026 -0.2490  0.1254
  736POPS   PO411180  14.019   8.273   6.159 -0.2953  0.2202 -0.1128
  736POPS   GL111181  13.968   8.289   6.534  0.1629 -0.0270  0.0618
  736POPS   GL211182  13.674   8.405   6.624 -0.4602 -0.4039 -0.3648
  736POPS   C1A11183  14.222   8.068   6.935  0.0998  0.0923  0.0587
  736POPS   D2A11184  14.483   8.043   7.351 -0.4053  0.1110 -0.0618
  736POPS   C3A11185  14.459   7.808   7.674  0.0337 -0.2480 -0.0337
  736POPS   C4A11186  14.641   7.914   8.113  0.1744  0.1265  0.2249
  736POPS   C1B11187  13.735   8.269   7.057 -0.1143 -0.2480  0.3674
  736POPS   C2B11188  13.611   8.104   7.436 -0.0098  0.0472  0.0533
  736POPS   C3B11189  13.804   7.957   7.827  0.0798 -0.3761  0.2216
  736POPS   C4B11190  13.634   8.174   8.257 -0.0349  0.3093  0.2960
  737POPS   CNO11191  15.657  10.684   5.095 -0.1670 -0.0691  0.0700
  737POPS   PO411192  15.590  10.896   5.469 -0.1853  0.1142  0.0754
  737POPS   GL111193  15.390  11.094   5.733 -0.4241  0.1322  0.0576
  737POPS   GL211194  15.591  11.031   5.981  0.1738 -0.1942  0.1743
  737POPS   C1A11195  15.118  11.014   6.166  0.2630  0.2388  0.0042
  737POPS   D2A11196  15.047  10.990   6.610  0.0776  0.0944  0.0837
  737POPS   C3A11197  15.286  10.862   7.015  0.2785  0.3206  0.1792
  737POPS   C4A11198  15.440  10.830   7.328 -0.0861  0.1890  0.0277
  737POPS   C1B11199  15.509  10.728   6.171 -0.1897  0.3202 -0.5767
  737POPS   C2B11200  15.505  10.712   6.605 -0.3942 -0.3365 -0.2747
  737POPS   C3B11201  15.711  10.579   6.957  0.0862  0.1377  0.2337
  737POPS   C4B11202  15.855  10.510   7.398  0.0789  0.2904 -0.1547
  738POPS   CNO11203  10.809  17.111   5.143  0.1301 -0.1461 -0.0425
  738POPS   PO411204  11.017  17.258   5.333 -0.0023 -0.0560  0.0233
  738POPS   GL111205  11.182  17.356   5.683 -0.0171 -0.2270 -0.1751
  738POPS   GL211206  10.979  17.389   5.946 -0.1568  0.1136  0.3580
  738POPS   C1A11207  11.458  17.398   6.109 -0.1133 -0.0468 -0.0881
  738POPS   D2A11208  11.534  17.445   6.561  0.2168  0.3138  0.2047
  738POPS   C3A11209  11.648  17.785   6.873 -0.0046  0.2673 -0.0696
  738POPS   C4A11210  11.758  18.156   7.186 -0.1030 -0.5489 -0.0743
  738POPS   C1B11211  10.684  17.188   6.267 -0.1891  0.2526 -0.0713
  738POPS   C2B11212  10.759  16.913   6.493  0.2332 -0.2229  0.0621
  738POPS   C3B11213  10.786  16.811   6.999  0.2007  0.1665 -0.0242
  738POPS   C4B11214  11.062  16.773   7.398  0.1372  0.2990 -0.3799
  739POPS   CNO11215   0.564  16.984   5.770 -0.1069 -0.0010  0.0101
  739POPS   PO411216   0.899  17.242   5.677 -0.1643 -0.2056 -0.2903
  739POPS   GL111217   1.159  17.396   6.057 -0.1081  0.0599 -0.1598
  739POPS   GL211218   1.122  17.647   6.028 -0.1967 -0.1863 -0.0905
  739POPS   C1A11219   1.022  17.338   6.502 -0.1167 -0.2464 -0.0325
  739POPS   D2A11220   1.004  17.622   6.983  0.0974 -0.0034 -0.0149
  739POPS   C3A11221   1.279  17.628   7.260  0.0803  0.0550 -0.1013
  739POPS   C4A11222   1.673  17.617   7.471 -0.1538  0.0835 -0.2545
  739POPS   C1B11223   1.220  18.059   6.142  0.0256 -0.5647  0.0337
  739POPS   C2B11224   1.229  18.257   6.427 -0.0918 -0.0791 -0.1562
  739POPS   C3B11225   1.425  18.458   6.704  0.3044 -0.0895 -0.3560
  739POPS   C4B11226   1.655  18.389   7.170  0.0218 -0.0337 -0.0499
  740POPS   CNO11227  13.857  10.854   5.194 -0.4163 -0.0133  0.3020
  740POPS   PO411228  13.505  10.684   5.428  0.2430  0.1519 -0.2907
  740POPS   GL111229  13.571  10.945   5.877  0.0314 -0.1766 -0.2267
  740POPS   GL211230  13.413  11.278   5.973  0.2410  0.1070  0.0912
  740POPS   C1A11231  13.802  11.118   6.259 -0.0528 -0.0115  0.0024
  740POPS   D2A11232  14.046  10.951   6.609 -0.1103 -0.1235  0.0481
  740POPS   C3A11233  13.873  10.993   6.961  0.0493 -0.0709 -0.0676
  740POPS   C4A11234  13.810  11.368   7.277 -0.0820 -0.0963  0.0651
  740POPS   C1B11235  13.361  11.430   6.412 -0.1149 -0.1212 -0.1762
  740POPS   C2B11236  13.612  11.450   6.803  0.1570 -0.1681 -0.2892
  740POPS   C3B11237  13.419  11.697   7.129  0.0818 -0.2225 -0.1816
  740POPS   C4B11238  13.204  12.104   7.222 -0.0478  0.2988 -0.0465
  741POPS   CNO11239   2.297   3.914   5.186 -0.0633  0.0296  0.1707
  741POPS   PO411240   2.236   4.128   5.607 -0.0299  0.0127  0.0114
  741POPS   GL111241   2.227   3.860   6.079 -0.0769  0.1506 -0.2613
  741POPS   GL211242   1.953   3.720   6.326 -0.3128  0.0749  0.0271
  741POPS   C1A11243   2.563   3.870   6.380  0.2640 -0.3149  0.0555
  741POPS   D2A11244   3.048   3.962   6.337 -0.0976 -0.1334 -0.0846
  741POPS   C3A11245   3.293   3.891   6.686  0.1695  0.0963 -0.2040
  741POPS   C4A11246   3.557   3.892   6.971 -0.0574  0.0952 -0.0080
  741POPS   C1B11247   2.194   3.752   6.630 -0.0262  0.0534  0.2649
  741POPS   C2B11248   2.111   3.675   7.034  0.1946 -0.0535 -0.1429
  741POPS   C3B11249   1.919   3.669   7.418 -0.2554 -0.0045 -0.0539
  741POPS   C4B11250   1.747   3.578   7.853  0.1293  0.0388  0.0421
  742POPS   CNO11251   1.443  15.196   6.274  0.1131  0.0121 -0.2081
  742POPS   PO411252   1.553  14.962   6.030  0.1426  0.1040 -0.2006
  742POPS   GL111253   1.539  14.730   6.446 -0.6061  0.0823  0.1403
  742POPS   GL211254   1.237  14.672   6.617 -0.0733  0.1765  0.0037
  742POPS   C1A11255   1.612  15.117   6.810  0.3809 -0.2073  0.0892
  742POPS   D2A11256   1.766  15.262   7.116  0.2487 -0.0350 -0.1361
  742POPS   C3A11257   1.562  15.385   7.457  0.3109  0.1781 -0.0708
  742POPS   C4A11258   1.080  15.348   7.530 -0.0560 -0.0510 -0.0267
  742POPS   C1B11259   1.275  14.425   7.029 -0.1611  0.2923 -0.1818
  742POPS   C2B11260   1.274  14.048   7.255  0.1017  0.1599  0.1603
  742POPS   C3B11261   1.259  13.992   7.699 -0.3104  0.1079  0.4523
  742POPS   C4B11262   1.190  13.954   8.077 -0.1489 -0.0431  0.3182
  743POPS   CNO11263  11.715   9.073   6.017 -0.0796  0.2322  0.0235
  743POPS   PO411264  11.333   8.923   5.963 -0.1923 -0.3124  0.0318
  743POPS   GL111265  11.185   9.077   6.204  0.0299 -0.3039  0.0345
  743POPS   GL211266  10.799   9.069   6.306 -0.0752 -0.1108  0.1396
  743POPS   C1A11267  11.224   9.252   6.693  0.0608  0.6222 -0.0043
  743POPS   D2A11268  11.093   9.599   6.804 -0.2357  0.0919 -0.1914
  743POPS   C3A11269  10.980  10.071   6.759  0.0812 -0.1093  0.3289
  743POPS   C4A11270  10.860  10.391   6.493  0.3287  0.3742 -0.2604
  743POPS   C1B11271  10.703   9.380   6.565 -0.0414  0.2645  0.0154
  743POPS   C2B11272  10.469   9.368   7.014 -0.0209 -0.0857 -0.1551
  743POPS   C3B11273  10.235   9.423   7.324  0.1380 -0.4544 -0.0737
  743POPS   C4B11274  10.108   9.706   7.577  0.1629 -0.0707 -0.1046
  744POPS   CNO11275   8.411   1.191   5.467 -0.0086  0.2484 -0.0325
  744POPS   PO411276   8.243   1.402   5.861 -0.2203  0.2211  0.2036
  744POPS   GL111277   8.262   1.147   6.249  0.1486  0.1913  0.3280
  744POPS   GL211278   8.007   1.463   6.306  0.0378 -0.0429 -0.3533
  744POPS   C1A11279   8.595   1.308   6.518 -0.1768 -0.2059 -0.1108
  744POPS   D2A11280   8.797   1.608   6.703  0.1377 -0.3423  0.0456
  744POPS   C3A11281   8.994   1.600   7.081  0.1975  0.1317  0.1685
  744POPS   C4A11282   9.232   1.414   7.365  0.0530 -0.2898 -0.1652
  744POPS   C1B11283   7.937   1.276   6.679 -0.1532  0.0814 -0.0755
  744POPS   C2B11284   7.722   0.927   6.980 -0.0789 -0.2051 -0.2359
  744POPS   C3B11285   7.656   0.506   7.166  0.2950 -0.0775  0.0297
  744POPS   C4B11286   7.259   0.467   7.471 -0.0570 -0.0925 -0.3358
  745POPS   CNO11287   8.616  14.649   5.448 -0.2271  0.0110  0.2030
  745POPS   PO411288   8.339  14.330   5.446  0.1681  0.2176  0.2060
  745POPS   GL111289   8.600  14.238   5.780 -0.1885  0.0564  0.1717
  745POPS   GL211290   8.320  14.176   6.039 -0.1329 -0.0739  0.3138
  745POPS   C1A11291   8.990  14.140   6.095 -0.0128 -0.0161  0.1779
  745POPS   D2A11292   9.368  14.039   6.366  0.2351 -0.0781  0.1701
  745POPS   C3A11293   9.342  13.719   6.753  0.2581 -0.0367 -0.1227
  745POPS   C4A11294   9.697  13.607   7.026 -0.0061 -0.0773 -0.1238
  745POPS   C1B11295   8.494  14.225   6.393 -0.2001 -0.0585 -0.0991
  745POPS   C2B11296   8.349  14.438   6.770  0.1897  0.0144  0.1855
  745POPS   C3B11297   8.000  14.384   6.982 -0.0106 -0.1305  0.2478
  745POPS   C4B11298   7.867  14.346   7.454 -0.0502  0.5254 -0.1447
  746POPS   CNO11299   6.049  17.420   5.117  0.1390 -0.0174 -0.1765
  746POPS   PO411300   6.366  17.238   5.361 -0.1354  0.1362 -0.0225
  746POPS   GL111301   6.379  17.319   5.826 -0.1730 -0.2234  0.3406
  746POPS   GL211302   6.076  17.441   6.037  0.0233 -0.0109 -0.0294
  746POPS   C1A11303   6.502  17.491   6.239 -0.0140  0.1135  0.0768
  746POPS   D2A11304   6.544  17.382   6.674  0.1052  0.0130  0.0558
  746POPS   C3A11305   6.740  17.584   6.988  0.0657  0.4021 -0.2292
  746POPS   C4A11306   7.019  17.696   7.157  0.2443  0.2405  0.1300
  746POPS   C1B11307   6.034  17.297   6.349 -0.0997 -0.1256 -0.0398
  746POPS   C2B11308   6.133  17.128   6.703  0.1329 -0.2139 -0.1342
  746POPS   C3B11309   5.915  16.979   7.056 -0.0232  0.2083 -0.1455
  746POPS   C4B11310   5.910  16.739   7.401  0.0124 -0.2243 -0.1623
  747POPS   CNO11311  12.271  11.097   5.458 -0.0459  0.0775 -0.3149
  747POPS   PO411312  11.806  11.038   5.775 -0.0820 -0.1190  0.1175
  747POPS   GL111313  11.749  11.071   6.169 -0.2062 -0.2777 -0.1062
  747POPS   GL211314  11.536  10.907   6.357  0.0644 -0.0904  0.0432
  747POPS   C1A11315  11.918  11.209   6.582  0.1870  0.0990  0.3476
  747POPS   D2A11316  11.883  11.235   7.007 -0.0390 -0.0407 -0.1252
  747POPS   C3A11317  11.854  10.920   7.280 -0.0980  0.0343 -0.0905
  747POPS   C4A11318  11.509  10.794   7.617 -0.0986  0.0718 -0.2156
  747POPS   C1B11319  11.579  10.868   6.808  0.2815  0.1169  0.2543
  747POPS   C2B11320  11.365  11.064   7.055 -0.1961  0.1246  0.4177
  747POPS   C3B11321  10.856  10.876   7.112  0.4183 -0.3562 -0.0548
  747POPS   C4B11322  10.668  10.434   7.040  0.2409  0.1560  0.2823
  748POPS   CNO11323  16.063  18.445   5.675  0.0760  0.1542  0.0591
  748POPS   PO411324  16.289  18.578   6.017  0.2810  0.2075 -0.2984
  748POPS   GL111325  16.177  18.408   6.524  0.1982  0.1956 -0.1164
  748POPS   GL211326  16.433  18.367   6.740  0.0169  0.1725 -0.1315
  748POPS   C1A11327  15.955  18.509   6.912 -0.0207 -0.1434 -0.0374
  748POPS   D2A11328  15.764  18.437   7.350  0.0953  0.1474  0.0448
  748POPS   C3A11329  16.134  18.400   7.560  0.0156 -0.1283 -0.2118
  748POPS   C4A11330  16.242  18.445   7.981  0.2486  0.1457 -0.3025
  748POPS   C1B11331  16.360  18.237   7.117  0.0552 -0.1615 -0.0507
  748POPS   C2B11332  16.660  18.355   7.496 -0.0714  0.1236 -0.2783
  748POPS   C3B11333  17.006  18.527   7.577  0.0309 -0.2185 -0.0079
  748POPS   C4B11334  17.334  18.714   7.813 -0.0629  0.2158 -0.2601
  749POPS   CNO11335  13.086   2.216   6.041  0.2264  0.0401  0.0957
  749POPS   PO411336  12.694   2.311   5.985 -0.0036  0.1462 -0.0420
  749POPS   GL111337  12.671   2.231   6.382 -0.0731 -0.1863  0.1613
  749POPS   GL211338  12.804   1.947   6.383  0.1627 -0.0424  0.0801
  749POPS   C1A11339  12.323   2.091   6.697 -0.0241 -0.2135 -0.3147
  749POPS   D2A11340  12.162   2.296   7.044  0.0484 -0.0516 -0.2649
  749POPS   C3A11341  12.137   2.834   6.975  0.1508  0.1000  0.1989
  749POPS   C4A11342  12.243   3.114   7.293 -0.1814  0.0887  0.1669
  749POPS   C1B11343  13.130   2.103   6.589  0.0429 -0.2249 -0.1123
  749POPS   C2B11344  13.164   2.374   6.980 -0.3404 -0.1294 -0.2695
  749POPS   C3B11345  13.059   2.694   7.238  0.1498 -0.0158  0.2133
  749POPS   C4B11346  13.047   2.595   7.640  0.0981 -0.3442 -0.2511
  750POPS   CNO11347   4.113  18.113   5.529  0.0265  0.3013 -0.4309
  750POPS   PO411348   4.190  17.855   5.825 -0.1465  0.1018  0.1725
  750POPS   GL111349   4.110  17.988   6.279 -0.0869 -0.1145 -0.2169
  750POPS   GL211350   4.106  18.302   6.436  0.1325 -0.0231 -0.2835
  750POPS   C1A11351   3.918  17.787   6.594 -0.1509  0.0601  0.1932
  750POPS   D2A11352   3.793  17.655   6.978  0.0809  0.2282 -0.1575
  750POPS   C3A11353   3.978  17.449   7.344  0.1094  0.1240 -0.0306
  750POPS   C4A11354   4.127  17.262   7.781  0.0202  0.0818  0.4469
  750POPS   C1B11355   4.101  18.171   6.832 -0.3132  0.1249 -0.1723
  750POPS   C2B11356   3.997  17.992   7.290 -0.1137  0.0052  0.1961
  750POPS   C3B11357   4.093  17.836   7.734 -0.2306  0.1195  0.0715
  750POPS   C4B11358   4.319  17.921   8.094  0.1749  0.0321 -0.0825
  751POPS   CNO11359  10.011   4.992   6.150 -0.0076  0.2342  0.0373
  751POPS   PO411360   9.819   4.811   5.797 -0.2937  0.0856 -0.2595
  751POPS   GL111361   9.689   4.593   6.220 -0.2398 -0.1314  0.2379
  751POPS   GL211362   9.417   4.680   6.287 -0.0745 -0.1706 -0.0052
  751POPS   C1A11363   9.847   4.771   6.572  0.2153 -0.1140 -0.1052
  751POPS   D2A11364   9.981   5.238   6.612 -0.2092 -0.1952 -0.0129
  751POPS   C3A11365  10.325   5.419   6.789 -0.1927  0.0218  0.0018
  751POPS   C4A11366  10.602   5.394   7.069 -0.0244 -0.0453  0.2945
  751POPS   C1B11367   9.410   4.595   6.698 -0.0777 -0.0743  0.0092
  751POPS   C2B11368   9.432   4.296   7.049  0.3020 -0.1203 -0.0003
  751POPS   C3B11369   9.406   4.357   7.535 -0.0402  0.0155  0.0037
  751POPS   C4B11370   9.187   4.373   7.895  0.2756 -0.3080  0.0211
  752POPS   CNO11371  14.603  18.204   6.086  0.0177  0.1366 -0.0601
  752POPS   PO411372  15.067  18.127   6.052  0.2238  0.1218  0.3498
  752POPS   GL111373  15.420  18.079   6.348 -0.1355 -0.1344 -0.0530
  752POPS   GL211374  15.612  18.237   6.528 -0.4728  0.2330 -0.5214
  752POPS   C1A11375  15.524  17.734   6.645 -0.1670 -0.0630  0.0385
  752POPS   D2A11376  15.363  17.670   7.037  0.1576 -0.3286 -0.0896
  752POPS   C3A11377  15.106  17.535   7.352 -0.1276 -0.4757  0.2387
  752POPS   C4A11378  15.002  17.198   7.494 -0.2172  0.0764 -0.1628
  752POPS   C1B11379  15.499  18.182   6.972 -0.1656  0.0865  0.1135
  752POPS   C2B11380  15.394  18.060   7.355 -0.1193  0.0051  0.0871
  752POPS   C3B11381  15.337  17.810   7.734  0.1536  0.0155 -0.1573
  752POPS   C4B11382  15.292  17.901   8.155 -0.1862  0.0204  0.1204
  753POPS   CNO11383  18.441   9.810   5.886  0.1395 -0.3737  0.3359
  753POPS   PO411384  18.101  10.052   6.091 -0.2063 -0.0571  0.1200
  753POPS   GL111385  17.936   9.931   6.474  0.1490 -0.2192  0.0618
  753POPS   GL211386  18.098   9.948   6.720 -0.4238 -0.1040  0.1181
  753POPS   C1A11387  17.679  10.228   6.826 -0.0581 -0.1070 -0.0347
  753POPS   D2A11388  17.715  10.103   7.266  0.2340  0.0106  0.1614
  753POPS   C3A11389  17.545  10.378   7.666  0.1757 -0.2497  0.3881
  753POPS   C4A11390  17.666  10.436   8.121  0.1860 -0.2462 -0.2447
  753POPS   C1B11391  18.221   9.921   7.120  0.0578 -0.4385  0.0931
  753POPS   C2B11392  18.391  10.031   7.578 -0.1014 -0.0540 -0.0059
  753POPS   C3B11393  18.508   9.896   7.984 -0.2400 -0.3402 -0.0367
  753POPS   C4B11394  18.360   9.939   8.369 -0.2488  0.0109  0.2739
  754POPS   CNO11395  13.629  14.821   5.907 -0.0370 -0.0686 -0.1595
  754POPS   PO411396  14.080  14.862   5.674  0.0761 -0.2256  0.1393
  754POPS   GL111397  14.192  14.880   5.981  0.0140  0.0674 -0.2478
  754POPS   GL211398  14.002  14.848   6.258 -0.0770 -0.2362  0.0800
  754POPS   C1A11399  14.494  14.707   6.327 -0.2938 -0.0647 -0.3285
  754POPS   D2A11400  14.811  14.952   6.616  0.3418  0.1927  0.1067
  754POPS   C3A11401  14.700  14.966   6.963 -0.2658 -0.1074  0.3194
  754POPS   C4A11402  14.817  14.965   7.418  0.1379 -0.0577  0.0757
  754POPS   C1B11403  14.170  15.088   6.646  0.0746  0.1860 -0.1884
  754POPS   C2B11404  13.929  15.266   6.909 -0.4463 -0.1673  0.0763
  754POPS   C3B11405  14.066  15.556   7.145 -0.0046 -0.0730  0.0293
  754POPS   C4B11406  13.938  15.602   7.502 -0.0813 -0.1743 -0.1200
  755POPS   CNO11407  11.453  11.814   5.471 -0.1050 -0.1029 -0.0198
  755POPS   PO411408  11.885  11.991   5.535 -0.4322  0.0391 -0.3904
  755POPS   GL111409  11.875  12.092   5.986  0.1987  0.0608  0.1502
  755POPS   GL211410  11.680  11.861   6.102  0.0468  0.5371 -0.2175
  755POPS   C1A11411  11.903  12.281   6.393 -0.3624  0.1903 -0.0457
  755POPS   D2A11412  11.903  12.304   6.883  0.0510 -0.1352  0.0394
  755POPS   C3A11413  12.305  12.096   7.089 -0.1531  0.1420  0.1320
  755POPS   C4A11414  12.682  12.068   7.304  0.2368  0.2762 -0.0210
  755POPS   C1B11415  11.849  11.816   6.500  0.2420  0.1806 -0.1359
  755POPS   C2B11416  11.948  11.814   6.985  0.3458 -0.0286  0.2272
  755POPS   C3B11417  11.755  12.034   7.323 -0.2826  0.3795 -0.0620
  755POPS   C4B11418  11.533  12.322   7.498  0.0761 -0.0883  0.1133
  756POPS   CNO11419   6.975   8.366   5.560 -0.0742  0.2919 -0.1852
  756POPS   PO411420   6.924   8.538   5.994  0.1988 -0.0609  0.4204
  756POPS   GL111421   7.340   8.782   6.186 -0.0897  0.1163  0.0767
  756POPS   GL211422   7.276   9.120   6.317  0.1475  0.3441 -0.2290
  756POPS   C1A11423   7.578   8.757   6.500  0.0269  0.4089  0.3721
  756POPS   D2A11424   7.769   8.437   6.766 -0.4532  0.2102  0.0936
  756POPS   C3A11425   7.863   8.036   6.687 -0.0532 -0.3829 -0.0674
  756POPS   C4A11426   7.783   7.724   6.995 -0.1658 -0.0078  0.0525
  756POPS   C1B11427   7.418   9.289   6.674 -0.0831 -0.2114 -0.1936
  756POPS   C2B11428   7.373   9.265   7.205  0.2117  0.0718  0.0989
  756POPS   C3B11429   7.376   9.200   7.676  0.2770  0.2748 -0.0006
  756POPS   C4B11430   7.270   9.391   8.137  0.2138  0.1823 -0.0973
  757POPS   CNO11431   5.861   2.808   5.674  0.0160 -0.1345  0.1527
  757POPS   PO411432   5.865   2.956   6.024 -0.2746 -0.0037 -0.1668
  757POPS   GL111433   6.060   3.214   6.339 -0.1825 -0.0528 -0.2103
  757POPS   GL211434   6.108   3.578   6.411  0.1803  0.0065  0.3701
  757POPS   C1A11435   6.205   3.135   6.731  0.0083  0.0015  0.1310
  757POPS   D2A11436   6.218   3.131   7.191 -0.0836 -0.4790  0.2129
  757POPS   C3A11437   6.319   2.920   7.470 -0.0542  0.0318  0.0832
  757POPS   C4A11438   6.259   2.763   7.938 -0.0741  0.0016  0.2437
  757POPS   C1B11439   5.799   3.807   6.524  0.0429 -0.1817 -0.0944
  757POPS   C2B11440   5.775   4.099   6.844  0.0847  0.0768 -0.0285
  757POPS   C3B11441   5.809   4.101   7.263 -0.1034 -0.2110 -0.1885
  757POPS   C4B11442   5.915   4.019   7.807  0.1380  0.0682  0.1269
  758POPS   CNO11443   6.537   7.410   6.059  0.0447  0.0515 -0.1395
  758POPS   PO411444   6.905   7.671   6.095  0.2245 -0.1438  0.0893
  758POPS   GL111445   6.884   8.064   6.383 -0.0614 -0.3187 -0.0344
  758POPS   GL211446   7.338   8.262   6.354  0.0723  0.0552  0.0658
  758POPS   C1A11447   6.766   8.300   6.841  0.1400 -0.0770 -0.4443
  758POPS   D2A11448   6.886   8.420   7.293  0.3127  0.1191 -0.1141
  758POPS   C3A11449   7.093   8.111   7.521  0.0584  0.1279  0.1861
  758POPS   C4A11450   7.389   8.251   7.741  0.0348 -0.0936  0.0975
  758POPS   C1B11451   7.270   8.162   6.797  0.3060  0.1154  0.3174
  758POPS   C2B11452   7.557   8.279   7.234 -0.0668  0.0640  0.0616
  758POPS   C3B11453   7.886   8.206   7.545  0.4281 -0.3255 -0.3574
  758POPS   C4B11454   8.310   7.976   7.505 -0.1830  0.3586 -0.0209
  759POPS   CNO11455   1.787  11.147   5.774  0.0786 -0.1059  0.1378
  759POPS   PO411456   1.292  11.093   5.698  0.1881  0.1635 -0.1862
  759POPS   GL111457   1.498  11.104   6.180  0.1070 -0.1036 -0.1397
  759POPS   GL211458   1.802  10.927   6.190  0.1144 -0.3021  0.0534
  759POPS   C1A11459   1.546  11.329   6.534 -0.1892 -0.0304  0.2529
  759POPS   D2A11460   1.161  11.302   6.756  0.0353  0.2055  0.2692
  759POPS   C3A11461   0.794  11.453   6.955 -0.3157  0.3572  0.1807
  759POPS   C4A11462   0.739  11.635   7.433  0.0285 -0.2030 -0.0516
  759POPS   C1B11463   1.999  10.976   6.585  0.0270  0.0315 -0.0572
  759POPS   C2B11464   1.745  10.937   6.839 -0.0026  0.1667 -0.1756
  759POPS   C3B11465   1.555  10.579   6.919 -0.0054  0.0532 -0.0576
  759POPS   C4B11466   1.172  10.403   7.149 -0.0873 -0.2294  0.0801
  760POPS   CNO11467   6.378  10.704   5.638  0.2519 -0.0569  0.2226
  760POPS   PO411468   6.322  10.256   5.814  0.4559 -0.0661  0.0071
  760POPS   GL111469   6.332  10.263   6.210  0.0223  0.0341  0.1421
  760POPS   GL211470   6.538  10.446   6.318  0.3022 -0.2567 -0.2040
  760POPS   C1A11471   6.048  10.077   6.492 -0.0461 -0.0944  0.0627
  760POPS   D2A11472   6.016   9.914   6.929 -0.3753  0.0318  0.3477
  760POPS   C3A11473   6.391   9.641   7.075 -0.2606  0.0802 -0.0841
  760POPS   C4A11474   6.839   9.773   7.142 -0.1375 -0.1670  0.2551
  760POPS   C1B11475   6.376  10.531   6.700 -0.3448 -0.0679  0.3221
  760POPS   C2B11476   6.013  10.472   6.969 -0.0676  0.1116  0.1832
  760POPS   C3B11477   5.869  10.170   7.317  0.1941  0.0038  0.2602
  760POPS   C4B11478   5.999   9.728   7.379  0.2658  0.0077  0.0894
  761POPS   CNO11479  16.869  12.635   5.524 -0.0669  0.1910  0.0236
  761POPS   PO411480  16.984  12.846   5.866  0.0030 -0.1638 -0.2266
  761POPS   GL111481  16.746  12.923   6.238 -0.1522  0.1585 -0.0062
  761POPS   GL211482  16.651  13.312   6.312  0.0364 -0.0896  0.1347
  761POPS   C1A11483  16.841  12.901   6.687 -0.1021 -0.3476 -0.1729
  761POPS   D2A11484  16.911  12.964   7.111  0.0528  0.0036 -0.5229
  761POPS   C3A11485  17.058  13.284   7.422 -0.0838  0.1045  0.0535
  761POPS   C4A11486  17.121  13.582   7.572  0.0441 -0.0821  0.4306
  761POPS   C1B11487  16.451  13.434   6.694  0.4060 -0.0249  0.0463
  761POPS   C2B11488  16.224  13.411   7.128 -0.0774  0.1935  0.1413
  761POPS   C3B11489  16.076  13.223   7.487 -0.0480  0.0857 -0.2789
  761POPS   C4B11490  15.831  13.007   7.824 -0.2363 -0.4037  0.1666
  762POPS   CNO11491   8.931   2.118   5.899 -0.5082  0.1632 -0.0812
  762POPS   PO411492   9.214   1.776   5.854 -0.0305 -0.1020 -0.0850
  762POPS   GL111493   9.382   1.693   6.204  0.0618  0.0117 -0.2234
  762POPS   GL211494   9.592   1.481   6.120  0.0419  0.3123  0.1273
  762POPS   C1A11495   9.351   1.623   6.631  0.1437  0.2805  0.0391
  762POPS   D2A11496   9.696   1.362   6.891  0.2512 -0.1597  0.3354
  762POPS   C3A11497   9.708   1.529   7.418  0.1231 -0.1610  0.0177
  762POPS   C4A11498   9.564   1.525   7.805  0.0995  0.0959 -0.0606
  762POPS   C1B11499   9.998   1.404   6.299  0.0168 -0.0529  0.0668
  762POPS   C2B11500  10.083   1.554   6.595  0.0072  0.1291 -0.3212
  762POPS   C3B11501  10.216   1.518   7.014 -0.2823  0.1072 -0.1045
  762POPS   C4B11502  10.283   1.672   7.426  0.0117 -0.0517 -0.0992
  763POPS   CNO11503   1.090  15.787   5.736 -0.3040  0.3770  0.0302
  763POPS   PO411504   1.505  15.981   5.778  0.3612  0.0474 -0.1545
  763POPS   GL111505   1.580  16.154   6.252  0.0764  0.1203 -0.0287
  763POPS   GL211506   1.941  16.055   6.429 -0.1060  0.0670 -0.1492
  763POPS   C1A11507   1.590  16.477   6.657  0.1140  0.1103 -0.2739
  763POPS   D2A11508   1.642  16.813   6.876 -0.1448 -0.1592  0.1989
  763POPS   C3A11509   1.345  16.772   7.197  0.2698 -0.0649  0.2367
  763POPS   C4A11510   1.533  16.806   7.566  0.2780  0.1153 -0.3878
  763POPS   C1B11511   2.236  16.011   6.648  0.0675  0.1391  0.0048
  763POPS   C2B11512   2.341  15.941   7.046  0.3163  0.4039  0.3775
  763POPS   C3B11513   2.338  15.681   7.359 -0.0357  0.0139  0.3248
  763POPS   C4B11514   2.086  15.443   7.594 -0.0572 -0.0811 -0.0400
  764POPS   CNO11515  14.059   0.555   5.765 -0.0699  0.2632 -0.1374
  764POPS   PO411516  13.795   0.243   5.621 -0.1786  0.4224  0.2386
  764POPS   GL111517  13.689   0.105   6.037 -0.0281  0.0010 -0.2543
  764POPS   GL211518  13.423   0.386   6.102  0.0907 -0.3973  0.0062
  764POPS   C1A11519  13.500   0.082   6.445 -0.1547  0.1210 -0.1763
  764POPS   D2A11520  13.367   0.144   6.870 -0.0639  0.1673  0.0477
  764POPS   C3A11521  13.057   0.451   7.084  0.1392  0.2322 -0.1244
  764POPS   C4A11522  12.782   0.536   7.406 -0.1328  0.1561  0.0358
  764POPS   C1B11523  13.328   0.575   6.518 -0.1239  0.0644 -0.0622
  764POPS   C2B11524  13.377   0.820   6.979  0.1308  0.2397  0.0713
  764POPS   C3B11525  13.121   0.868   7.343  0.3301 -0.1554  0.1874
  764POPS   C4B11526  13.055   0.852   7.857  0.0719  0.2511 -0.0294
  765POPS   CNO11527  17.678  12.632   5.848 -0.1343  0.0307  0.2941
  765POPS   PO411528  18.088  12.734   5.770 -0.0964  0.2752  0.1703
  765POPS   GL111529  17.989  12.491   6.197 -0.0648  0.0005 -0.0879
  765POPS   GL211530  17.709  12.334   6.335 -0.1388  0.3620 -0.0053
  765POPS   C1A11531  18.094  12.642   6.531  0.1840 -0.2958  0.1151
  765POPS   D2A11532  18.589  12.777   6.618 -0.2174  0.1263 -0.2377
  765POPS   C3A11533  18.799  13.086   6.873  0.0695 -0.3857  0.3410
  765POPS   C4A11534  18.709  13.374   7.143 -0.3063 -0.1052 -0.2156
  765POPS   C1B11535  17.661  12.578   6.739 -0.0060 -0.1978 -0.2029
  765POPS   C2B11536  17.628  12.540   7.102 -0.1262 -0.1786 -0.0693
  765POPS   C3B11537  17.798  12.664   7.546  0.2815 -0.1968 -0.0639
  765POPS   C4B11538  18.121  12.583   7.772 -0.3594  0.2012  0.0774
  766POPS   CNO11539  13.048  10.038   5.735 -0.2491 -0.4372 -0.0047
  766POPS   PO411540  12.711  10.160   5.602 -0.3468 -0.0076 -0.6305
  766POPS   GL111541  12.730  10.380   6.069  0.0409 -0.2219  0.0654
  766POPS   GL211542  12.890  10.211   6.214  0.0242  0.0505 -0.0313
  766POPS   C1A11543  12.590  10.675   6.347  0.1143  0.1267 -0.0873
  766POPS   D2A11544  12.501  11.054   6.587  0.2045 -0.1418 -0.3825
  766POPS   C3A11545  12.425  11.154   7.065 -0.1971  0.0897  0.0849
  766POPS   C4A11546  12.374  11.217   7.493 -0.0675  0.1409  0.2733
  766POPS   C1B11547  12.861  10.346   6.617 -0.2166 -0.0067  0.2233
  766POPS   C2B11548  13.194  10.517   6.943 -0.1368  0.1530  0.0131
  766POPS   C3B11549  13.162  10.486   7.322  0.1741 -0.0290 -0.2067
  766POPS   C4B11550  13.063  10.127   7.583  0.6587  0.1981 -0.0957
  767POPS   CNO11551  16.831  13.700   5.772  0.1596  0.0433 -0.3209
  767POPS   PO411552  16.931  14.119   5.707  0.1648 -0.1283  0.3179
  767POPS   GL111553  16.994  13.989   6.157 -0.1527 -0.0353  0.0687
  767POPS   GL211554  16.726  13.887   6.306 -0.0141 -0.2160 -0.2902
  767POPS   C1A11555  17.295  14.081   6.514  0.0229  0.0231  0.2264
  767POPS   D2A11556  17.360  14.023   7.067 -0.0837  0.0006 -0.2283
  767POPS   C3A11557  17.013  14.040   7.272 -0.1823  0.1109  0.1201
  767POPS   C4A11558  17.059  14.365   7.518  0.3505  0.2232 -0.1763
  767POPS   C1B11559  16.738  14.021   6.736 -0.0548  0.2765  0.0012
  767POPS   C2B11560  16.552  14.170   7.038  0.3332 -0.4678 -0.2612
  767POPS   C3B11561  16.575  14.275   7.450  0.2443  0.0155 -0.0680
  767POPS   C4B11562  16.405  14.651   7.722 -0.1041  0.1596 -0.0592
  768POPS   CNO11563  10.950   5.002   5.759  0.4254  0.1751  0.2141
  768POPS   PO411564  11.213   5.304   5.916 -0.3310  0.0406  0.0084
  768POPS   GL111565  11.203   5.002   6.261 -0.0764 -0.0475  0.1753
  768POPS   GL211566  10.969   4.887   6.316  0.0518 -0.1485  0.5126
  768POPS   C1A11567  11.362   4.700   6.637 -0.1004 -0.5347 -0.1064
  768POPS   D2A11568  11.319   4.530   6.957  0.3370 -0.0171  0.0357
  768POPS   C3A11569  11.099   4.585   7.308 -0.0349  0.1299 -0.1104
  768POPS   C4A11570  10.771   4.528   7.630  0.1167 -0.2460 -0.0191
  768POPS   C1B11571  10.861   4.911   6.678 -0.1953 -0.0315  0.0777
  768POPS   C2B11572  10.740   4.920   7.083 -0.0266 -0.1764 -0.1129
  768POPS   C3B11573  10.901   5.028   7.476  0.0457  0.0271  0.0848
  768POPS   C4B11574  11.196   5.257   7.759  0.3576  0.1225 -0.0912
  769POPS   CNO11575   9.558   1.302   5.579 -0.1476 -0.1049 -0.0156
  769POPS   PO411576   9.199   1.272   5.755  0.1468 -0.0304 -0.1207
  769POPS   GL111577   9.367   0.956   6.044 -0.0766  0.1219 -0.0964
  769POPS   GL211578   9.743   0.967   6.158  0.0093  0.3580 -0.2629
  769POPS   C1A11579   9.276   0.671   6.497  0.0778 -0.2460  0.0112
  769POPS   D2A11580   9.154   0.525   6.878 -0.0931 -0.0848  0.0658
  769POPS   C3A11581   9.054   0.764   7.273 -0.4683 -0.0370  0.0005
  769POPS   C4A11582   8.854   0.935   7.578  0.2094 -0.3338  0.0899
  769POPS   C1B11583   9.557   1.108   6.540  0.3177  0.2264  0.1881
  769POPS   C2B11584   9.544   0.874   7.018 -0.2718 -0.2655  0.1843
  769POPS   C3B11585   9.447   0.452   7.302 -0.2972 -0.4885  0.0431
  769POPS   C4B11586   9.390   0.057   7.056 -0.1641 -0.0551  0.1198
  770POPS   CNO11587  12.089   3.370   5.818  0.3120 -0.1027 -0.2480
  770POPS   PO411588  11.882   2.978   5.910  0.2716  0.1731  0.1013
  770POPS   GL111589  11.654   2.694   6.136  0.1632 -0.0150 -0.0899
  770POPS   GL211590  11.818   2.332   6.097  0.0657 -0.2751  0.0662
  770POPS   C1A11591  11.428   2.522   6.539 -0.0063  0.3938 -0.1857
  770POPS   D2A11592  11.143   2.541   6.791  0.0357 -0.0134 -0.0205
  770POPS   C3A11593  11.096   2.688   7.238 -0.2101  0.0986  0.2119
  770POPS   C4A11594  10.888   2.516   7.625 -0.0368  0.1825  0.2193
  770POPS   C1B11595  11.942   2.405   6.559  0.0891 -0.0184  0.1825
  770POPS   C2B11596  11.673   2.265   7.005  0.0447 -0.0175  0.1741
  770POPS   C3B11597  11.778   2.053   7.323  0.2075  0.5542  0.0580
  770POPS   C4B11598  11.810   1.842   7.624  0.2811  0.4121 -0.0869
  771YOPS   CNO11599  17.608  11.025   5.766  0.1428  0.1620 -0.2309
  771YOPS   PO411600  17.641  10.910   6.148 -0.0589  0.0864 -0.1207
  771YOPS   GL111601  17.391  10.783   6.651 -0.3008  0.0985 -0.0322
  771YOPS   GL211602  17.258  10.415   6.711 -0.2001 -0.1770 -0.5851
  771YOPS   C1A11603  17.345  11.021   7.021 -0.3764  0.1058 -0.1156
  771YOPS   D2A11604  17.541  11.169   7.418 -0.2590 -0.1208  0.0672
  771YOPS   C3A11605  17.763  10.948   7.720  0.0107  0.1790  0.5989
  771YOPS   C4A11606  18.230  10.885   7.553 -0.0569 -0.0836 -0.1180
  771YOPS   C1B11607  17.241  10.345   7.141  0.0145  0.1253 -0.1003
  771YOPS   C2B11608  17.038  10.341   7.585 -0.0868 -0.2048 -0.1562
  771YOPS   D3B11609  16.705  10.490   7.846 -0.0167  0.2790  0.2459
  771YOPS   C4B11610  16.339  10.387   7.797  0.0864  0.3168  0.0948
  772YOPS   CNO11611  17.829   9.215   6.232 -0.2535  0.0480  0.1166
  772YOPS   PO411612  17.403   9.109   6.367 -0.0598  0.0485  0.2414
  772YOPS   GL111613  17.219   9.117   6.724  0.2833 -0.0308 -0.0322
  772YOPS   GL211614  17.160   9.365   6.813  0.0773 -0.1045 -0.2928
  772YOPS   C1A11615  17.492   8.947   7.038  0.0637  0.0153 -0.1692
  772YOPS   D2A11616  17.813   9.071   7.371 -0.0932 -0.0861  0.2822
  772YOPS   C3A11617  18.183   9.189   7.544 -0.0119 -0.1107  0.1132
  772YOPS   C4A11618  18.373   9.529   7.677 -0.1814  0.0510  0.1054
  772YOPS   C1B11619  17.174   9.297   7.225 -0.0672 -0.4061  0.2370
  772YOPS   C2B11620  17.393   9.331   7.582 -0.1608  0.0916  0.0193
  772YOPS   D3B11621  17.474   9.650   7.866 -0.0801 -0.0626 -0.0292
  772YOPS   C4B11622  17.279  10.024   7.922 -0.2197  0.1680 -0.1344
  773YOPS   CNO11623   4.292  12.353   5.595 -0.3333 -0.0722 -0.0719
  773YOPS   PO411624   4.328  12.523   5.957 -0.2961 -0.4126 -0.2237
  773YOPS   GL111625   4.621  12.672   6.141 -0.0322  0.1355 -0.3615
  773YOPS   GL211626   5.023  12.672   6.132 -0.1633  0.0455 -0.2298
  773YOPS   C1A11627   4.793  13.030   6.534 -0.1412 -0.0871  0.2048
  773YOPS   D2A11628   4.726  13.010   7.020  0.0474 -0.0230  0.1532
  773YOPS   C3A11629   4.672  13.088   7.506  0.2411 -0.1620  0.1812
  773YOPS   C4A11630   5.139  13.200   7.673  0.0830  0.0228  0.0040
  773YOPS   C1B11631   5.208  12.694   6.490 -0.2497 -0.1945 -0.0614
  773YOPS   C2B11632   5.230  12.840   6.797  0.2116  0.0869 -0.2811
  773YOPS   D3B11633   5.245  12.955   7.134 -0.2145 -0.2753 -0.1850
  773YOPS   C4B11634   5.335  12.495   7.153  0.2705  0.0857  0.2284
  774YOPS   CNO11635  10.624  15.944   5.563  0.0729 -0.2144 -0.0042
  774YOPS   PO411636  10.743  16.359   5.508  0.1338 -0.0354  0.2770
  774YOPS   GL111637  10.729  16.369   5.863 -0.0307 -0.2597  0.4441
  774YOPS   GL211638  11.035  16.563   6.057 -0.3443  0.0196  0.1112
  774YOPS   C1A11639  10.569  16.495   6.346  0.0808 -0.2161 -0.0649
  774YOPS   D2A11640  10.322  16.478   6.678  0.2085  0.1119 -0.0062
  774YOPS   C3A11641   9.805  16.324   6.528 -0.0388 -0.1787  0.0631
  774YOPS   C4A11642   9.467  16.721   6.753  0.3028  0.1936 -0.2966
  774YOPS   C1B11643  11.107  16.575   6.505 -0.1039 -0.1320  0.2136
  774YOPS   C2B11644  11.271  16.537   6.877 -0.1239  0.0434  0.0530
  774YOPS   D3B11645  11.043  16.420   7.062 -0.0877 -0.0176 -0.0380
  774YOPS   C4B11646  10.767  16.344   6.769 -0.2136 -0.0504 -0.4539
  775YOPS   CNO11647   1.594   5.253   6.024  0.1996  0.2747  0.0284
  775YOPS   PO411648   1.545   4.962   5.950 -0.0488 -0.1712  0.0597
  775YOPS   GL111649   1.524   4.924   6.446 -0.0152  0.0045  0.1088
  775YOPS   GL211650   1.193   5.012   6.530 -0.1764  0.2459  0.0269
  775YOPS   C1A11651   1.777   4.849   6.825  0.2831  0.1134  0.0450
  775YOPS   D2A11652   1.947   4.921   7.167 -0.1583  0.2558 -0.1984
  775YOPS   C3A11653   2.271   5.179   7.332  0.2237  0.4796  0.2530
  775YOPS   C4A11654   2.144   5.330   7.709 -0.1066 -0.3754  0.1368
  775YOPS   C1B11655   1.250   5.030   6.898 -0.2430 -0.1964 -0.0734
  775YOPS   C2B11656   1.421   4.906   7.328 -0.1703  0.1257 -0.2819
  775YOPS   D3B11657   1.733   4.871   7.724 -0.1259  0.1406  0.1408
  775YOPS   C4B11658   1.826   5.070   8.183 -0.1717 -0.1071  0.1162
  776YOPS   CNO11659   2.611  17.388   5.185 -0.1468 -0.0101 -0.0768
  776YOPS   PO411660   2.718  17.441   5.597 -0.1876  0.3048 -0.1199
  776YOPS   GL111661   2.684  17.283   6.064 -0.3172 -0.0061  0.2781
  776YOPS   GL211662   2.410  17.516   6.185  0.1101 -0.2964  0.1795
  776YOPS   C1A11663   2.859  17.537   6.386  0.0574 -0.1220 -0.0994
  776YOPS   D2A11664   2.892  17.920   6.647 -0.2453  0.3314 -0.1140
  776YOPS   C3A11665   2.935  18.170   7.075  0.1439  0.1435 -0.0424
  776YOPS   C4A11666   2.739  18.294   7.505  0.0345  0.1054 -0.1097
  776YOPS   C1B11667   2.231  17.239   6.543  0.2291  0.1054 -0.1793
  776YOPS   C2B11668   2.185  17.329   7.003  0.1360  0.2147 -0.0501
  776YOPS   D3B11669   1.778  17.183   7.250  0.0511 -0.0046 -0.2074
  776YOPS   C4B11670   1.334  17.251   6.939 -0.0527 -0.2500 -0.1850
  777YOPS   CNO11671  12.111   4.283   5.600 -0.1036  0.0610 -0.3718
  777YOPS   PO411672  11.851   4.181   5.965  0.0159 -0.2526 -0.0818
  777YOPS   GL111673  11.884   3.940   6.400  0.1323  0.1583 -0.3231
  777YOPS   GL211674  12.054   3.985   6.645 -0.1292  0.0178  0.1600
  777YOPS   C1A11675  11.638   3.683   6.729 -0.1160 -0.0711 -0.2497
  777YOPS   D2A11676  11.334   3.454   6.920 -0.0549  0.0844  0.1785
  777YOPS   C3A11677  11.263   3.215   7.316 -0.0181  0.3773  0.0367
  777YOPS   C4A11678  10.909   3.005   7.636  0.0131  0.4257 -0.3115
  777YOPS   C1B11679  12.006   3.868   7.031  0.1653  0.0847 -0.2232
  777YOPS   C2B11680  11.981   3.797   7.483 -0.0604  0.4360  0.1063
  777YOPS   D3B11681  12.147   3.725   7.870 -0.0293 -0.0913  0.3281
  777YOPS   C4B11682  12.154   3.915   8.216 -0.0352 -0.2009  0.0574
  778YOPS   CNO11683   4.706  13.320   5.338  0.0316  0.0269  0.0693
  778YOPS   PO411684   4.862  13.543   5.646 -0.1146  0.0330 -0.0788
  778YOPS   GL111685   4.869  13.678   6.032  0.0246  0.4755  0.0056
  778YOPS   GL211686   4.663  13.833   6.137  0.3442  0.6802 -0.2661
  778YOPS   C1A11687   4.910  13.521   6.379 -0.0601 -0.0120 -0.2944
  778YOPS   D2A11688   5.069  13.564   6.781  0.1178 -0.0551  0.0457
  778YOPS   C3A11689   5.129  13.428   7.198  0.0740 -0.1337  0.2828
  778YOPS   C4A11690   5.258  13.756   7.411 -0.0308  0.1314  0.3265
  778YOPS   C1B11691   4.483  13.666   6.545 -0.2151  0.0396 -0.1717
  778YOPS   C2B11692   4.383  13.307   6.785 -0.1098  0.1494 -0.2253
  778YOPS   D3B11693   4.156  13.114   7.027  0.0450  0.2172  0.4505
  778YOPS   C4B11694   3.971  12.654   7.058  0.2006 -0.1333  0.1149
  779YOPS   CNO11695  15.815  11.393   5.621 -0.0996 -0.2248 -0.0080
  779YOPS   PO411696  16.063  10.979   5.651 -0.1642 -0.3017 -0.2115
  779YOPS   GL111697  16.100  10.939   6.121 -0.0804 -0.1738  0.1107
  779YOPS   GL211698  16.026  11.195   6.238  0.1090  0.1602  0.3421
  779YOPS   C1A11699  15.989  10.817   6.515  0.0671  0.0083  0.0519
  779YOPS   D2A11700  16.023  10.994   6.965  0.2375  0.1204  0.0542
  779YOPS   C3A11701  16.042  11.020   7.380  0.3197  0.0673  0.1852
  779YOPS   C4A11702  15.764  11.020   7.641  0.2143 -0.0960  0.1002
  779YOPS   C1B11703  16.192  11.332   6.604 -0.3041 -0.2657 -0.2474
  779YOPS   C2B11704  15.967  11.523   6.862 -0.0555 -0.1964  0.2659
  779YOPS   D3B11705  15.962  11.653   7.278 -0.1830  0.1190 -0.1550
  779YOPS   C4B11706  16.314  11.478   7.613  0.0917 -0.0623 -0.0406
  780YOPS   CNO11707  14.881  11.893   4.890 -0.2474  0.2628 -0.1145
  780YOPS   PO411708  15.011  12.135   5.335 -0.0140 -0.0654  0.0747
  780YOPS   GL111709  15.132  11.980   5.763  0.0949  0.2901  0.0505
  780YOPS   GL211710  15.185  12.190   5.879  0.3430  0.2709 -0.0799
  780YOPS   C1A11711  14.851  11.969   6.172 -0.2290  0.1861  0.0654
  780YOPS   D2A11712  14.645  11.868   6.551 -0.1138 -0.1554  0.1391
  780YOPS   C3A11713  14.352  12.003   6.827 -0.2261 -0.0611 -0.0934
  780YOPS   C4A11714  14.464  12.260   7.186  0.2072 -0.2306  0.0339
  780YOPS   C1B11715  15.493  12.424   6.212 -0.0721  0.1991 -0.0811
  780YOPS   C2B11716  15.514  12.240   6.641  0.4686  0.5148  0.1078
  780YOPS   D3B11717  15.671  11.875   6.710 -0.3340  0.2163  0.0097
  780YOPS   C4B11718  15.963  11.667   6.336 -0.0546 -0.1495 -0.1554
  781YOPS   CNO11719  14.843   7.889   5.856 -0.0736 -0.0385 -0.0915
  781YOPS   PO411720  15.098   8.339   5.957 -0.3316 -0.1276  0.0099
  781YOPS   GL111721  14.994   8.408   6.276  0.0105 -0.0500 -0.0939
  781YOPS   GL211722  14.969   8.057   6.372 -0.2498 -0.3501  0.0907
  781YOPS   C1A11723  15.010   8.426   6.729  0.0832  0.0534  0.1500
  781YOPS   D2A11724  15.013   8.688   7.121  0.0771  0.0166 -0.0608
  781YOPS   C3A11725  14.710   8.974   7.154  0.1047 -0.1175 -0.0065
  781YOPS   C4A11726  14.823   9.303   7.020  0.2231  0.1264  0.0503
  781YOPS   C1B11727  14.728   7.999   6.781  0.1499 -0.1312  0.2075
  781YOPS   C2B11728  14.574   8.387   7.030 -0.1664  0.0862 -0.1128
  781YOPS   D3B11729  14.491   8.590   7.326 -0.1762 -0.2309 -0.0320
  781YOPS   C4B11730  14.781   8.861   7.657  0.0396  0.0551 -0.1386
  782YOPS   CNO11731   6.359  15.637   5.068  0.0463  0.2757  0.0480
  782YOPS   PO411732   6.179  15.698   5.478 -0.1521  0.1657  0.0099
  782YOPS   GL111733   6.159  15.464   5.985  0.0943  0.0234  0.2141
  782YOPS   GL211734   6.020  15.811   6.133 -0.2354 -0.0757  0.1530
  782YOPS   C1A11735   6.102  15.382   6.490  0.3286  0.1292  0.1751
  782YOPS   D2A11736   6.076  15.625   6.882 -0.1649  0.0704  0.2929
  782YOPS   C3A11737   5.914  15.729   7.290 -0.2390  0.1571  0.0431
  782YOPS   C4A11738   6.020  16.130   7.496 -0.1063 -0.1975 -0.0864
  782YOPS   C1B11739   6.323  15.909   6.478  0.1329  0.3136 -0.0612
  782YOPS   C2B11740   6.314  16.318   6.693  0.1646  0.2661  0.3849
  782YOPS   D3B11741   6.210  16.516   7.090 -0.3689  0.0724  0.2568
  782YOPS   C4B11742   6.439  16.877   7.333  0.0462  0.1282 -0.1264
  783YOPS   CNO11743   0.999   9.483   5.458  0.0962  0.3949  0.3376
  783YOPS   PO411744   1.036   9.619   5.917  0.1718  0.1340  0.0399
  783YOPS   GL111745   0.733   9.467   6.201  0.0867  0.1744 -0.3476
  783YOPS   GL211746   0.927   9.338   6.337  0.0004 -0.0293 -0.0592
  783YOPS   C1A11747   0.499   9.629   6.579  0.2301  0.1168  0.1517
  783YOPS   D2A11748   0.521   9.638   6.963 -0.2056  0.2099 -0.1801
  783YOPS   C3A11749   0.234   9.510   7.327  0.2982  0.0761  0.1327
  783YOPS   C4A11750  -0.206   9.450   7.038 -0.0513 -0.1839 -0.0673
  783YOPS   C1B11751   1.081   9.317   6.778  0.1128  0.1821 -0.3193
  783YOPS   C2B11752   0.997   9.474   7.177 -0.3709 -0.1510 -0.2599
  783YOPS   D3B11753   0.709   9.697   7.514  0.2921 -0.1691 -0.1206
  783YOPS   C4B11754   0.934  10.094   7.433  0.1072 -0.1181 -0.1921
  784YOPS   CNO11755   9.344  12.405   5.240 -0.1040  0.2550  0.1375
  784YOPS   PO411756   9.310  12.023   5.333 -0.0369  0.0602  0.2573
  784YOPS   GL111757   9.151  11.799   5.781 -0.2980 -0.1392  0.0516
  784YOPS   GL211758   9.235  11.581   5.872  0.0697  0.2042 -0.0881
  784YOPS   C1A11759   9.363  12.026   6.187 -0.0156 -0.4130  0.1042
  784YOPS   D2A11760   9.533  12.384   6.437  0.1574 -0.0671  0.2039
  784YOPS   C3A11761   9.733  12.875   6.385  0.1842  0.1780  0.0341
  784YOPS   C4A11762   9.655  13.119   6.825 -0.0871  0.0293 -0.0725
  784YOPS   C1B11763   9.132  11.574   6.265 -0.1207  0.0567 -0.0362
  784YOPS   C2B11764   9.219  11.434   6.654 -0.0486 -0.0698  0.2886
  784YOPS   D3B11765   9.482  11.569   6.930  0.3937 -0.0858 -0.2749
  784YOPS   C4B11766   9.603  11.373   7.231 -0.2086  0.2727  0.2777
  785YOPS   CNO11767   0.707  10.375   5.731 -0.0717 -0.0133  0.1400
  785YOPS   PO411768   1.055  10.620   5.982  0.4596  0.1736 -0.1691
  785YOPS   GL111769   1.037  10.974   6.252  0.1563 -0.1968 -0.0873
  785YOPS   GL211770   0.878  10.987   6.406 -0.0166 -0.4135 -0.0892
  785YOPS   C1A11771   1.318  10.804   6.581  0.2837  0.0869  0.0622
  785YOPS   D2A11772   1.301  10.996   7.126 -0.0284  0.0476  0.3185
  785YOPS   C3A11773   1.103  11.238   7.436  0.1657  0.2845 -0.2155
  785YOPS   C4A11774   1.420  11.184   7.699 -0.0637  0.2063 -0.2527
  785YOPS   C1B11775   0.901  10.874   6.837  0.1258  0.0118  0.0700
  785YOPS   C2B11776   0.659  10.933   7.206 -0.0924 -0.1288  0.0232
  785YOPS   D3B11777   0.620  10.997   7.620 -0.1571  0.1680  0.0378
  785YOPS   C4B11778   1.008  11.073   7.966  0.0711 -0.3680  0.0924
  786YOPS   CNO11779   9.246  11.480   5.331 -0.1180  0.3388 -0.0604
  786YOPS   PO411780   9.561  11.295   5.513  0.0863  0.1507 -0.1416
  786YOPS   GL111781   9.610  11.239   5.953 -0.0863  0.0219 -0.0819
  786YOPS   GL211782   9.355  11.051   6.038 -0.1326 -0.2479 -0.1917
  786YOPS   C1A11783   9.636  11.643   6.272  0.1271  0.2516  0.0926
  786YOPS   D2A11784   9.714  11.959   6.719  0.0184  0.1540 -0.0650
  786YOPS   C3A11785   9.584  12.331   6.932  0.0004 -0.2764  0.0557
  786YOPS   C4A11786   9.653  12.348   7.381 -0.2466  0.2465  0.2376
  786YOPS   C1B11787   9.559  11.139   6.402 -0.0422  0.1213  0.0119
  786YOPS   C2B11788   9.595  11.138   6.792 -0.0225  0.0380  0.1970
  786YOPS   D3B11789   9.369  11.013   7.120 -0.0454 -0.2394  0.0270
  786YOPS   C4B11790   9.011  11.099   7.060  0.4387 -0.0516 -0.0521
  787YOPS   CNO11791   9.266  13.101   5.245  0.1349 -0.0079  0.2070
  787YOPS   PO411792   8.993  12.825   5.510  0.1173 -0.0624 -0.2166
  787YOPS   GL111793   9.018  12.445   5.727  0.1954  0.0299  0.3880
  787YOPS   GL211794   9.332  12.286   5.749  0.1984 -0.2040 -0.0910
  787YOPS   C1A11795   8.920  12.137   6.042 -0.0954 -0.0384 -0.2859
  787YOPS   D2A11796   8.929  11.986   6.462 -0.2158  0.0379 -0.3530
  787YOPS   C3A11797   9.201  11.983   6.746 -0.3072  0.1743  0.0074
  787YOPS   C4A11798   9.351  11.964   7.218  0.0879  0.3959  0.1775
  787YOPS   C1B11799   9.405  12.699   6.026  0.1345 -0.3017  0.2039
  787YOPS   C2B11800   9.270  13.035   6.283  0.0264  0.2411 -0.3179
  787YOPS   D3B11801   9.174  13.312   6.610 -0.0702 -0.3035  0.0162
  787YOPS   C4B11802   9.236  13.350   7.062  0.1491 -0.0407 -0.0835
  788YOPS   CNO11803  14.492  16.153   5.649 -0.0725 -0.0055 -0.1995
  788YOPS   PO411804  14.764  16.477   5.389  0.0620 -0.3893 -0.2713
  788YOPS   GL111805  14.751  16.472   5.966  0.1591 -0.0261  0.0859
  788YOPS   GL211806  14.688  16.878   6.016 -0.1546  0.0023  0.0635
  788YOPS   C1A11807  14.496  16.179   6.232 -0.0534  0.1130 -0.2261
  788YOPS   D2A11808  14.438  15.844   6.502 -0.0335 -0.1172 -0.0311
  788YOPS   C3A11809  14.324  15.605   6.725  0.0025  0.0346  0.0741
  788YOPS   C4A11810  13.834  15.770   6.786  0.0744 -0.4682 -0.1028
  788YOPS   C1B11811  14.875  17.046   6.402 -0.0441 -0.1247  0.0948
  788YOPS   C2B11812  14.684  17.306   6.706  0.0436 -0.0074  0.1037
  788YOPS   D3B11813  14.699  17.502   7.066 -0.1020  0.0782 -0.1984
  788YOPS   C4B11814  14.426  17.890   7.162  0.0188  0.0673  0.0935
  789YOPS   CNO11815   8.889  15.602   5.636 -0.1566  0.3148  0.1349
  789YOPS   PO411816   9.411  15.780   5.701  0.2055 -0.1195 -0.2270
  789YOPS   GL111817   9.420  16.099   5.964 -0.1613 -0.0446 -0.3917
  789YOPS   GL211818   9.685  15.874   6.204 -0.2656 -0.1657  0.1806
  789YOPS   C1A11819   9.333  16.374   6.382 -0.0435 -0.1395 -0.0302
  789YOPS   D2A11820   9.056  16.800   6.532  0.3173 -0.2461 -0.0661
  789YOPS   C3A11821   9.054  17.114   6.828  0.2215 -0.4164 -0.1221
  789YOPS   C4A11822   9.235  17.071   7.145  0.0724  0.0578  0.6121
  789YOPS   C1B11823   9.466  15.927   6.590 -0.0486 -0.0803  0.0908
  789YOPS   C2B11824   9.430  16.235   6.938  0.0459 -0.0021  0.1340
  789YOPS   D3B11825   9.488  16.616   7.245  0.0972  0.4211 -0.0638
  789YOPS   C4B11826   9.148  16.723   7.554 -0.0086  0.1478  0.0004
  790YOPS   CNO11827  13.050  15.627   4.968 -0.3475  0.0094 -0.0901
  790YOPS   PO411828  12.988  16.014   5.310  0.1683  0.1694  0.0158
  790YOPS   GL111829  13.107  16.091   5.735 -0.2301 -0.3352  0.2086
  790YOPS   GL211830  13.469  16.196   5.856 -0.1728  0.1634 -0.1254
  790YOPS   C1A11831  13.106  16.195   6.142 -0.0016  0.1879 -0.1489
  790YOPS   D2A11832  13.025  16.424   6.506  0.0204  0.2147 -0.0258
  790YOPS   C3A11833  13.093  16.506   6.923 -0.0752 -0.1512 -0.0071
  790YOPS   C4A11834  13.431  16.731   6.990 -0.0523 -0.1376 -0.0008
  790YOPS   C1B11835  13.657  16.435   6.145 -0.1781 -0.0062  0.5137
  790YOPS   C2B11836  13.470  16.484   6.581  0.1195 -0.2429 -0.2443
  790YOPS   D3B11837  13.543  16.247   6.916 -0.2204  0.0618 -0.1277
  790YOPS   C4B11838  13.360  16.372   7.345  0.4096  0.0726  0.3689
  791YOPS   CNO11839   5.640  18.060   5.728 -0.1512 -0.4430 -0.3476
  791YOPS   PO411840   5.613  17.655   5.554 -0.0467  0.2780  0.0039
  791YOPS   GL111841   5.587  17.663   5.981 -0.1929 -0.2951  0.0232
  791YOPS   GL211842   5.363  17.919   6.206 -0.2418  0.0633  0.0663
  791YOPS   C1A11843   5.534  17.560   6.426  0.2265  0.0073 -0.2525
  791YOPS   D2A11844   5.369  17.432   6.767  0.0159 -0.3417  0.3443
  791YOPS   C3A11845   5.317  17.080   6.983  0.1295  0.0757 -0.1085
  791YOPS   C4A11846   5.433  16.774   7.253  0.0066  0.2146 -0.1240
  791YOPS   C1B11847   5.008  17.937   6.509  0.0766 -0.2207  0.0056
  791YOPS   C2B11848   4.892  17.754   6.907  0.0797 -0.1218 -0.0654
  791YOPS   D3B11849   4.863  17.725   7.421 -0.1748  0.0613 -0.0823
  791YOPS   C4B11850   5.099  17.454   7.761  0.0362 -0.0977  0.0933
  792YOPS   CNO11851   4.071   8.223   6.219  0.2421 -0.1371 -0.1207
  792YOPS   PO411852   4.298   8.684   6.037  0.1981  0.1960  0.1079
  792YOPS   GL111853   4.031   8.742   6.315 -0.3375 -0.1031 -0.0524
  792YOPS   GL211854   4.105   8.940   6.599  0.3110 -0.1061 -0.3044
  792YOPS   C1A11855   3.948   8.513   6.586 -0.1142  0.0770 -0.0424
  792YOPS   D2A11856   3.540   8.298   6.899  0.2010 -0.1411 -0.0158
  792YOPS   C3A11857   3.520   8.173   7.315  0.0196 -0.0412 -0.2626
  792YOPS   C4A11858   3.852   7.960   7.549  0.2661 -0.2219  0.2014
  792YOPS   C1B11859   3.791   9.207   6.758  0.1429  0.0429 -0.0212
  792YOPS   C2B11860   3.570   9.215   7.050 -0.3323 -0.1517 -0.0841
  792YOPS   D3B11861   3.777   9.282   7.431  0.4138  0.1258  0.2258
  792YOPS   C4B11862   3.718   9.033   7.824 -0.0901  0.0106 -0.4017
  793YOPS   CNO11863  18.100  11.928   5.539 -0.1987 -0.0158 -0.1042
  793YOPS   PO411864  17.852  11.619   5.792 -0.1833 -0.2370 -0.2838
  793YOPS   GL111865  17.570  11.480   6.115  0.0050 -0.1969  0.1597
  793YOPS   GL211866  17.557  11.788   6.202 -0.1090 -0.2468 -0.0522
  793YOPS   C1A11867  17.585  11.388   6.575  0.0709  0.2739 -0.1083
  793YOPS   D2A11868  17.794  11.153   6.862 -0.1523 -0.4368  0.1477
  793YOPS   C3A11869  17.876  10.906   7.183 -0.1284  0.1359 -0.0143
  793YOPS   C4A11870  17.624  10.648   7.203  0.2326 -0.0350 -0.3808
  793YOPS   C1B11871  17.577  11.965   6.685  0.1762  0.1526 -0.3286
  793YOPS   C2B11872  17.335  12.205   6.937 -0.0922 -0.1015  0.2783
  793YOPS   D3B11873  17.165  12.513   7.126 -0.0034  0.0338  0.2334
  793YOPS   C4B11874  17.312  12.728   7.586  0.2021 -0.1252 -0.3208
  794YOPS   CNO11875   6.195  13.148   5.212  0.0124 -0.0122 -0.3495
  794YOPS   PO411876   6.080  12.971   5.624 -0.3591  0.0622 -0.0526
  794YOPS   GL111877   6.283  12.938   6.064  0.0441  0.0177 -0.2365
  794YOPS   GL211878   6.514  12.578   6.152 -0.1498  0.0773 -0.1428
  794YOPS   C1A11879   6.237  13.134   6.442 -0.1111  0.1926  0.1950
  794YOPS   D2A11880   6.226  13.062   6.906  0.0665  0.0987 -0.0095
  794YOPS   C3A11881   6.127  12.835   7.242  0.1910 -0.2257  0.0888
  794YOPS   C4A11882   5.663  12.871   7.337  0.2331  0.2077  0.2704
  794YOPS   C1B11883   6.838  12.638   6.464 -0.0338  0.1890 -0.0945
  794YOPS   C2B11884   6.932  12.572   6.896 -0.2638 -0.2225  0.1647
  794YOPS   D3B11885   6.786  12.273   7.199  0.1517 -0.1060 -0.0595
  794YOPS   C4B11886   6.995  12.221   7.554  0.1301  0.1371  0.0411
  795YOPS   CNO11887   1.398  15.014   5.562  0.0890  0.3342  0.1958
  795YOPS   PO411888   1.023  15.268   5.763  0.1991  0.0240 -0.4056
  795YOPS   GL111889   1.063  15.517   6.231  0.1587  0.1165 -0.2722
  795YOPS   GL211890   1.146  15.894   6.292 -0.0251  0.5769 -0.1039
  795YOPS   C1A11891   1.160  15.391   6.576 -0.2514  0.2516  0.0770
  795YOPS   D2A11892   1.354  15.492   6.993 -0.1775  0.3081  0.2842
  795YOPS   C3A11893   1.242  15.786   7.321  0.0778 -0.0169  0.4079
  795YOPS   C4A11894   1.379  15.662   7.783 -0.1213 -0.1578 -0.0670
  795YOPS   C1B11895   1.324  15.949   6.724 -0.1491  0.1058  0.1093
  795YOPS   C2B11896   1.399  16.221   7.028  0.0580 -0.0268  0.1761
  795YOPS   D3B11897   1.373  16.287   7.494  0.1240 -0.2665 -0.0318
  795YOPS   C4B11898   1.027  16.237   7.872 -0.3555  0.2275  0.0099
  796YOPS   CNO11899   9.632  16.618   5.580 -0.0035  0.1409 -0.0723
  796YOPS   PO411900  10.024  16.636   5.393  0.3750 -0.0601  0.1579
  796YOPS   GL111901  10.078  16.699   5.845 -0.0807  0.0653  0.1538
  796YOPS   GL211902  10.248  16.356   5.913 -0.0030  0.4813 -0.1756
  796YOPS   C1A11903  10.099  16.672   6.315  0.1704  0.0998  0.1998
  796YOPS   D2A11904   9.928  16.725   6.780 -0.3412  0.2274  0.0787
  796YOPS   C3A11905   9.990  16.360   7.030 -0.0079  0.0700 -0.1569
  796YOPS   C4A11906   9.985  16.440   7.515  0.0624 -0.2472 -0.0545
  796YOPS   C1B11907  10.128  16.109   6.291  0.2462  0.0134  0.1231
  796YOPS   C2B11908   9.979  15.854   6.590 -0.0843 -0.5524 -0.0526
  796YOPS   D3B11909   9.759  15.493   6.758 -0.0051  0.5040  0.1962
  796YOPS   C4B11910   9.518  15.523   7.124 -0.2861 -0.0480  0.0218
  797YOPS   CNO11911   4.457  18.101   5.096  0.2563  0.0591 -0.1270
  797YOPS   PO411912   4.708  17.996   5.499 -0.0193 -0.0806 -0.0620
  797YOPS   GL111913   4.683  18.113   5.966  0.2527  0.0160 -0.2194
  797YOPS   GL211914   4.652  18.474   5.956  0.0550 -0.0682  0.0129
  797YOPS   C1A11915   4.973  18.395   6.278  0.0828 -0.0590  0.2284
  797YOPS   D2A11916   5.273  18.501   6.459  0.1420  0.0918  0.3957
  797YOPS   C3A11917   5.462  18.149   6.612 -0.1423 -0.3187 -0.1301
  797YOPS   C4A11918   5.661  17.910   6.727  0.2090  0.1137 -0.1745
  797YOPS   C1B11919   4.566  18.208   6.446 -0.0662  0.2951  0.5036
  797YOPS   C2B11920   4.717  18.237   6.844  0.0642 -0.0230  0.0967
  797YOPS   D3B11921   4.997  18.233   7.199 -0.0789  0.3741 -0.1913
  797YOPS   C4B11922   5.306  18.034   7.088  0.3087 -0.0981  0.1207
  798YOPS   CNO11923   7.155  12.223   6.252 -0.4708 -0.2549 -0.4182
  798YOPS   PO411924   7.315  11.876   6.085  0.1646 -0.1182  0.3096
  798YOPS   GL111925   7.360  11.545   6.405 -0.1371  0.2734  0.2079
  798YOPS   GL211926   7.568  11.619   6.507 -0.2053  0.5595  0.0348
  798YOPS   C1A11927   7.307  11.188   6.703  0.0946 -0.2111 -0.3267
  798YOPS   D2A11928   7.151  11.016   7.137  0.1036 -0.0270 -0.3404
  798YOPS   C3A11929   7.167  10.723   7.543 -0.0824 -0.4583  0.1195
  798YOPS   C4A11930   7.206  10.943   7.995 -0.0300  0.1206  0.0290
  798YOPS   C1B11931   7.678  11.655   6.972  0.0979  0.1626  0.0946
  798YOPS   C2B11932   7.905  11.798   7.365 -0.0521  0.0375  0.0926
  798YOPS   D3B11933   8.077  11.790   7.733 -0.0163 -0.0720  0.0838
  798YOPS   C4B11934   8.551  11.896   7.831  0.0660 -0.3162 -0.1152
  799YOPS   CNO11935  17.865  18.309   5.522  0.0592 -0.0767  0.0705
  799YOPS   PO411936  18.280  18.538   5.449  0.0993 -0.2375 -0.0889
  799YOPS   GL111937  18.320  18.281   5.793 -0.0837  0.0926  0.3209
  799YOPS   GL211938  18.132  18.288   6.019  0.1603 -0.2016 -0.0807
  799YOPS   C1A11939  18.643  18.426   6.186  0.3693  0.1414  0.0629
  799YOPS   D2A11940  18.758  18.735   6.524 -0.3844  0.0120 -0.2834
  799YOPS   C3A11941  18.856  18.920   6.891 -0.0668 -0.1323  0.1228
  799YOPS   C4A11942  18.588  19.207   7.213  0.3361  0.3628 -0.0106
  799YOPS   C1B11943  18.178  18.631   6.348 -0.1330 -0.1628 -0.3463
  799YOPS   C2B11944  18.011  18.856   6.620 -0.4564 -0.0072 -0.0862
  799YOPS   D3B11945  17.857  19.255   6.729  0.1009 -0.0624  0.0229
  799YOPS   C4B11946  17.594  19.316   7.067  0.1644 -0.3063 -0.1990
  800YOPS   CNO11947  13.327   8.164   5.485  0.0398  0.2600  0.0370
  800YOPS   PO411948  13.140   8.130   5.874 -0.2628 -0.1686  0.3424
  800YOPS   GL111949  13.245   8.034   6.269 -0.2404  0.0026 -0.1855
  800YOPS   GL211950  12.966   7.830   6.362 -0.0974 -0.4344  0.2251
  800YOPS   C1A11951  13.151   8.309   6.674 -0.3821 -0.0169  0.2036
  800YOPS   D2A11952  13.305   8.438   7.118  0.0313 -0.0611 -0.3000
  800YOPS   C3A11953  13.192   8.498   7.519  0.0586  0.1691 -0.1787
  800YOPS   C4A11954  13.174   8.067   7.781  0.1130  0.4673 -0.0829
  800YOPS   C1B11955  12.758   7.955   6.808  0.4281  0.0282  0.0595
  800YOPS   C2B11956  12.699   7.689   7.190  0.2495 -0.1520  0.0882
  800YOPS   D3B11957  12.696   7.780   7.612 -0.0970  0.0334 -0.0262
  800YOPS   C4B11958  12.939   7.648   7.925 -0.1964 -0.0663  0.1842
  801POPE   NH311959  11.756  11.109   5.217  0.1639 -0.3011 -0.0809
  801POPE   PO411960  11.450  11.230   5.274  0.2838  0.1113 -0.1076
  801POPE   GL111961  11.403  11.327   5.714  0.0193 -0.0218  0.0567
  801POPE   GL211962  11.262  11.146   5.952  0.0557  0.1296 -0.0829
  801POPE   C1A11963  11.202  11.665   5.914  0.0800  0.1128  0.2633
  801POPE   D2A11964  11.046  11.950   6.220 -0.0401 -0.2150  0.0845
  801POPE   C3A11965  11.037  11.829   6.686  0.0503  0.1400  0.0834
  801POPE   C4A11966  10.758  12.049   7.008 -0.1062  0.2524 -0.1128
  801POPE   C1B11967  11.276  11.369   6.369 -0.1406 -0.0539 -0.0255
  801POPE   C2B11968  11.518  11.454   6.662 -0.1503  0.0280  0.1947
  801POPE   C3B11969  11.541  11.580   7.066  0.3413  0.1731  0.2104
  801POPE   C4B11970  11.933  11.514   7.368  0.1803  0.0279  0.1072
  802POPE   NH311971   9.342   7.474   5.992  0.3998  0.0855 -0.0126
  802POPE   PO411972   9.831   7.488   5.994  0.1567  0.1786  0.2254
  802POPE   GL111973   9.695   7.704   6.291  0.1103 -0.0316 -0.2743
  802POPE   GL211974   9.565   7.385   6.482 -0.2098  0.0212  0.1325
  802POPE   C1A11975   9.856   8.057   6.594  0.1611  0.0735  0.0171
  802POPE   D2A11976   9.829   8.240   7.000  0.0643  0.3083 -0.2435
  802POPE   C3A11977   9.915   7.890   7.377 -0.0081 -0.0672  0.0039
  802POPE   C4A11978  10.031   7.533   7.439 -0.3743 -0.0958 -0.0298
  802POPE   C1B11979   9.335   7.494   6.824 -0.1700 -0.2184 -0.1603
  802POPE   C2B11980   9.086   7.619   7.170  0.3518  0.3131 -0.0417
  802POPE   C3B11981   8.958   7.935   7.498 -0.2449 -0.0211  0.2611
  802POPE   C4B11982   8.993   8.040   7.967  0.1047 -0.0067  0.0971
  803POPE   NH311983  11.577   3.295   5.676  0.2957  0.2117  0.0674
  803POPE   PO411984  11.188   3.503   5.806 -0.1071  0.0284 -0.3628
  803POPE   GL111985  11.105   3.621   6.310 -0.0805  0.2365 -0.0941
  803POPE   GL211986  10.876   3.448   6.524  0.1021 -0.0162  0.1083
  803POPE   C1A11987  11.171   3.856   6.703  0.3158 -0.2051 -0.0115
  803POPE   D2A11988  11.210   4.050   7.125 -0.2385 -0.1866  0.1725
  803POPE   C3A11989  10.869   4.108   7.311  0.0743 -0.0305 -0.0838
  803POPE   C4A11990  10.564   3.984   7.633  0.1081 -0.0333 -0.1255
  803POPE   C1B11991  10.636   3.106   6.603  0.3531 -0.0031 -0.0734
  803POPE   C2B11992  10.263   3.097   6.788 -0.0088  0.0106  0.4332
  803POPE   C3B11993  10.174   3.037   7.196  0.1710 -0.0193 -0.0141
  803POPE   C4B11994  10.481   3.203   7.598 -0.2887  0.2969 -0.0501
  804POPE   NH311995  14.784   5.580   6.195  0.4563 -0.0211 -0.0054
  804POPE   PO411996  15.233   5.559   6.280  0.3492  0.0776 -0.2922
  804POPE   GL111997  15.193   5.395   6.708  0.0502  0.3433  0.0130
  804POPE   GL211998  14.988   5.143   6.645 -0.2191 -0.7535 -0.1396
  804POPE   C1A11999  15.358   5.435   7.166 -0.1628 -0.0206 -0.0328
  804POPE   D2A12000  15.374   5.517   7.694  0.1483 -0.0418 -0.1455
  804POPE   C3A12001  15.051   5.299   7.980  0.0809  0.2449  0.3466
  804POPE   C4A12002  14.785   4.991   7.921  0.0364 -0.0388  0.1477
  804POPE   C1B12003  14.740   5.463   6.896  0.0682  0.1092 -0.0188
  804POPE   C2B12004  14.853   5.643   7.294  0.2054  0.3155 -0.3927
  804POPE   C3B12005  14.863   5.689   7.737 -0.1683 -0.1337 -0.0091
  804POPE   C4B12006  14.737   5.753   8.069  0.1173 -0.1527  0.2491
  805POPE   NH312007  10.394  11.254   5.534  0.4090  0.1986  0.0496
  805POPE   PO412008  10.375  10.836   5.637 -0.1079  0.2022  0.1785
  805POPE   GL112009  10.768  10.976   5.823  0.0911  0.2100  0.3549
  805POPE   GL212010  10.801  11.321   5.936  0.1922 -0.1288 -0.2462
  805POPE   C1A12011  11.030  10.834   6.273 -0.0354  0.1470  0.2042
  805POPE   D2A12012  11.122  10.847   6.648  0.2800  0.0443 -0.0440
  805POPE   C3A12013  11.194  10.572   6.982 -0.0968  0.1506  0.2701
  805POPE   C4A12014  11.076  10.603   7.424  0.0185  0.0557  0.1099
  805POPE   C1B12015  10.613  11.104   6.274 -0.0068 -0.1110 -0.0341
  805POPE   C2B12016  10.660  11.066   6.664  0.0697 -0.1193 -0.0991
  805POPE   C3B12017  10.984  11.366   6.883 -0.1975  0.2144  0.0314
  805POPE   C4B12018  10.948  11.628   7.150  0.0924 -0.0904  0.0343
  806POPE   NH312019   0.785   2.672   5.909 -0.0027 -0.0880  0.2292
  806POPE   PO412020   0.444   2.910   5.725  0.1442  0.0267  0.1838
  806POPE   GL112021   0.329   3.150   6.083 -0.0826  0.1057  0.1900
  806POPE   GL212022   0.022   3.031   6.224  0.1825 -0.0324 -0.0731
  806POPE   C1A12023   0.357   3.231   6.557  0.0942 -0.0810 -0.2746
  806POPE   D2A12024   0.477   3.049   6.851 -0.3746  0.0645  0.0808
  806POPE   C3A12025   0.786   3.373   7.169 -0.1165 -0.3271 -0.1218
  806POPE   C4A12026   0.927   3.624   7.482 -0.0715  0.0662  0.2031
  806POPE   C1B12027   0.126   2.804   6.534 -0.1304 -0.0126  0.0805
  806POPE   C2B12028  -0.051   2.916   6.935 -0.4884 -0.1886 -0.2349
  806POPE   C3B12029   0.249   2.998   7.325 -0.0138 -0.2275  0.0927
  806POPE   C4B12030   0.281   2.982   7.743  0.2291 -0.1078  0.1467
  807POPE   NH312031  11.396  16.948   5.405  0.2718  0.3201  0.0520
  807POPE   PO412032  11.820  16.681   5.510 -0.1710 -0.2568  0.1959
  807POPE   GL112033  11.747  16.937   5.908  0.5329 -0.0707  0.0200
  807POPE   GL212034  11.329  16.915   5.959  0.0838  0.0343 -0.0828
  807POPE   C1A12035  11.700  17.015   6.320  0.0644 -0.1004 -0.2048
  807POPE   D2A12036  11.648  16.924   6.733 -0.1122 -0.2362  0.1797
  807POPE   C3A12037  11.566  17.265   7.051 -0.0840 -0.1348  0.0672
  807POPE   C4A12038  11.509  17.299   7.522  0.1693 -0.1079 -0.2538
  807POPE   C1B12039  11.206  17.104   6.374  0.0901  0.1229 -0.0193
  807POPE   C2B12040  11.146  17.087   6.839 -0.1756  0.0237 -0.0940
  807POPE   C3B12041  11.045  17.301   7.268  0.2040 -0.2698  0.0705
  807POPE   C4B12042  10.672  17.335   7.466 -0.0543  0.0350  0.1948
  808POPE   NH312043  12.800   3.730   6.090 -0.1616 -0.1617  0.0789
  808POPE   PO412044  12.600   4.152   6.180 -0.0893 -0.0390  0.0344
  808POPE   GL112045  12.595   3.973   6.666  0.0992 -0.2566 -0.3116
  808POPE   GL212046  12.756   3.744   6.642  0.0639 -0.1271  0.0942
  808POPE   C1A12047  12.467   4.038   7.070 -0.2763  0.0896  0.0280
  808POPE   D2A12048  12.374   4.075   7.430  0.0009 -0.1019  0.0173
  808POPE   C3A12049  12.655   4.051   7.797 -0.1788  0.2442  0.3033
  808POPE   C4A12050  13.007   4.135   7.929 -0.0219  0.2686  0.2240
  808POPE   C1B12051  12.897   3.656   7.108  0.0943  0.0445  0.0638
  808POPE   C2B12052  12.809   3.617   7.577  0.2129 -0.0221 -0.0560
  808POPE   C3B12053  12.700   3.599   8.039  0.2050 -0.0704  0.0667
  808POPE   C4B12054  12.741   4.036   8.364  0.1632 -0.2052 -0.2485
  809POPE   NH312055  12.449  18.425   5.580 -0.1010  0.6208  0.0548
  809POPE   PO412056  12.900  18.410   5.516 -0.1748  0.2708 -0.1863
  809POPE   GL112057  12.833  18.122   5.821 -0.2939 -0.2188 -0.1934
  809POPE   GL212058  12.800  17.762   5.865 -0.2002  0.0293 -0.2571
  809POPE   C1A12059  12.911  18.099   6.317  0.0306  0.2396 -0.0634
  809POPE   D2A12060  12.726  17.817   6.572 -0.0782 -0.0450  0.1508
  809POPE   C3A12061  12.917  17.584   6.823 -0.1817 -0.1781  0.0798
  809POPE   C4A12062  12.826  17.905   7.218  0.2675  0.1488  0.2737
  809POPE   C1B12063  12.459  17.636   6.181  0.1482  0.1364  0.0184
  809POPE   C2B12064  12.200  17.874   6.501 -0.1993 -0.1579  0.0172
  809POPE   C3B12065  12.031  18.064   6.776 -0.1125 -0.0267 -0.0598
  809POPE   C4B12066  11.550  18.277   6.717 -0.1870  0.1853 -0.1653
  810POPE   NH312067   8.736  11.461   5.522  0.0400  0.0601  0.0318
  810POPE   PO412068   8.399  11.722   5.473 -0.1873  0.0773  0.0590
  810POPE   GL112069   8.412  11.887   5.920  0.2907  0.1606 -0.1612
  810POPE   GL212070   8.720  11.680   6.008  0.0411 -0.0894  0.1138
  810POPE   C1A12071   8.482  12.186   6.254 -0.0140 -0.1940 -0.0429
  810POPE   D2A12072   8.689  12.343   6.643  0.1430  0.3479  0.2246
  810POPE   C3A12073   8.667  12.877   6.694 -0.2690 -0.3226 -0.3641
  810POPE   C4A12074   8.711  13.391   6.758 -0.5245  0.3051  0.3219
  810POPE   C1B12075   8.564  11.680   6.349  0.1839  0.1186 -0.1125
  810POPE   C2B12076   8.612  11.872   6.771 -0.0126  0.0100  0.0137
  810POPE   C3B12077   8.888  12.131   7.062 -0.2626 -0.1559 -0.2530
  810POPE   C4B12078   8.679  12.237   7.490  0.2872  0.0166  0.1062
  811POPE   NH312079   0.028  10.903   6.137  0.0159 -0.3885 -0.1360
  811POPE   PO412080   0.066  11.405   6.244 -0.1723  0.4788 -0.0141
  811POPE   GL112081  -0.130  11.221   6.536 -0.2527  0.0259  0.0269
  811POPE   GL212082  -0.376  10.984   6.421 -0.0110 -0.0567  0.3318
  811POPE   C1A12083  -0.203  11.245   6.989  0.2923  0.1094 -0.1331
  811POPE   D2A12084  -0.393  11.329   7.350  0.1048 -0.1876 -0.0695
  811POPE   C3A12085  -0.487  11.797   7.413 -0.1019  0.1330  0.0335
  811POPE   C4A12086  -0.305  12.174   7.531  0.4416  0.1742  0.0055
  811POPE   C1B12087  -0.582  10.714   6.723  0.3948  0.0156  0.1896
  811POPE   C2B12088  -0.429  10.468   7.078 -0.0930  0.0408  0.3080
  811POPE   C3B12089  -0.412  10.451   7.497  0.0345 -0.2395 -0.2084
  811POPE   C4B12090  -0.269  10.418   7.919 -0.0611  0.2814 -0.2394
  812POPE   NH312091  13.451  15.901   5.430 -0.0599 -0.3697 -0.1688
  812POPE   PO412092  13.823  15.701   5.717 -0.0485 -0.0432 -0.1061
  812POPE   GL112093  13.854  15.762   6.131 -0.1308  0.0094 -0.1308
  812POPE   GL212094  13.865  15.398   6.408 -0.2210 -0.0732 -0.0211
  812POPE   C1A12095  13.543  15.908   6.455 -0.0366  0.0042  0.1621
  812POPE   D2A12096  13.274  15.854   6.792  0.2459  0.0793  0.0959
  812POPE   C3A12097  13.532  15.692   7.201  0.1027 -0.5040  0.0263
  812POPE   C4A12098  13.191  15.486   7.426 -0.1005  0.3825  0.1642
  812POPE   C1B12099  13.462  15.442   6.629 -0.3082 -0.2845  0.2683
  812POPE   C2B12100  13.263  15.176   6.877  0.0715 -0.2656 -0.0206
  812POPE   C3B12101  12.993  15.013   7.225 -0.0348 -0.2294  0.2728
  812POPE   C4B12102  13.088  14.988   7.621  0.0949  0.0962  0.2866
  813POPE   NH312103   2.796   6.500   5.996 -0.0504 -0.0794 -0.0743
  813POPE   PO412104   2.903   6.090   6.160  0.3943 -0.0551 -0.2167
  813POPE   GL112105   2.966   6.216   6.574  0.0654  0.1738 -0.0538
  813POPE   GL212106   3.036   6.530   6.630  0.0683  0.0808  0.1242
  813POPE   C1A12107   2.937   5.986   6.989  0.0678 -0.0152 -0.1935
  813POPE   D2A12108   3.113   6.007   7.392  0.1091  0.0920 -0.0717
  813POPE   C3A12109   3.068   5.664   7.619 -0.0452 -0.1318 -0.2023
  813POPE   C4A12110   2.765   5.300   7.725 -0.0381 -0.2489  0.0704
  813POPE   C1B12111   3.485   6.728   6.725  0.2645 -0.1047 -0.1858
  813POPE   C2B12112   3.754   6.656   7.076  0.2025  0.0863  0.0915
  813POPE   C3B12113   3.876   6.923   7.544 -0.2728  0.3631 -0.2070
  813POPE   C4B12114   3.616   7.250   7.855 -0.0148  0.1938 -0.4147
  814POPE   NH312115  17.449  17.108   5.967 -0.3558 -0.2881 -0.1412
  814POPE   PO412116  17.083  17.340   5.987  0.1326  0.1861 -0.0664
  814POPE   GL112117  17.146  17.300   6.390 -0.1145  0.1902  0.0855
  814POPE   GL212118  16.868  17.477   6.534  0.1083 -0.3193  0.0511
  814POPE   C1A12119  16.915  16.939   6.636 -0.0079  0.1817 -0.2333
  814POPE   D2A12120  17.111  16.546   6.849 -0.2894  0.0044  0.0920
  814POPE   C3A12121  17.024  16.411   7.313  0.0241 -0.1566 -0.0702
  814POPE   C4A12122  16.813  16.292   7.577  0.2588  0.0434  0.0569
  814POPE   C1B12123  16.825  17.450   6.896 -0.2067  0.2935 -0.1697
  814POPE   C2B12124  16.786  17.548   7.301 -0.0952  0.2060 -0.0484
  814POPE   C3B12125  16.631  17.305   7.649 -0.1115  0.0759  0.2923
  814POPE   C4B12126  16.475  17.020   7.939  0.0538 -0.0047  0.1031
  815POPE   NH312127   9.470   4.454   5.808 -0.1810  0.4089  0.1167
  815POPE   PO412128   9.054   4.302   5.804 -0.2096 -0.1472  0.0597
  815POPE   GL112129   8.729   4.210   6.085 -0.0536 -0.0970 -0.0450
  815POPE   GL212130   8.538   4.461   6.016  0.1202  0.0082 -0.1667
  815POPE   C1A12131   8.385   3.981   6.223  0.1512 -0.0734 -0.0604
  815POPE   D2A12132   8.228   3.910   6.623 -0.1155  0.0375 -0.1933
  815POPE   C3A12133   8.410   3.910   7.133  0.0472 -0.2144  0.0041
  815POPE   C4A12134   8.557   4.083   7.540  0.2942  0.2037 -0.1486
  815POPE   C1B12135   8.114   4.336   6.038  0.1011 -0.1305 -0.3608
  815POPE   C2B12136   7.889   4.103   6.376  0.0544  0.0795  0.1150
  815POPE   C3B12137   7.816   4.022   6.861  0.0783  0.2775  0.1307
  815POPE   C4B12138   7.595   3.856   7.157 -0.2464  0.0047  0.0759
  816POPE   NH312139   3.177   1.029   5.461  0.3147  0.2845 -0.3019
  816POPE   PO412140   3.436   0.706   5.616  0.1325  0.2166  0.2298
  816POPE   GL112141   3.188   0.767   5.986 -0.3935  0.1032  0.1172
  816POPE   GL212142   3.452   0.638   6.138 -0.2077  0.0275 -0.1466
  816POPE   C1A12143   3.059   0.883   6.388 -0.1588 -0.3006  0.1429
  816POPE   D2A12144   2.700   0.568   6.488  0.2412  0.1432 -0.2836
  816POPE   C3A12145   2.482   0.758   6.757  0.0337 -0.1043 -0.0124
  816POPE   C4A12146   2.333   0.746   7.132  0.0767  0.0938 -0.1214
  816POPE   C1B12147   3.536   0.827   6.524 -0.0859 -0.3049 -0.3822
  816POPE   C2B12148   3.775   0.919   6.922 -0.1035 -0.1601  0.1341
  816POPE   C3B12149   3.957   0.793   7.192  0.0736  0.2134  0.0583
  816POPE   C4B12150   3.951   0.722   7.651  0.2051 -0.0071 -0.2512
  817POPE   NH312151  16.502   7.655   5.687  0.3992 -0.1766 -0.2793
  817POPE   PO412152  16.237   7.839   6.099 -0.3276 -0.0824  0.0041
  817POPE   GL112153  16.239   7.696   6.484  0.1851 -0.1783 -0.1451
  817POPE   GL212154  16.176   7.333   6.408  0.1412 -0.3417  0.0101
  817POPE   C1A12155  16.500   7.631   6.815  0.1018  0.1063 -0.1283
  817POPE   D2A12156  16.675   7.429   7.236  0.2051 -0.2083  0.1857
  817POPE   C3A12157  16.634   7.862   7.354  0.1861  0.0315  0.2418
  817POPE   C4A12158  16.350   8.126   7.433  0.3104  0.4170  0.0908
  817POPE   C1B12159  16.069   7.304   6.846  0.0872 -0.5097  0.1868
  817POPE   C2B12160  15.878   7.154   7.257 -0.0357 -0.0625 -0.1004
  817POPE   C3B12161  15.624   7.202   7.637 -0.0772 -0.0401  0.0096
  817POPE   C4B12162  15.330   7.014   7.924 -0.0706  0.1099  0.1478
  818POPE   NH312163  10.909   7.611   5.933  0.2720  0.1654  0.1879
  818POPE   PO412164  10.961   8.025   6.024  0.0399  0.2175  0.0386
  818POPE   GL112165  10.727   7.936   6.343  0.0824  0.0573  0.1989
  818POPE   GL212166  10.436   8.005   6.381 -0.1192 -0.0674  0.1504
  818POPE   C1A12167  10.787   7.818   6.790  0.1077  0.0425 -0.1523
  818POPE   D2A12168  10.769   8.007   7.208 -0.0829 -0.0909  0.1445
  818POPE   C3A12169  10.968   8.179   7.552  0.1348  0.0547  0.1365
  818POPE   C4A12170  11.353   8.023   7.736 -0.0017  0.0313 -0.0053
  818POPE   C1B12171  10.376   8.161   6.721  0.0061  0.0664  0.0688
  818POPE   C2B12172  10.288   8.236   7.118  0.2323 -0.0972 -0.0806
  818POPE   C3B12173  10.157   8.339   7.527  0.1359  0.1825 -0.1232
  818POPE   C4B12174  10.275   8.707   7.703  0.1053  0.2527  0.0190
  819POPE   NH312175   3.437  16.798   5.500 -0.0531  0.4740  0.2275
  819POPE   PO412176   3.701  16.488   5.673  0.0689 -0.0495  0.0214
  819POPE   GL112177   3.568  16.491   6.116  0.0832 -0.0940  0.1326
  819POPE   GL212178   3.329  16.734   6.118  0.4251  0.0481  0.1883
  819POPE   C1A12179   3.741  16.340   6.425  0.0874  0.0957 -0.2295
  819POPE   D2A12180   3.659  16.095   6.746  0.1346  0.3316 -0.3525
  819POPE   C3A12181   3.194  16.139   7.057 -0.0406 -0.1095 -0.0957
  819POPE   C4A12182   2.737  16.221   7.165 -0.0741  0.0384  0.0946
  819POPE   C1B12183   3.227  16.620   6.494  0.1197 -0.0710  0.1908
  819POPE   C2B12184   3.459  16.529   6.873 -0.0573 -0.0745 -0.0182
  819POPE   C3B12185   3.511  16.578   7.309  0.1099  0.1772 -0.0967
  819POPE   C4B12186   3.522  16.491   7.717  0.3347 -0.3236  0.2313
  820POPE   NH312187  11.384   7.757   5.920 -0.0199 -0.0554  0.0116
  820POPE   PO412188  11.354   7.414   6.030 -0.1357  0.1913 -0.0765
  820POPE   GL112189  11.405   7.219   6.417  0.3967 -0.0701 -0.3839
  820POPE   GL212190  11.562   6.911   6.462 -0.1775  0.1186 -0.1397
  820POPE   C1A12191  11.287   7.377   6.761 -0.0324 -0.0397 -0.3920
  820POPE   D2A12192  11.181   7.754   7.028  0.0104 -0.2791 -0.1409
  820POPE   C3A12193  11.552   7.658   7.403  0.3353  0.3704 -0.0520
  820POPE   C4A12194  11.832   7.754   7.642  0.1932  0.3278  0.1316
  820POPE   C1B12195  11.952   6.892   6.765  0.0919  0.0495  0.1639
  820POPE   C2B12196  11.911   6.837   7.078 -0.1961 -0.2826  0.0131
  820POPE   C3B12197  11.962   6.877   7.498 -0.2000  0.1658 -0.0597
  820POPE   C4B12198  11.923   6.846   7.968 -0.1751 -0.4048  0.1227
  821POPE   NH312199  17.300  15.871   5.667 -0.0705  0.0722 -0.1639
  821POPE   PO412200  16.924  15.978   5.879  0.1955 -0.1794 -0.0170
  821POPE   GL112201  16.921  15.994   6.243 -0.2412 -0.2781  0.1318
  821POPE   GL212202  16.652  15.810   6.332 -0.0367 -0.1736  0.1465
  821POPE   C1A12203  17.271  16.080   6.561  0.1344 -0.0853 -0.1705
  821POPE   D2A12204  17.633  15.933   6.772  0.4035  0.2034 -0.0467
  821POPE   C3A12205  17.741  15.802   7.218 -0.1124  0.3040 -0.0123
  821POPE   C4A12206  17.797  15.682   7.546 -0.1163  0.0770 -0.0317
  821POPE   C1B12207  16.637  15.719   6.713 -0.2378  0.1495  0.4731
  821POPE   C2B12208  16.416  15.538   7.043  0.0471 -0.1732 -0.0120
  821POPE   C3B12209  16.087  15.323   7.237 -0.2504 -0.0131  0.0996
  821POPE   C4B12210  16.163  15.002   7.458 -0.2010 -0.1582  0.2752
  822POPE   NH312211   1.931   3.594   5.833  0.2020  0.1995  0.3039
  822POPE   PO412212   1.759   3.975   5.947 -0.0309 -0.2135  0.3055
  822POPE   GL112213   1.456   3.802   6.178 -0.1093 -0.1238  0.1162
  822POPE   GL212214   1.306   4.040   6.283 -0.0315  0.0862 -0.0470
  822POPE   C1A12215   1.231   3.450   6.370 -0.1886 -0.1820 -0.0920
  822POPE   D2A12216   1.112   3.358   6.762 -0.0310 -0.0528  0.3313
  822POPE   C3A12217   0.681   3.579   6.637  0.0333 -0.0514 -0.1721
  822POPE   C4A12218   0.442   3.699   6.157 -0.0780 -0.0739  0.0969
  822POPE   C1B12219   1.064   3.920   6.580  0.1184  0.1428  0.1158
  822POPE   C2B12220   1.189   3.786   7.009  0.3179  0.0366  0.0690
  822POPE   C3B12221   1.049   4.121   7.318  0.1517  0.1470 -0.0679
  822POPE   C4B12222   1.284   4.374   7.549 -0.3649 -0.0592 -0.2031
  823POPE   NH312223  15.989   9.238   6.097  0.0429 -0.3942 -0.0838
  823POPE   PO412224  15.516   9.269   5.926 -0.0749 -0.0452  0.0144
  823POPE   GL112225  15.536   9.172   6.368 -0.1948 -0.3140  0.0493
  823POPE   GL212226  15.699   9.063   6.463 -0.1994  0.0567 -0.1156
  823POPE   C1A12227  15.309   9.148   6.722  0.2420  0.0743 -0.1980
  823POPE   D2A12228  15.284   9.070   7.146  0.1416  0.0083  0.0279
  823POPE   C3A12229  15.662   9.019   7.477 -0.1817  0.1249  0.0397
  823POPE   C4A12230  15.764   8.669   7.678 -0.5959 -0.1103  0.2683
  823POPE   C1B12231  15.750   8.991   6.953 -0.1150  0.3331  0.2536
  823POPE   C2B12232  16.057   8.695   7.169  0.0530 -0.1767  0.0081
  823POPE   C3B12233  16.256   8.663   7.549  0.2085 -0.0078  0.0548
  823POPE   C4B12234  16.177   8.314   7.853  0.1818  0.0769  0.1020
  824POPE   NH312235   0.974   1.126   5.506  0.0822 -0.0268  0.0053
  824POPE   PO412236   1.098   1.550   5.488 -0.3760 -0.0715  0.0526
  824POPE   GL112237   1.097   1.400   5.905 -0.3789  0.2280 -0.2584
  824POPE   GL212238   1.305   1.137   5.961  0.0259 -0.1147 -0.0500
  824POPE   C1A12239   0.943   1.547   6.261  0.1265 -0.0619 -0.0078
  824POPE   D2A12240   0.994   1.425   6.708 -0.1969  0.4392 -0.0185
  824POPE   C3A12241   1.192   1.209   6.949  0.0108  0.2021 -0.1563
  824POPE   C4A12242   1.252   0.819   7.156 -0.0609  0.2200  0.1097
  824POPE   C1B12243   1.090   1.049   6.329 -0.3707  0.2023  0.1123
  824POPE   C2B12244   0.889   0.933   6.648 -0.0776  0.1921 -0.1763
  824POPE   C3B12245   0.731   0.807   7.123  0.0027  0.0119  0.1971
  824POPE   C4B12246   0.515   0.737   7.498 -0.2572  0.2325  0.1875
  825POPE   NH312247   3.869   5.396   6.040 -0.0820  0.3581  0.0045
  825POPE   PO412248   4.123   5.115   6.019  0.4057  0.3039  0.1190
  825POPE   GL112249   4.180   5.093   6.439 -0.2323 -0.0707 -0.1278
  825POPE   GL212250   4.116   5.291   6.550 -0.1602  0.0430 -0.0709
  825POPE   C1A12251   4.323   4.682   6.509 -0.0120 -0.0279  0.0470
  825POPE   D2A12252   4.624   4.369   6.662  0.3422 -0.1308  0.2312
  825POPE   C3A12253   4.505   4.006   6.997  0.1654  0.2529  0.1304
  825POPE   C4A12254   4.108   3.748   6.941 -0.1597 -0.2770  0.2296
  825POPE   C1B12255   4.110   5.436   6.975 -0.0254 -0.0059 -0.1703
  825POPE   C2B12256   4.156   5.237   7.365  0.5117  0.1698  0.1805
  825POPE   C3B12257   4.031   5.368   7.739  0.1524  0.0078  0.0646
  825POPE   C4B12258   3.981   5.524   8.194 -0.3268  0.2610  0.2972
  826POPE   NH312259   4.374  13.934   5.703 -0.2296 -0.1890 -0.2799
  826POPE   PO412260   4.906  14.065   5.724 -0.1807  0.1008  0.0599
  826POPE   GL112261   5.024  14.247   6.082 -0.2099 -0.0708 -0.1916
  826POPE   GL212262   5.248  13.950   6.198  0.0118 -0.0842  0.0020
  826POPE   C1A12263   4.886  14.543   6.392 -0.2529  0.1901  0.1844
  826POPE   D2A12264   4.767  14.780   6.723 -0.0518 -0.2131 -0.3171
  826POPE   C3A12265   4.461  15.090   6.684  0.1406  0.4391 -0.1842
  826POPE   C4A12266   4.267  15.433   6.539 -0.2362 -0.2823  0.1839
  826POPE   C1B12267   5.017  14.017   6.587  0.0222  0.1678  0.2343
  826POPE   C2B12268   5.094  13.988   7.031  0.0483  0.2834 -0.0115
  826POPE   C3B12269   5.191  14.260   7.409 -0.1824  0.0223  0.1750
  826POPE   C4B12270   5.313  14.187   7.908 -0.3288  0.0338  0.0579
  827POPE   NH312271   8.722   1.086   5.885  0.1031  0.0904 -0.1967
  827POPE   PO412272   9.007   0.720   5.828  0.0072  0.1929 -0.1051
  827POPE   GL112273   8.891   0.932   6.308 -0.0384  0.0832 -0.0671
  827POPE   GL212274   9.093   1.290   6.303  0.0838  0.1893  0.0023
  827POPE   C1A12275   8.735   0.740   6.703 -0.2228  0.0588  0.0689
  827POPE   D2A12276   8.537   0.604   7.044 -0.0938  0.4548  0.0559
  827POPE   C3A12277   8.483   0.505   7.481  0.0309  0.2577 -0.1889
  827POPE   C4A12278   8.299   0.366   7.868  0.2565  0.1406  0.2458
  827POPE   C1B12279   9.127   1.215   6.770 -0.0250  0.1235  0.0438
  827POPE   C2B12280   8.702   1.166   7.056  0.1386 -0.1488 -0.2004
  827POPE   C3B12281   8.425   1.075   7.361  0.3698 -0.1755 -0.3191
  827POPE   C4B12282   8.073   0.828   7.455  0.3445 -0.1146  0.0892
  828POPE   NH312283   6.444  16.614   5.879 -0.3178  0.1781  0.2418
  828POPE   PO412284   6.870  16.473   6.024  0.0762 -0.0403  0.1844
  828POPE   GL112285   6.704  16.363   6.442 -0.1613 -0.1739  0.4541
  828POPE   GL212286   6.685  16.728   6.492  0.0519  0.0892 -0.1711
  828POPE   C1A12287   6.787  16.069   6.706  0.2730  0.1892 -0.1093
  828POPE   D2A12288   7.200  16.067   6.991 -0.1249  0.0471 -0.2794
  828POPE   C3A12289   7.189  16.328   7.367 -0.0256 -0.3138 -0.0227
  828POPE   C4A12290   6.948  16.711   7.593 -0.1632 -0.1183  0.1581
  828POPE   C1B12291   6.509  16.855   6.860 -0.1559 -0.0879 -0.2736
  828POPE   C2B12292   6.351  17.293   7.126 -0.5142 -0.0743  0.1256
  828POPE   C3B12293   6.240  17.430   7.374 -0.3027 -0.0202  0.0907
  828POPE   C4B12294   6.097  17.636   7.858 -0.0935  0.0256  0.0917
  829POPE   NH312295   3.015  13.302   5.376 -0.2788 -0.0502  0.0212
  829POPE   PO412296   2.697  13.595   5.498 -0.2289 -0.0065 -0.0881
  829POPE   GL112297   3.015  13.720   5.787 -0.3610 -0.0320 -0.0755
  829POPE   GL212298   2.903  14.009   5.849 -0.0224 -0.0558  0.0312
  829POPE   C1A12299   3.055  13.712   6.204  0.2441 -0.3557  0.0535
  829POPE   D2A12300   3.000  13.619   6.695  0.2267  0.0742  0.2091
  829POPE   C3A12301   2.606  13.754   6.622 -0.0286 -0.2659  0.0359
  829POPE   C4A12302   2.274  13.965   6.652  0.1509 -0.3176  0.2162
  829POPE   C1B12303   3.105  14.164   6.174  0.1026 -0.2842 -0.1837
  829POPE   C2B12304   3.183  14.326   6.623 -0.1232  0.1101 -0.0033
  829POPE   C3B12305   3.155  14.049   6.896 -0.1007  0.0359  0.1022
  829POPE   C4B12306   3.212  13.727   7.148  0.0953 -0.0264 -0.2162
  830POPE   NH312307  17.994   3.640   5.811 -0.0389  0.0383  0.0638
  830POPE   PO412308  18.238   4.017   5.645  0.1802  0.2435 -0.1263
  830POPE   GL112309  18.405   3.921   6.065  0.2279 -0.1390 -0.1653
  830POPE   GL212310  18.417   3.578   6.235 -0.3786  0.0056  0.1394
  830POPE   C1A12311  18.465   4.091   6.466  0.3687  0.3036  0.1170
  830POPE   D2A12312  18.609   4.202   6.897 -0.2289  0.3407 -0.0089
  830POPE   C3A12313  18.915   4.415   7.012  0.0089  0.0176  0.0927
  830POPE   C4A12314  19.322   4.309   6.917  0.3905  0.2005  0.1137
  830POPE   C1B12315  18.636   3.669   6.720 -0.0233  0.2092 -0.0948
  830POPE   C2B12316  18.662   3.403   7.030  0.0284  0.2843  0.1348
  830POPE   C3B12317  18.788   3.495   7.420  0.2966  0.0547  0.2784
  830POPE   C4B12318  18.914   3.856   7.575  0.0407  0.0352 -0.0330
  831YOPE   NH312319  17.320   5.747   6.029 -0.0613  0.0835 -0.0204
  831YOPE   PO412320  17.303   5.343   5.862  0.0852  0.1039  0.0400
  831YOPE   GL112321  17.464   5.298   6.184 -0.1041  0.1458 -0.3282
  831YOPE   GL212322  17.342   5.028   6.290  0.3367 -0.0866 -0.1237
  831YOPE   C1A12323  17.700   5.178   6.617 -0.0119 -0.0270 -0.0483
  831YOPE   D2A12324  18.044   5.135   6.870  0.1794  0.1855 -0.1452
  831YOPE   C3A12325  17.963   5.327   7.275 -0.3617  0.0518  0.0027
  831YOPE   C4A12326  17.999   5.291   7.694 -0.2985 -0.2471  0.1938
  831YOPE   C1B12327  17.113   4.865   6.732  0.0722 -0.2142  0.1394
  831YOPE   C2B12328  16.900   4.989   7.161  0.2270  0.0270  0.0860
  831YOPE   D3B12329  16.940   4.872   7.601  0.2943 -0.1126 -0.1465
  831YOPE   C4B12330  16.661   4.745   7.914 -0.1218  0.1916  0.0311
  832YOPE   NH312331   5.657  12.878   5.277  0.0365  0.3079  0.0419
  832YOPE   PO412332   5.468  12.668   5.676  0.0636  0.0856 -0.1197
  832YOPE   GL112333   5.505  12.908   5.992  0.0796  0.2051 -0.1983
  832YOPE   GL212334   5.830  12.810   6.096 -0.0640 -0.2474 -0.2814
  832YOPE   C1A12335   5.426  13.084   6.331 -0.0557  0.2559 -0.1105
  832YOPE   D2A12336   5.516  13.473   6.482  0.0908  0.0660  0.0670
  832YOPE   C3A12337   5.942  13.509   6.677 -0.0549  0.0946 -0.0868
  832YOPE   C4A12338   6.345  13.536   6.814 -0.0750 -0.0595 -0.2129
  832YOPE   C1B12339   5.653  12.563   6.516  0.1767  0.1871  0.0585
  832YOPE   C2B12340   5.823  12.361   6.861 -0.1356  0.1336 -0.1098
  832YOPE   D3B12341   5.993  12.039   7.149 -0.0308 -0.2954  0.1419
  832YOPE   C4B12342   6.189  12.134   7.423  0.0458  0.0716  0.2190
  833YOPE   NH312343   6.190   6.550   6.060 -0.1254  0.2880  0.4124
  833YOPE   PO412344   5.723   6.311   5.943 -0.1632 -0.0283  0.2398
  833YOPE   GL112345   5.754   6.458   6.413  0.0585 -0.2510 -0.1513
  833YOPE   GL212346   5.699   6.251   6.749  0.1006 -0.0202  0.0781
  833YOPE   C1A12347   5.696   6.801   6.764 -0.0483  0.1630  0.1167
  833YOPE   D2A12348   5.621   7.145   7.051  0.1592 -0.0382 -0.1174
  833YOPE   C3A12349   5.385   7.590   7.036 -0.2453  0.2937  0.0356
  833YOPE   C4A12350   5.563   7.980   6.913  0.0461 -0.2918  0.2487
  833YOPE   C1B12351   5.834   6.348   7.113 -0.2034  0.1841 -0.0319
  833YOPE   C2B12352   5.584   6.619   7.263  0.4643  0.2117 -0.1174
  833YOPE   D3B12353   5.382   6.764   7.572  0.0261  0.0406  0.1862
  833YOPE   C4B12354   5.418   7.018   7.846 -0.2056  0.0125  0.2152
  834YOPE   NH312355  14.854   2.057   6.279 -0.0835  0.1635 -0.2031
  834YOPE   PO412356  15.032   2.400   6.046 -0.0587  0.1207 -0.3180
  834YOPE   GL112357  15.210   2.371   6.520 -0.0345  0.1002 -0.0281
  834YOPE   GL212358  15.126   2.052   6.767 -0.2599 -0.1814 -0.1455
  834YOPE   C1A12359  15.399   2.501   6.833  0.3416 -0.2017 -0.0920
  834YOPE   D2A12360  15.421   2.364   7.227 -0.1001 -0.1217  0.0756
  834YOPE   C3A12361  15.679   2.600   7.400  0.0647 -0.1573  0.0354
  834YOPE   C4A12362  16.051   2.704   7.509 -0.0584 -0.1884  0.0439
  834YOPE   C1B12363  15.243   1.861   7.169 -0.0565 -0.0708  0.0861
  834YOPE   C2B12364  15.238   1.964   7.650  0.1325 -0.2114  0.1408
  834YOPE   D3B12365  15.017   2.104   8.051  0.0246  0.0629 -0.0997
  834YOPE   C4B12366  15.102   1.978   8.407 -0.3376 -0.0862  0.0075
  835YOPE   NH312367   6.643   8.027   5.875  0.1268  0.0820  0.1393
  835YOPE   PO412368   6.261   7.941   5.916 -0.0030 -0.2115  0.0727
  835YOPE   GL112369   6.313   8.102   6.282 -0.0805  0.1438  0.0730
  835YOPE   GL212370   6.512   8.370   6.321 -0.1680 -0.0023  0.3441
  835YOPE   C1A12371   6.136   8.218   6.748 -0.2102 -0.1187  0.0589
  835YOPE   D2A12372   6.065   8.598   6.961  0.1141  0.0318  0.2444
  835YOPE   C3A12373   6.102   8.636   7.444  0.0679  0.2632 -0.1754
  835YOPE   C4A12374   6.113   8.501   7.828 -0.1095  0.1280 -0.1331
  835YOPE   C1B12375   6.465   8.672   6.615  0.1876  0.0866 -0.0097
  835YOPE   C2B12376   6.532   8.770   7.030  0.1821  0.0096 -0.0476
  835YOPE   D3B12377   6.632   8.913   7.535  0.0407  0.2511 -0.0841
  835YOPE   C4B12378   6.642   8.696   7.877 -0.0840 -0.0097  0.0760
  836YOPE   NH312379  11.913  17.737   5.306 -0.0001  0.1658 -0.0426
  836YOPE   PO412380  12.346  17.986   5.259 -0.2253  0.4094  0.0895
  836YOPE   GL112381  12.386  17.959   5.747  0.0643 -0.2967 -0.0470
  836YOPE   GL212382  12.225  17.770   5.809  0.0676  0.1609 -0.0670
  836YOPE   C1A12383  12.421  18.137   6.133 -0.0964 -0.0109  0.1616
  836YOPE   D2A12384  12.465  18.264   6.614 -0.1727 -0.0784 -0.0843
  836YOPE   C3A12385  12.459  17.929   6.928 -0.1129 -0.0741  0.1807
  836YOPE   C4A12386  12.241  17.876   7.323 -0.0387  0.0768  0.0078
  836YOPE   C1B12387  11.997  17.408   6.238 -0.3657 -0.0130 -0.0503
  836YOPE   C2B12388  12.048  17.381   6.686  0.1536 -0.2458  0.3666
  836YOPE   D3B12389  11.987  17.482   7.078 -0.1120  0.0033  0.0766
  836YOPE   C4B12390  12.026  17.391   7.455  0.1852  0.2460  0.0805
  837YOPE   NH312391  10.944   8.563   6.050 -0.1983  0.0170  0.1369
  837YOPE   PO412392  11.359   8.368   6.120  0.0913 -0.2254  0.2413
  837YOPE   GL112393  11.419   8.604   6.386  0.0158  0.1837 -0.2128
  837YOPE   GL212394  11.667   8.805   6.441 -0.0313  0.4147  0.1772
  837YOPE   C1A12395  11.163   8.735   6.614  0.2269 -0.0302 -0.0275
  837YOPE   D2A12396  10.783   8.940   6.854  0.2690  0.1028 -0.0928
  837YOPE   C3A12397  10.846   9.184   7.168 -0.0271 -0.1086 -0.2258
  837YOPE   C4A12398  10.993   9.199   7.672 -0.2119  0.2365  0.0567
  837YOPE   C1B12399  12.058   8.878   6.511 -0.2266  0.0352 -0.3145
  837YOPE   C2B12400  12.283   9.204   6.644 -0.1938 -0.2145 -0.2446
  837YOPE   D3B12401  12.140   9.458   6.835  0.1893  0.0090  0.0862
  837YOPE   C4B12402  12.094   9.678   7.210 -0.1361  0.3067  0.0344
  838YOPE   NH312403   7.608  15.201   5.711 -0.0482  0.0130 -0.0088
  838YOPE   PO412404   8.004  15.231   5.807 -0.1748 -0.0472 -0.0408
  838YOPE   GL112405   7.923  15.175   6.241  0.1256  0.0685  0.1602
  838YOPE   GL212406   8.214  15.198   6.353 -0.1154 -0.1710  0.0467
  838YOPE   C1A12407   7.720  15.195   6.634  0.1033  0.1134 -0.1003
  838YOPE   D2A12408   7.827  15.513   6.891 -0.1057 -0.0539 -0.0509
  838YOPE   C3A12409   7.469  15.664   6.935  0.2067 -0.1506 -0.2315
  838YOPE   C4A12410   7.045  15.544   6.949 -0.2593 -0.1122 -0.1774
  838YOPE   C1B12411   8.212  15.207   6.846 -0.0593 -0.1242  0.3192
  838YOPE   C2B12412   8.210  15.241   7.360 -0.2899  0.2202  0.0977
  838YOPE   D3B12413   8.508  15.100   7.622  0.1740 -0.0142 -0.0533
  838YOPE   C4B12414   8.782  14.991   7.727 -0.0358  0.1006 -0.0012
  839YOPE   NH312415  11.701   5.811   6.357 -0.0804  0.0518  0.0807
  839YOPE   PO412416  11.865   5.624   6.012  0.1204 -0.1940  0.2105
  839YOPE   GL112417  11.909   5.328   6.477  0.1006 -0.2278 -0.0928
  839YOPE   GL212418  11.528   5.232   6.527  0.0736 -0.1398 -0.0948
  839YOPE   C1A12419  11.746   5.113   6.933 -0.1387 -0.1104 -0.1855
  839YOPE   D2A12420  11.429   5.004   7.132  0.1517  0.1068 -0.0005
  839YOPE   C3A12421  11.403   5.005   7.444  0.0542  0.2982 -0.0796
  839YOPE   C4A12422  11.701   4.936   7.810  0.3864  0.0268  0.0112
  839YOPE   C1B12423  11.213   5.295   6.836  0.3861 -0.1984  0.1501
  839YOPE   C2B12424  11.128   5.366   7.164  0.0758  0.0606 -0.0473
  839YOPE   D3B12425  11.059   5.660   7.438 -0.0027  0.4491 -0.0857
  839YOPE   C4B12426  11.063   6.075   7.422 -0.0511  0.1364 -0.1186
  840YOPE   NH312427   0.918   0.714   5.837  0.0802 -0.0802  0.1194
  840YOPE   PO412428   1.352   0.812   5.569 -0.0200  0.2485 -0.0711
  840YOPE   GL112429   1.446   0.605   5.931 -0.0573 -0.3242  0.2797
  840YOPE   GL212430   1.249   0.582   6.288 -0.1164  0.1886  0.0453
  840YOPE   C1A12431   1.801   0.519   6.122 -0.1671 -0.2304  0.2858
  840YOPE   D2A12432   2.197   0.417   6.205  0.1728  0.1413 -0.0492
  840YOPE   C3A12433   2.403   0.218   6.578 -0.1993 -0.0442 -0.1424
  840YOPE   C4A12434   2.737   0.080   6.745 -0.1493 -0.0900 -0.2324
  840YOPE   C1B12435   1.561   0.451   6.560 -0.0331  0.0928 -0.2444
  840YOPE   C2B12436   1.619   0.504   6.975  0.1184 -0.1294  0.3628
  840YOPE   D3B12437   1.917   0.448   7.278  0.0496  0.0024 -0.0348
  840YOPE   C4B12438   2.237   0.305   7.587 -0.0293  0.2369 -0.2983
  841YOPE   NH312439   8.630   0.341   5.153 -0.1723 -0.0016 -0.1423
  841YOPE   PO412440   8.579   0.588   5.615 -0.1752 -0.3209 -0.1755
  841YOPE   GL112441   8.599   0.491   6.080  0.3808 -0.3127  0.0764
  841YOPE   GL212442   8.956   0.411   6.203 -0.0879  0.0644  0.2193
  841YOPE   C1A12443   8.321   0.720   6.422  0.3592 -0.3195  0.1571
  841YOPE   D2A12444   8.273   0.964   6.804  0.2462 -0.1502  0.5470
  841YOPE   C3A12445   8.348   1.462   6.948  0.0219  0.0977  0.1226
  841YOPE   C4A12446   8.334   1.723   6.729 -0.1035 -0.5400 -0.1459
  841YOPE   C1B12447   9.036   0.119   6.509  0.0807  0.3069  0.2130
  841YOPE   C2B12448   8.834   0.175   7.005 -0.2522  0.1661  0.3354
  841YOPE   D3B12449   8.892   0.272   7.321  0.4028 -0.0257 -0.2125
  841YOPE   C4B12450   8.870   0.419   7.755 -0.0980  0.0992  0.0696
  842YOPE   NH312451  16.953   7.213   6.507  0.2516  0.3384 -0.1142
  842YOPE   PO412452  17.316   6.937   6.485 -0.4921  0.1086 -0.0992
  842YOPE   GL112453  17.187   6.740   6.884  0.2797  0.1205  0.0171
  842YOPE   GL212454  17.244   7.200   6.934  0.0543 -0.0115  0.0970
  842YOPE   C1A12455  17.454   6.657   7.265 -0.0658 -0.2618  0.1025
  842YOPE   D2A12456  17.544   6.211   7.485  0.0642 -0.4222  0.0641
  842YOPE   C3A12457  17.340   6.054   7.717 -0.3305  0.1819 -0.0932
  842YOPE   C4A12458  17.435   5.688   7.846  0.2803  0.1146 -0.0724
  842YOPE   C1B12459  17.206   7.130   7.403  0.2302 -0.1578  0.0243
  842YOPE   C2B12460  17.217   7.086   7.783 -0.0845 -0.2060  0.4821
  842YOPE   D3B12461  17.068   6.772   8.133 -0.1061 -0.0339  0.2380
  842YOPE   C4B12462  17.244   6.523   8.353 -0.2280  0.2708  0.0430
  843YOPE   NH312463  14.316   9.032   5.810  0.1632  0.0742 -0.0080
  843YOPE   PO412464  13.951   9.104   6.069 -0.1009 -0.2809  0.1802
  843YOPE   GL112465  13.963   9.110   6.477 -0.0915  0.0110 -0.0220
  843YOPE   GL212466  14.023   8.796   6.632 -0.1349  0.1225  0.2016
  843YOPE   C1A12467  13.851   9.257   6.763 -0.1312  0.2763 -0.0724
  843YOPE   D2A12468  13.578   9.283   7.094 -0.2224 -0.0395  0.2577
  843YOPE   C3A12469  13.594   9.639   7.386 -0.1608 -0.1952  0.0674
  843YOPE   C4A12470  13.565  10.025   7.547 -0.2329  0.2004  0.1533
  843YOPE   C1B12471  14.110   8.565   6.963 -0.3548  0.3150  0.0560
  843YOPE   C2B12472  14.090   8.353   7.438  0.0333 -0.0717  0.1049
  843YOPE   D3B12473  14.233   8.271   7.760 -0.2112  0.2045 -0.1651
  843YOPE   C4B12474  14.141   8.251   8.063 -0.2586 -0.0562  0.0633
  844YOPE   NH312475  13.364   4.529   6.591 -0.4276  0.0465  0.3131
  844YOPE   PO412476  13.542   4.864   6.287  0.2600  0.4968  0.0997
  844YOPE   GL112477  13.626   4.916   6.752  0.2190 -0.0712 -0.0681
  844YOPE   GL212478  13.852   4.821   6.783 -0.2916  0.0450  0.1043
  844YOPE   C1A12479  13.530   4.970   7.154  0.0415 -0.3809 -0.2226
  844YOPE   D2A12480  13.183   4.961   7.326  0.1052 -0.2053  0.2269
  844YOPE   C3A12481  12.831   5.098   7.138 -0.0763 -0.4556  0.1079
  844YOPE   C4A12482  12.599   5.406   6.882  0.2299 -0.0375  0.2506
  844YOPE   C1B12483  13.901   4.663   7.174  0.1015  0.0826  0.1672
  844YOPE   C2B12484  13.810   4.576   7.618 -0.0279  0.1124 -0.1794
  844YOPE   D3B12485  13.792   4.681   7.998  0.0970  0.0196 -0.0126
  844YOPE   C4B12486  13.548   4.908   8.200 -0.0053  0.1617 -0.0782
  845YOPE   NH312487   9.100  17.155   5.068  0.4768  0.0621  0.0731
  845YOPE   PO412488   9.124  17.267   5.513 -0.1069 -0.0503 -0.1199
  845YOPE   GL112489   9.055  16.992   5.817 -0.0241 -0.0465  0.4917
  845YOPE   GL212490   9.081  17.044   6.125  0.3548 -0.3510  0.0067
  845YOPE   C1A12491   9.370  16.645   5.955  0.2800  0.2354 -0.0890
  845YOPE   D2A12492   9.626  16.830   6.292  0.4042  0.2813  0.0565
  845YOPE   C3A12493   9.471  17.237   6.475 -0.2175 -0.6043  0.0234
  845YOPE   C4A12494   9.070  17.592   6.577  0.1707 -0.1782  0.0796
  845YOPE   C1B12495   8.723  17.169   6.448  0.1389  0.1873  0.0682
  845YOPE   C2B12496   8.383  17.165   6.709  0.0261 -0.1661  0.2030
  845YOPE   D3B12497   8.275  17.191   7.081 -0.0662  0.0994  0.0094
  845YOPE   C4B12498   8.206  17.040   7.521 -0.4812 -0.1855 -0.2796
  846YOPE   NH312499  12.809  17.286   5.138 -0.0311 -0.1198 -0.2014
  846YOPE   PO412500  12.768  16.958   5.404  0.2924  0.1618  0.1821
  846YOPE   GL112501  12.680  16.748   5.787 -0.0428 -0.0029  0.0231
  846YOPE   GL212502  12.757  16.457   5.909 -0.2598 -0.2045  0.0919
  846YOPE   C1A12503  12.769  16.820   6.208 -0.0022 -0.2159 -0.2900
  846YOPE   D2A12504  12.714  16.806   6.570 -0.2801  0.2545  0.0129
  846YOPE   C3A12505  12.818  17.010   6.877 -0.1641  0.0579  0.2243
  846YOPE   C4A12506  12.839  17.095   7.318 -0.2602 -0.2153  0.2017
  846YOPE   C1B12507  12.532  16.370   6.388  0.0723  0.1771  0.0000
  846YOPE   C2B12508  12.564  16.400   6.890  0.1384  0.0708  0.0886
  846YOPE   D3B12509  12.701  16.513   7.202 -0.2938  0.4628 -0.1139
  846YOPE   C4B12510  12.897  16.576   7.610 -0.0511 -0.0423  0.1485
  847YOPE   NH312511  11.900  14.263   5.759 -0.1495 -0.0598 -0.1178
  847YOPE   PO412512  12.212  14.678   5.643  0.4735  0.0778 -0.2113
  847YOPE   GL112513  12.351  14.398   6.034  0.1085 -0.0592 -0.3808
  847YOPE   GL212514  12.125  14.183   6.269 -0.1742  0.1013  0.0992
  847YOPE   C1A12515  12.621  14.128   6.364  0.0705  0.2246  0.1131
  847YOPE   D2A12516  12.361  14.091   6.777 -0.3647 -0.2212 -0.3916
  847YOPE   C3A12517  12.417  14.482   6.969  0.2742  0.1009  0.1781
  847YOPE   C4A12518  12.501  14.513   7.469  0.1163  0.0569  0.3856
  847YOPE   C1B12519  12.177  14.564   6.486 -0.0947  0.2494  0.0890
  847YOPE   C2B12520  12.156  14.862   6.753  0.0571 -0.2986  0.1369
  847YOPE   D3B12521  12.459  15.003   7.101 -0.2368 -0.1473  0.3106
  847YOPE   C4B12522  12.578  15.115   7.454 -0.1469 -0.4491 -0.0197
  848YOPE   NH312523  14.935   0.736   6.211  0.0742  0.1974  0.2397
  848YOPE   PO412524  15.240   1.100   6.345  0.0567 -0.1812  0.0235
  848YOPE   GL112525  15.123   1.138   6.749  0.0566 -0.0031 -0.0258
  848YOPE   GL212526  14.951   1.064   6.812  0.1964  0.1415 -0.0347
  848YOPE   C1A12527  15.301   1.363   7.174 -0.1781 -0.0405  0.0368
  848YOPE   D2A12528  15.518   1.590   7.537 -0.0871 -0.0501 -0.1517
  848YOPE   C3A12529  15.739   1.441   7.862 -0.1799 -0.3263  0.1216
  848YOPE   C4A12530  16.115   1.415   8.091  0.0763 -0.0803  0.2919
  848YOPE   C1B12531  14.800   1.438   6.980  0.1335  0.1489  0.1759
  848YOPE   C2B12532  14.717   1.883   7.239  0.3935  0.0648 -0.0894
  848YOPE   D3B12533  14.912   2.267   7.379  0.1768 -0.5132 -0.0135
  848YOPE   C4B12534  15.107   2.470   7.623 -0.1794 -0.1706  0.1131
  849YOPE   NH312535   3.077   4.725   5.830 -0.2600 -0.2703 -0.0162
  849YOPE   PO412536   2.892   4.406   6.143 -0.0403  0.0752 -0.1769
  849YOPE   GL112537   2.990   4.428   6.621  0.1348  0.0484 -0.0012
  849YOPE   GL212538   2.803   4.575   6.821  0.2148  0.0585  0.0815
  849YOPE   C1A12539   3.217   4.258   7.018  0.5079 -0.0527 -0.0192
  849YOPE   D2A12540   3.298   4.096   7.398  0.3428  0.0657  0.0708
  849YOPE   C3A12541   2.982   3.757   7.491 -0.1389  0.1141 -0.0411
  849YOPE   C4A12542   2.931   3.359   7.491  0.1279 -0.1208 -0.1231
  849YOPE   C1B12543   2.912   4.664   7.288 -0.2215  0.2721 -0.0356
  849YOPE   C2B12544   2.804   4.763   7.715 -0.0312 -0.1618  0.2369
  849YOPE   D3B12545   2.639   4.983   8.044  0.0943  0.4470 -0.0281
  849YOPE   C4B12546   2.310   5.107   8.432  0.2473  0.0833  0.4333
  850YOPE   NH312547   6.708  17.592   5.538  0.0188 -0.1266 -0.2062
  850YOPE   PO412548   7.093  17.520   5.564 -0.1633  0.2281  0.1949
  850YOPE   GL112549   6.929  17.479   6.009 -0.3738 -0.3821 -0.0309
  850YOPE   GL212550   6.891  17.766   6.150  0.2880  0.0957  0.2831
  850YOPE   C1A12551   6.945  17.304   6.435 -0.2358  0.0666  0.4248
  850YOPE   D2A12552   7.001  17.029   6.730 -0.1121  0.2677 -0.2820
  850YOPE   C3A12553   6.829  17.128   7.178 -0.0964  0.0504 -0.2913
  850YOPE   C4A12554   6.659  17.217   7.570 -0.1910  0.0892  0.1353
  850YOPE   C1B12555   6.658  18.028   6.554 -0.0754  0.0684  0.1889
  850YOPE   C2B12556   6.688  18.097   6.902  0.1025 -0.1089 -0.0250
  850YOPE   D3B12557   6.707  18.335   7.239 -0.0277 -0.0791  0.0379
  850YOPE   C4B12558   6.876  18.474   7.643  0.0484  0.3220  0.2567
  851YOPE   NH312559  15.903  13.866   5.945  0.1360  0.0996 -0.1606
  851YOPE   PO412560  15.881  13.421   5.862 -0.0617 -0.3740  0.0141
  851YOPE   GL112561  15.728  13.536   6.313 -0.2165 -0.1290 -0.2009
  851YOPE   GL212562  16.085  13.681   6.403  0.0774  0.1253  0.0696
  851YOPE   C1A12563  15.630  13.637   6.706 -0.1794  0.0657  0.1624
  851YOPE   D2A12564  15.687  13.633   7.068  0.2369 -0.0971  0.1525
  851YOPE   C3A12565  15.296  13.801   7.332  0.1114  0.2445 -0.0020
  851YOPE   C4A12566  15.175  14.048   7.721 -0.0490 -0.3116 -0.2082
  851YOPE   C1B12567  15.946  13.252   6.675  0.4719  0.1275 -0.1171
  851YOPE   C2B12568  15.802  13.158   6.991  0.3275  0.0156 -0.1078
  851YOPE   D3B12569  15.559  13.000   7.257  0.2034  0.0449  0.1474
  851YOPE   C4B12570  15.564  12.600   7.578 -0.2133 -0.3442  0.5166
  852YOPE   NH312571   9.734  15.473   5.483 -0.2174  0.2877 -0.1277
  852YOPE   PO412572   9.262  15.320   5.389  0.2923  0.1238  0.0222
  852YOPE   GL112573   9.281  15.312   5.831 -0.1451  0.0076 -0.0675
  852YOPE   GL212574   9.557  15.317   5.913  0.0776 -0.2634 -0.0954
  852YOPE   C1A12575   9.004  15.169   6.221  0.1245 -0.3234 -0.0072
  852YOPE   D2A12576   8.972  14.972   6.609  0.0229 -0.3481  0.3454
  852YOPE   C3A12577   8.570  14.891   6.727 -0.3790 -0.0612 -0.1058
  852YOPE   C4A12578   8.715  14.902   7.175 -0.1239 -0.0403 -0.1619
  852YOPE   C1B12579   9.394  15.488   6.262 -0.1347  0.1939 -0.0508
  852YOPE   C2B12580   9.150  15.470   6.661 -0.2443 -0.4463 -0.1033
  852YOPE   D3B12581   9.042  15.211   7.015  0.1653  0.1093  0.0461
  852YOPE   C4B12582   9.160  14.962   7.423  0.0317 -0.1464  0.1183
  853YOPE   NH312583   4.066  15.355   5.511  0.0953 -0.2501 -0.1887
  853YOPE   PO412584   4.240  15.743   5.644 -0.0235  0.4278 -0.5160
  853YOPE   GL112585   4.146  15.691   6.020  0.0744  0.4023  0.2027
  853YOPE   GL212586   4.421  15.404   6.083  0.2836 -0.1731  0.4136
  853YOPE   C1A12587   4.010  15.895   6.358 -0.2570 -0.3023  0.0533
  853YOPE   D2A12588   4.227  16.024   6.822  0.0288  0.4332  0.2945
  853YOPE   C3A12589   4.180  15.881   7.275  0.1265  0.3782  0.0441
  853YOPE   C4A12590   4.457  15.861   7.560 -0.0435  0.0265 -0.2944
  853YOPE   C1B12591   3.974  15.126   6.195 -0.0105 -0.2618  0.0878
  853YOPE   C2B12592   3.890  15.172   6.661 -0.0429  0.2184  0.0893
  853YOPE   D3B12593   3.616  15.117   6.986  0.0148  0.0985  0.2950
  853YOPE   C4B12594   3.520  14.805   7.430 -0.0266 -0.1195 -0.1130
  854YOPE   NH312595   0.739  16.449   5.853  0.1434 -0.1397  0.1166
  854YOPE   PO412596   0.858  16.148   6.007 -0.0650 -0.1649 -0.0030
  854YOPE   GL112597   0.739  16.287   6.403 -0.0265 -0.0059  0.1182
  854YOPE   GL212598   0.695  16.630   6.310 -0.0572 -0.1183  0.1045
  854YOPE   C1A12599   0.649  16.521   6.791  0.1937 -0.3640  0.1553
  854YOPE   D2A12600   0.514  16.731   7.052  0.2514 -0.0433 -0.2699
  854YOPE   C3A12601   0.395  16.630   7.513  0.0327  0.2190  0.0522
  854YOPE   C4A12602   0.183  16.672   7.897  0.0145 -0.0413 -0.0658
  854YOPE   C1B12603   0.638  17.023   6.597  0.1123  0.1634  0.1073
  854YOPE   C2B12604   0.517  17.413   6.764 -0.2324 -0.1418  0.0288
  854YOPE   D3B12605   0.517  17.747   7.068  0.0115  0.1567 -0.0006
  854YOPE   C4B12606   0.838  17.992   7.234 -0.1466 -0.2020  0.1516
  855YOPE   NH312607  10.133   7.122   5.981 -0.0290  0.4679 -0.2902
  855YOPE   PO412608  10.600   7.206   5.854  0.1926 -0.3296  0.1247
  855YOPE   GL112609  10.591   7.097   6.190 -0.1520 -0.2547 -0.0948
  855YOPE   GL212610  10.858   7.218   6.400  0.2253 -0.0340  0.1081
  855YOPE   C1A12611  10.456   6.857   6.553  0.0756  0.2941 -0.0160
  855YOPE   D2A12612  10.509   6.794   7.016  0.0544 -0.1489  0.3158
  855YOPE   C3A12613  10.409   7.109   7.311 -0.1465 -0.0274  0.0203
  855YOPE   C4A12614  10.572   7.313   7.682 -0.2939  0.1510 -0.0478
  855YOPE   C1B12615  10.569   7.294   6.774 -0.1948  0.1459 -0.0725
  855YOPE   C2B12616  10.131   7.308   6.925 -0.0361 -0.0654 -0.1376
  855YOPE   D3B12617   9.787   7.613   6.952  0.2525 -0.1685  0.1588
  855YOPE   C4B12618   9.463   7.918   6.965 -0.0598  0.2716  0.0635
  856YOPE   NH312619   3.564  13.117   5.536 -0.0767  0.2204 -0.0972
  856YOPE   PO412620   3.103  13.125   5.768  0.2207  0.3327 -0.0823
  856YOPE   GL112621   3.013  13.185   6.235 -0.0678 -0.3205  0.0147
  856YOPE   GL212622   2.687  13.031   6.296  0.2116 -0.1849 -0.1074
  856YOPE   C1A12623   3.193  12.962   6.597  0.1319 -0.0828  0.1861
  856YOPE   D2A12624   3.346  13.294   6.886 -0.1968  0.2885  0.1247
  856YOPE   C3A12625   3.227  13.280   7.350 -0.0132 -0.3881  0.5160
  856YOPE   C4A12626   3.226  13.158   7.846  0.1662  0.0357 -0.0446
  856YOPE   C1B12627   2.749  13.153   6.649 -0.1170  0.0361 -0.0379
  856YOPE   C2B12628   2.817  13.239   7.004 -0.2740  0.1139  0.0427
  856YOPE   D3B12629   2.705  13.611   7.142 -0.1757  0.0035  0.1814
  856YOPE   C4B12630   2.724  13.942   7.357 -0.2858 -0.0803 -0.0641
  857YOPE   NH312631  10.630   0.092   5.753 -0.1882 -0.3324  0.0893
  857YOPE   PO412632  10.493   0.464   5.793 -0.0739 -0.2104 -0.1425
  857YOPE   GL112633  10.317   0.581   6.178 -0.0044 -0.1875 -0.1730
  857YOPE   GL212634   9.991   0.560   6.173  0.1931  0.1303 -0.0997
  857YOPE   C1A12635  10.410   0.611   6.530 -0.0796  0.2320 -0.0033
  857YOPE   D2A12636  10.204   0.507   6.898 -0.1963 -0.0056 -0.2721
  857YOPE   C3A12637  10.062   0.737   7.224 -0.0905 -0.0231 -0.1728
  857YOPE   C4A12638   9.990   1.125   7.297 -0.0626 -0.2688 -0.0655
  857YOPE   C1B12639  10.025   0.239   6.462 -0.1305 -0.0637  0.0022
  857YOPE   C2B12640   9.859   0.141   6.822 -0.2772  0.2959 -0.0277
  857YOPE   D3B12641   9.850   0.231   7.164  0.3710 -0.1330  0.1360
  857YOPE   C4B12642   9.721  -0.007   7.401  0.0913  0.0238  0.2484
  858YOPE   NH312643  18.405   8.600   6.280 -0.3231 -0.0025  0.1145
  858YOPE   PO412644  18.600   8.153   6.305 -0.0060  0.0920 -0.3484
  858YOPE   GL112645  18.606   8.003   6.605 -0.2269 -0.0774 -0.1604
  858YOPE   GL212646  18.698   7.598   6.581 -0.3647  0.4890 -0.0304
  858YOPE   C1A12647  18.412   7.931   6.978 -0.1659  0.0681  0.3994
  858YOPE   D2A12648  18.557   7.837   7.446 -0.1209 -0.1906 -0.3122
  858YOPE   C3A12649  18.431   8.019   7.868 -0.1212  0.3447 -0.0756
  858YOPE   C4A12650  18.169   8.242   8.091 -0.1077  0.0844 -0.0632
  858YOPE   C1B12651  18.524   7.365   6.987 -0.1168 -0.1302 -0.3678
  858YOPE   C2B12652  18.592   7.200   7.387 -0.5013 -0.1519  0.0905
  858YOPE   D3B12653  18.429   7.160   7.676  0.2835  0.0893 -0.1465
  858YOPE   C4B12654  18.609   7.050   8.047  0.0919 -0.0630 -0.2279
  859YOPE   NH312655   8.595   0.136   5.766 -0.1139 -0.0373 -0.1053
  859YOPE   PO412656   8.812  -0.170   5.823  0.1722 -0.1489 -0.0972
  859YOPE   GL112657   8.734  -0.422   6.138 -0.0991 -0.0434  0.2340
  859YOPE   GL212658   8.695  -0.799   6.143 -0.0409 -0.3286  0.0639
  859YOPE   C1A12659   8.982  -0.386   6.436 -0.3355  0.2244  0.1650
  859YOPE   D2A12660   9.195  -0.465   6.847 -0.0764  0.0935  0.2272
  859YOPE   C3A12661   9.519  -0.797   6.843 -0.3589  0.1161 -0.1348
  859YOPE   C4A12662   9.660  -1.325   7.007  0.0005  0.1813  0.0162
  859YOPE   C1B12663   8.491  -0.833   6.566  0.2339 -0.0498 -0.2919
  859YOPE   C2B12664   8.730  -0.795   6.950 -0.0337 -0.3531  0.2744
  859YOPE   D3B12665   9.125  -0.896   7.096  0.0798  0.0490 -0.2290
  859YOPE   C4B12666   9.436  -0.947   7.366 -0.4383  0.2342  0.1282
  860YOPE   NH312667  12.637   8.210   5.868  0.0769  0.0883  0.1255
  860YOPE   PO412668  12.210   8.317   5.704  0.5226  0.1469 -0.2440
  860YOPE   GL112669  12.220   8.410   6.195 -0.0303 -0.1105  0.0122
  860YOPE   GL212670  11.887   8.327   6.412 -0.3474  0.1124  0.1685
  860YOPE   C1A12671  12.332   8.507   6.621  0.1221  0.0352  0.0412
  860YOPE   D2A12672  12.689   8.547   6.904 -0.2738 -0.3105  0.0868
  860YOPE   C3A12673  12.752   8.735   7.221 -0.0964 -0.2065  0.3169
  860YOPE   C4A12674  12.840   8.841   7.602  0.0331 -0.0876  0.0919
  860YOPE   C1B12675  11.915   8.448   6.908  0.0828  0.1226 -0.0173
  860YOPE   C2B12676  11.858   8.674   7.302  0.2642  0.3991  0.3987
  860YOPE   D3B12677  11.913   8.739   7.726  0.2391 -0.0937  0.0250
  860YOPE   C4B12678  12.085   8.721   8.117 -0.1441 -0.0232 -0.1619
  861YOPE   NH312679   9.230   9.396   5.560  0.1001  0.1136  0.0542
  861YOPE   PO412680   9.495   9.753   5.657 -0.0055  0.1804 -0.3231
  861YOPE   GL112681   9.655   9.744   6.167  0.0327 -0.2456  0.0862
  861YOPE   GL212682   9.767  10.041   6.273 -0.0742  0.1745 -0.2554
  861YOPE   C1A12683   9.689   9.672   6.719 -0.2872 -0.3837  0.2627
  861YOPE   D2A12684   9.648   9.642   7.210 -0.0192  0.0507  0.0537
  861YOPE   C3A12685   9.393   9.491   7.466  0.2542 -0.1344 -0.1712
  861YOPE   C4A12686   9.005   9.575   7.379  0.1153 -0.3599 -0.0553
  861YOPE   C1B12687   9.877  10.408   6.445 -0.2148 -0.1663  0.0427
  861YOPE   C2B12688   9.829  10.735   6.752 -0.2583  0.3996  0.2637
  861YOPE   D3B12689   9.729  10.598   7.178 -0.1622 -0.2277  0.1222
  861YOPE   C4B12690   9.644  10.456   7.671 -0.0826  0.1160  0.0567
  862YOPE   NH312691  13.486   8.554   5.699 -0.0067  0.2740 -0.0469
  862YOPE   PO412692  13.352   8.972   5.843  0.3039 -0.2073 -0.0883
  862YOPE   GL112693  13.450   9.185   6.259  0.2728  0.1389  0.1037
  862YOPE   GL212694  13.430   8.884   6.529 -0.2145  0.2432 -0.1437
  862YOPE   C1A12695  13.361   9.325   6.687 -0.0222 -0.0705  0.2674
  862YOPE   D2A12696  13.143   9.499   7.121 -0.0963  0.1044  0.0012
  862YOPE   C3A12697  12.913   9.653   7.441 -0.0837 -0.1176  0.0065
  862YOPE   C4A12698  12.742   9.835   7.880 -0.2245  0.0349 -0.0069
  862YOPE   C1B12699  13.607   8.824   6.908  0.0183 -0.1936 -0.2413
  862YOPE   C2B12700  13.758   8.698   7.348  0.3385 -0.1606  0.0407
  862YOPE   D3B12701  14.095   8.803   7.705 -0.1244 -0.1259  0.2032
  862YOPE   C4B12702  14.360   9.099   7.864 -0.1190 -0.1531  0.0005
  863YOPE   NH312703   4.249  11.279   5.396 -0.0710 -0.0965  0.1547
  863YOPE   PO412704   3.952  11.114   5.555  0.2467 -0.3137 -0.2845
  863YOPE   GL112705   3.905  11.116   5.975 -0.3336 -0.0091  0.0594
  863YOPE   GL212706   3.710  11.372   6.099  0.1278 -0.0443  0.1549
  863YOPE   C1A12707   4.223  11.246   6.316  0.1084 -0.0052  0.0883
  863YOPE   D2A12708   4.267  11.109   6.785 -0.1564  0.2911 -0.1004
  863YOPE   C3A12709   4.291  11.228   7.114  0.0367 -0.3019 -0.2165
  863YOPE   C4A12710   4.060  11.364   7.518  0.1393  0.0383 -0.2736
  863YOPE   C1B12711   3.833  11.529   6.476 -0.0994 -0.0760  0.0311
  863YOPE   C2B12712   3.828  11.269   6.918 -0.3252 -0.1839 -0.3889
  863YOPE   D3B12713   3.590  11.202   7.309  0.0546 -0.1223 -0.1312
  863YOPE   C4B12714   3.385  11.174   7.743  0.1520 -0.0709  0.1155
  864YOPE   NH312715  15.286   0.125   6.131  0.1947 -0.0047  0.3439
  864YOPE   PO412716  14.816   0.201   5.879 -0.4806 -0.0449 -0.0972
  864YOPE   GL112717  14.828   0.222   6.366 -0.0339 -0.0714 -0.1851
  864YOPE   GL212718  14.471   0.137   6.421 -0.0952  0.1586 -0.1148
  864YOPE   C1A12719  14.732   0.238   6.872  0.2415  0.2912  0.2310
  864YOPE   D2A12720  14.657   0.208   7.412  0.1526 -0.1322  0.0983
  864YOPE   C3A12721  14.653  -0.199   7.538 -0.1123 -0.2364 -0.1141
  864YOPE   C4A12722  14.939  -0.449   7.521 -0.1403 -0.0622  0.2838
  864YOPE   C1B12723  14.075   0.118   6.653  0.2069 -0.0727 -0.4352
  864YOPE   C2B12724  13.824   0.019   6.984  0.1696  0.2309  0.0686
  864YOPE   D3B12725  13.482  -0.048   7.303  0.0870  0.6322 -0.0563
  864YOPE   C4B12726  13.018  -0.111   7.320 -0.2423  0.0781  0.0516
  865YOPE   NH312727  11.846  12.735   5.526 -0.2015 -0.1471  0.1024
  865YOPE   PO412728  12.166  12.381   5.436 -0.3205 -0.0486 -0.0061
  865YOPE   GL112729  12.340  12.500   5.859  0.2498 -0.0312  0.0131
  865YOPE   GL212730  12.128  12.833   5.950  0.3085 -0.0361 -0.1018
  865YOPE   C1A12731  12.548  12.596   6.133  0.2618 -0.2098  0.1842
  865YOPE   D2A12732  12.545  12.445   6.604  0.0597  0.0917  0.0004
  865YOPE   C3A12733  12.569  12.520   7.029  0.2106  0.1790  0.1038
  865YOPE   C4A12734  12.498  12.532   7.415 -0.2183  0.0011  0.1066
  865YOPE   C1B12735  12.133  12.769   6.345 -0.1834  0.0028  0.3341
  865YOPE   C2B12736  12.052  12.743   6.780  0.2591  0.0305  0.0425
  865YOPE   D3B12737  11.907  13.064   6.970  0.0931  0.1471  0.2130
  865YOPE   C4B12738  11.619  13.413   7.028  0.0436 -0.2088 -0.0142
  866YOPE   NH312739   7.098   6.385   5.981 -0.0598 -0.1669 -0.1413
  866YOPE   PO412740   7.440   6.658   5.995 -0.0733 -0.1761 -0.2325
  866YOPE   GL112741   7.105   6.814   6.265 -0.1131 -0.2347  0.3819
  866YOPE   GL212742   6.890   6.509   6.413  0.1787 -0.0801  0.2775
  866YOPE   C1A12743   6.940   6.837   6.766  0.2689 -0.3003 -0.0134
  866YOPE   D2A12744   6.809   6.537   7.060 -0.2071  0.1480 -0.1971
  866YOPE   C3A12745   6.969   6.513   7.437  0.2254 -0.2587  0.0970
  866YOPE   C4A12746   7.211   6.391   7.717 -0.0860 -0.4090  0.2299
  866YOPE   C1B12747   7.174   6.365   6.614  0.1096  0.0847 -0.2150
  866YOPE   C2B12748   7.292   6.309   7.014  0.2024  0.2502  0.2234
  866YOPE   D3B12749   7.557   6.355   7.381 -0.1214  0.3902 -0.0377
  866YOPE   C4B12750   7.961   6.411   7.404 -0.1877 -0.0402  0.0530
  867YOPE   NH312751  15.476  12.237   5.455 -0.0183 -0.2142  0.0553
  867YOPE   PO412752  15.791  11.952   5.488  0.1574 -0.0813 -0.2821
  867YOPE   GL112753  15.741  12.011   5.903  0.1320  0.1229 -0.3380
  867YOPE   GL212754  15.991  12.105   6.064 -0.1737  0.0510  0.2825
  867YOPE   C1A12755  15.445  11.929   6.240 -0.0524 -0.0855  0.3976
  867YOPE   D2A12756  15.190  11.861   6.666 -0.0058  0.0257 -0.0145
  867YOPE   C3A12757  15.352  11.817   7.069 -0.3373 -0.1814 -0.1507
  867YOPE   C4A12758  15.307  11.886   7.567 -0.1128  0.0006 -0.2045
  867YOPE   C1B12759  16.100  12.167   6.528  0.2300  0.2072  0.1884
  867YOPE   C2B12760  16.021  12.169   6.992 -0.2536 -0.2559  0.0106
  867YOPE   D3B12761  15.746  12.100   7.319  0.2835 -0.0199 -0.3547
  867YOPE   C4B12762  15.750  12.073   7.726  0.1406  0.0693  0.3011
  868YOPE   NH312763  16.020  18.165   6.127  0.2651  0.0263  0.1023
  868YOPE   PO412764  15.763  18.577   6.211  0.1401 -0.1029  0.0411
  868YOPE   GL112765  15.617  18.811   6.643 -0.1290 -0.0896 -0.0236
  868YOPE   GL212766  15.298  18.953   6.489  0.2653 -0.1101 -0.2620
  868YOPE   C1A12767  15.641  18.892   7.107  0.1817  0.1231  0.1676
  868YOPE   D2A12768  15.664  18.885   7.632  0.1466  0.1750  0.1791
  868YOPE   C3A12769  15.754  18.514   7.889  0.0612 -0.1142 -0.0342
  868YOPE   C4A12770  15.652  18.159   7.804 -0.0162 -0.0007 -0.0534
  868YOPE   C1B12771  15.167  19.041   6.860 -0.0550 -0.0321  0.0730
  868YOPE   C2B12772  14.807  19.091   7.193 -0.0967  0.4826  0.0446
  868YOPE   D3B12773  14.486  19.189   7.475 -0.2597 -0.0386 -0.0753
  868YOPE   C4B12774  14.162  19.421   7.561 -0.1850 -0.1997 -0.0629
  869YOPE   NH312775  13.872   2.257   5.971  0.1223  0.0403 -0.5580
  869YOPE   PO412776  13.459   2.404   5.820  0.1197 -0.0233 -0.2141
  869YOPE   GL112777  13.485   2.397   6.346  0.0238 -0.0290 -0.0285
  869YOPE   GL212778  13.346   2.657   6.354  0.1107 -0.1976  0.1532
  869YOPE   C1A12779  13.569   2.255   6.781  0.0373  0.2653 -0.1303
  869YOPE   D2A12780  13.967   2.163   7.104  0.0681 -0.4025 -0.3080
  869YOPE   C3A12781  14.276   2.073   7.403  0.0475  0.1920 -0.2716
  869YOPE   C4A12782  14.643   2.033   7.761 -0.0214 -0.0012  0.2185
  869YOPE   C1B12783  12.914   2.646   6.583 -0.0397  0.1097  0.3964
  869YOPE   C2B12784  12.693   2.937   6.879  0.0298 -0.3732  0.1292
  869YOPE   D3B12785  12.638   3.259   6.858  0.4090  0.0757 -0.0307
  869YOPE   C4B12786  12.392   3.572   7.243 -0.0020  0.1114  0.0634
  870YOPE   NH312787  13.466   0.625   5.610  0.1328 -0.0122  0.0663
  870YOPE   PO412788  13.637   0.781   5.800 -0.0459  0.1316 -0.2462
  870YOPE   GL112789  13.506   0.935   6.120 -0.1826 -0.1726  0.0869
  870YOPE   GL212790  13.180   0.967   6.292 -0.2327  0.0452 -0.3525
  870YOPE   C1A12791  13.732   0.907   6.597  0.1228  0.0812 -0.1632
  870YOPE   D2A12792  13.760   0.488   6.841 -0.0182  0.0818  0.0010
  870YOPE   C3A12793  13.518   0.436   7.216  0.1419  0.2034  0.0350
  870YOPE   C4A12794  13.209   0.339   7.555 -0.0697 -0.1747 -0.1222
  870YOPE   C1B12795  13.009   1.021   6.666 -0.0246  0.2394  0.1609
  870YOPE   C2B12796  12.802   0.922   7.011  0.2366 -0.0883  0.0863
  870YOPE   D3B12797  12.701   1.092   7.532  0.2271  0.5525 -0.0482
  870YOPE   C4B12798  12.877   1.372   7.829  0.0854 -0.0523  0.0763
  871YOPE   NH312799  15.097  16.702   5.705  0.4874  0.0047  0.0474
  871YOPE   PO412800  14.531  16.945   5.565 -0.0253  0.2820 -0.0464
  871YOPE   GL112801  14.124  17.055   5.843 -0.0514  0.0158 -0.1567
  871YOPE   GL212802  14.220  17.242   6.093  0.3209  0.0857  0.0290
  871YOPE   C1A12803  13.781  17.020   6.183 -0.1263  0.1087 -0.1234
  871YOPE   D2A12804  13.898  17.002   6.635  0.1950  0.0893  0.1688
  871YOPE   C3A12805  13.747  17.147   7.028  0.2136 -0.0754  0.1472
  871YOPE   C4A12806  13.814  17.124   7.438  0.0500  0.0472  0.1856
  871YOPE   C1B12807  14.387  17.052   6.366 -0.3800  0.0604  0.0028
  871YOPE   C2B12808  14.363  16.900   6.752  0.1335  0.1100 -0.0285
  871YOPE   D3B12809  14.625  16.956   7.070  0.0935  0.0386  0.0034
  871YOPE   C4B12810  14.587  16.917   7.552 -0.1000  0.1701 -0.0127
  872YOPE   NH312811  17.895   6.079   5.937  0.0850  0.0466  0.1512
  872YOPE   PO412812  17.586   6.178   6.140  0.1886 -0.2025 -0.0077
  872YOPE   GL112813  17.735   6.373   6.458 -0.2258  0.0033 -0.1522
  872YOPE   GL212814  17.483   6.430   6.632  0.2075  0.0685  0.0414
  872YOPE   C1A12815  17.798   6.708   6.843 -0.1433  0.1343  0.4220
  872YOPE   D2A12816  17.720   7.156   6.829  0.0094 -0.1582 -0.0591
  872YOPE   C3A12817  17.645   7.355   7.232 -0.1295  0.1889  0.2644
  872YOPE   C4A12818  17.577   7.401   7.728 -0.2284  0.1023  0.1036
  872YOPE   C1B12819  17.515   6.110   6.963  0.0185  0.1947 -0.0706
  872YOPE   C2B12820  17.101   5.822   7.107  0.1045  0.0402 -0.1507
  872YOPE   D3B12821  16.800   5.936   7.510  0.0413 -0.2708  0.3768
  872YOPE   C4B12822  16.326   6.083   7.576  0.2125  0.1021 -0.1753
  873YOPE   NH312823   2.187  11.424   5.781 -0.1536  0.0646  0.0972
  873YOPE   PO412824   2.631  11.336   5.933  0.0348 -0.3722  0.3413
  873YOPE   GL112825   2.372  11.187   6.282 -0.1049  0.3041  0.0595
  873YOPE   GL212826   2.389  10.837   6.248  0.0252  0.0900 -0.2388
  873YOPE   C1A12827   2.499  11.076   6.745 -0.1948 -0.0538 -0.2237
  873YOPE   D2A12828   2.664  10.892   7.144  0.0960 -0.4119 -0.1427
  873YOPE   C3A12829   2.430  10.754   7.459  0.1027  0.0095 -0.2870
  873YOPE   C4A12830   2.519  10.371   7.800  0.0230 -0.0438  0.0079
  873YOPE   C1B12831   2.761  10.681   6.440  0.0584 -0.2841 -0.1577
  873YOPE   C2B12832   2.973  10.913   6.604  0.0285 -0.0372  0.0465
  873YOPE   D3B12833   3.181  11.108   6.986 -0.2198 -0.0307 -0.1029
  873YOPE   C4B12834   3.073  11.255   7.346  0.0873 -0.2029 -0.1506
  874YOPE   NH312835   0.730  13.614   5.816  0.0798 -0.1685 -0.4163
  874YOPE   PO412836   0.689  14.027   5.707 -0.1774  0.1005  0.0721
  874YOPE   GL112837   0.489  14.002   6.114 -0.1115  0.0868 -0.0824
  874YOPE   GL212838   0.242  13.723   6.194 -0.0397 -0.0376  0.3598
  874YOPE   C1A12839   0.443  14.041   6.539 -0.1642 -0.4074 -0.4958
  874YOPE   D2A12840   0.244  14.378   6.804  0.3884 -0.2607 -0.2694
  874YOPE   C3A12841   0.279  14.377   7.229 -0.1722 -0.3339 -0.0433
  874YOPE   C4A12842   0.434  14.255   7.497  0.1295  0.0748  0.0924
  874YOPE   C1B12843   0.201  13.633   6.624  0.1206  0.1490  0.1030
  874YOPE   C2B12844   0.405  13.894   7.015 -0.0146  0.0403 -0.1245
  874YOPE   D3B12845   0.370  13.784   7.465 -0.1193  0.0891  0.0204
  874YOPE   C4B12846   0.331  13.503   7.832  0.1671 -0.3608  0.0100
  875YOPE   NH312847   3.563  14.562   5.654 -0.0712 -0.1538 -0.0675
  875YOPE   PO412848   3.978  14.266   5.657 -0.1171 -0.2010  0.1048
  875YOPE   GL112849   4.030  14.440   5.990  0.1222  0.3430 -0.0889
  875YOPE   GL212850   3.641  14.339   6.092  0.0628 -0.0266 -0.1940
  875YOPE   C1A12851   3.940  14.573   6.400  0.2024  0.0404  0.2534
  875YOPE   D2A12852   3.614  14.561   6.773 -0.1996  0.1370 -0.0136
  875YOPE   C3A12853   3.902  14.721   7.142 -0.0547 -0.0983  0.0681
  875YOPE   C4A12854   4.202  14.784   7.587 -0.1473 -0.0665  0.1805
  875YOPE   C1B12855   3.432  14.656   6.255 -0.0533 -0.0472 -0.3923
  875YOPE   C2B12856   3.418  15.003   6.426  0.1025  0.1137 -0.0320
  875YOPE   D3B12857   3.142  15.226   6.869 -0.3933 -0.1765  0.3400
  875YOPE   C4B12858   2.966  15.222   7.264  0.1610 -0.0175  0.2649
  876YOPE   NH312859  18.277   7.728   6.278  0.1125 -0.1638  0.1489
  876YOPE   PO412860  18.124   7.332   6.253 -0.0954  0.1781 -0.1461
  876YOPE   GL112861  18.132   7.504   6.712  0.2975 -0.0242 -0.0158
  876YOPE   GL212862  17.870   7.835   6.698  0.1307 -0.0501 -0.1544
  876YOPE   C1A12863  18.031   7.630   7.145 -0.0946  0.0789 -0.2954
  876YOPE   D2A12864  18.054   7.557   7.585 -0.0027 -0.0053 -0.2073
  876YOPE   C3A12865  17.945   7.869   7.952 -0.1929  0.2252 -0.1169
  876YOPE   C4A12866  17.836   8.039   8.359  0.1078  0.1216  0.2062
  876YOPE   C1B12867  17.895   8.047   6.990  0.1226 -0.0904 -0.1438
  876YOPE   C2B12868  18.166   8.149   7.380  0.1974 -0.0225 -0.0479
  876YOPE   D3B12869  17.894   8.291   7.699 -0.1992 -0.0505  0.0527
  876YOPE   C4B12870  17.698   8.422   8.074 -0.1144  0.0368 -0.0365
  877YOPE   NH312871  11.714  16.178   5.685 -0.2175 -0.0810  0.0794
  877YOPE   PO412872  11.385  16.484   5.588  0.0592  0.1443  0.0439
  877YOPE   GL112873  11.628  16.494   6.035  0.0159  0.4623 -0.1810
  877YOPE   GL212874  11.486  16.183   6.158 -0.1251 -0.0153 -0.0655
  877YOPE   C1A12875  11.614  16.545   6.457  0.1495  0.3623 -0.3035
  877YOPE   D2A12876  11.551  16.131   6.720 -0.0250 -0.0628 -0.0477
  877YOPE   C3A12877  11.472  16.168   7.168 -0.1361  0.1939  0.0663
  877YOPE   C4A12878  11.547  16.390   7.520  0.2733 -0.3382  0.0518
  877YOPE   C1B12879  11.114  16.019   6.362 -0.2545  0.1634 -0.3718
  877YOPE   C2B12880  11.044  15.919   6.835 -0.1130  0.1422 -0.0896
  877YOPE   D3B12881  10.693  15.573   6.940  0.0675  0.1116  0.3223
  877YOPE   C4B12882  10.479  15.445   7.304  0.0482  0.0233  0.2492
  878YOPE   NH312883   7.651   7.103   5.942 -0.1314 -0.1517 -0.1313
  878YOPE   PO412884   8.083   6.862   5.765  0.0401 -0.1864 -0.2514
  878YOPE   GL112885   7.988   6.667   6.132  0.2151 -0.2448  0.0193
  878YOPE   GL212886   8.188   6.803   6.275  0.0725 -0.3389 -0.1531
  878YOPE   C1A12887   7.810   6.441   6.538  0.1194 -0.0122  0.1011
  878YOPE   D2A12888   7.823   6.339   6.903 -0.2634  0.0240 -0.0407
  878YOPE   C3A12889   8.096   6.171   7.024 -0.2201  0.2691  0.2921
  878YOPE   C4A12890   8.284   5.993   7.471 -0.3276  0.2943 -0.3247
  878YOPE   C1B12891   8.303   6.414   6.564 -0.0536  0.1106  0.3765
  878YOPE   C2B12892   8.722   6.276   6.588  0.2189  0.0089  0.0884
  878YOPE   D3B12893   8.992   6.208   6.254  0.2117  0.1457 -0.1174
  878YOPE   C4B12894   9.054   5.762   6.065  0.2422 -0.0427 -0.1058
  879YOPE   NH312895   5.578  16.471   5.805 -0.1600 -0.0276  0.0565
  879YOPE   PO412896   5.990  16.708   5.739 -0.3618  0.2796 -0.0175
  879YOPE   GL112897   5.710  16.992   6.017 -0.1730  0.0674 -0.3438
  879YOPE   GL212898   5.583  16.756   6.255 -0.0724 -0.0511  0.0860
  879YOPE   C1A12899   5.295  17.229   6.097  0.3225 -0.0705 -0.0186
  879YOPE   D2A12900   5.057  17.443   6.303 -0.0863  0.0157  0.1715
  879YOPE   C3A12901   4.917  17.292   6.697  0.3532 -0.2447 -0.2633
  879YOPE   C4A12902   4.682  17.236   7.086  0.1438  0.0376 -0.0579
  879YOPE   C1B12903   5.634  17.064   6.555  0.2016  0.0191 -0.2293
  879YOPE   C2B12904   5.846  17.463   6.917  0.1024 -0.2219 -0.0138
  879YOPE   D3B12905   5.875  17.763   7.351 -0.1710  0.0662 -0.3674
  879YOPE   C4B12906   5.900  18.047   7.619  0.0409 -0.0404 -0.0443
  880YOPE   NH312907  12.065   9.055   5.246  0.0789 -0.4167 -0.0785
  880YOPE   PO412908  12.066   8.920   5.695 -0.1079  0.0411  0.2531
  880YOPE   GL112909  12.228   9.040   6.106 -0.0577  0.2999  0.2983
  880YOPE   GL212910  12.117   9.356   6.046 -0.2947  0.1508 -0.3065
  880YOPE   C1A12911  12.555   8.907   6.364 -0.0390  0.0861 -0.3815
  880YOPE   D2A12912  12.924   8.764   6.475  0.3175 -0.1637  0.1000
  880YOPE   C3A12913  13.125   8.910   6.916  0.1555  0.1491  0.1773
  880YOPE   C4A12914  13.165   8.958   7.265  0.1028  0.2444 -0.2349
  880YOPE   C1B12915  12.143   9.642   6.411  0.5523  0.0719  0.2193
  880YOPE   C2B12916  12.003   9.984   6.702 -0.0744 -0.0088  0.2471
  880YOPE   D3B12917  12.127  10.193   7.155  0.1941 -0.0984  0.0826
  880YOPE   C4B12918  12.267  10.653   7.209 -0.3569  0.3819 -0.2802
  881YOPE   NH312919  15.155   5.980   5.940  0.1311 -0.0319  0.0451
  881YOPE   PO412920  14.916   6.141   6.219 -0.3927 -0.2936  0.0070
  881YOPE   GL112921  14.929   5.895   6.554  0.3548  0.0014  0.1693
  881YOPE   GL212922  14.621   5.807   6.583 -0.1659 -0.4967 -0.0897
  881YOPE   C1A12923  15.048   5.985   6.945  0.0122  0.0344 -0.2212
  881YOPE   D2A12924  15.231   5.864   7.361 -0.1181 -0.0528  0.3377
  881YOPE   C3A12925  15.362   6.269   7.670 -0.0672  0.2783  0.2674
  881YOPE   C4A12926  15.522   6.357   8.045  0.2181  0.1013 -0.2636
  881YOPE   C1B12927  14.498   6.016   6.900 -0.1946 -0.0734 -0.1547
  881YOPE   C2B12928  14.492   6.058   7.314  0.1499  0.0183  0.2235
  881YOPE   D3B12929  14.345   5.895   7.711  0.1763  0.0019  0.3839
  881YOPE   C4B12930  13.994   5.992   7.857  0.0910  0.0392 -0.0558
  882YOPE   NH312931   4.866   3.379   6.061 -0.1133  0.1460  0.3744
  882YOPE   PO412932   5.309   3.621   5.895 -0.1704  0.1024  0.1216
  882YOPE   GL112933   5.233   3.589   6.337 -0.2492  0.1547  0.2328
  882YOPE   GL212934   5.577   3.395   6.312  0.1470  0.3120 -0.2105
  882YOPE   C1A12935   5.144   3.254   6.663  0.0901 -0.2372 -0.0946
  882YOPE   D2A12936   5.269   3.068   7.004 -0.0935  0.2577 -0.1321
  882YOPE   C3A12937   5.583   3.110   7.225 -0.1611 -0.3708 -0.2410
  882YOPE   C4A12938   5.817   3.130   7.588  0.0739 -0.2566 -0.1493
  882YOPE   C1B12939   5.702   3.297   6.751 -0.0464 -0.1611  0.2837
  882YOPE   C2B12940   5.953   3.585   6.922 -0.1538 -0.3963  0.0843
  882YOPE   D3B12941   6.222   3.942   6.828  0.1876  0.2142  0.2308
  882YOPE   C4B12942   6.606   4.000   6.915  0.0389  0.0315 -0.2066
  883YOPE   NH312943   8.172  15.734   5.970  0.3138  0.0860  0.2095
  883YOPE   PO412944   7.858  16.104   5.941  0.1723 -0.0562 -0.0397
  883YOPE   GL112945   8.050  16.025   6.380  0.0532  0.3115 -0.1143
  883YOPE   GL212946   7.958  15.714   6.436  0.0185 -0.0925  0.2338
  883YOPE   C1A12947   8.488  16.159   6.663  0.2369 -0.2038  0.0524
  883YOPE   D2A12948   8.651  16.149   7.103  0.2256  0.0267 -0.1929
  883YOPE   C3A12949   8.624  16.524   7.351  0.1047  0.0255  0.1087
  883YOPE   C4A12950   8.637  16.945   7.697 -0.0804 -0.0118  0.0211
  883YOPE   C1B12951   8.293  15.724   6.775 -0.1641 -0.1386 -0.0755
  883YOPE   C2B12952   8.253  15.844   7.089  0.1843  0.0360  0.0533
  883YOPE   D3B12953   7.815  15.972   7.219  0.0385 -0.1952 -0.0445
  883YOPE   C4B12954   7.675  16.265   7.465 -0.0069 -0.2281 -0.2514
  884YOPE   NH312955  16.958   4.894   5.980 -0.1552  0.2301  0.4840
  884YOPE   PO412956  17.207   4.548   6.184  0.2285 -0.2597  0.0582
  884YOPE   GL112957  17.048   4.344   6.589  0.0857 -0.0786 -0.2700
  884YOPE   GL212958  16.998   4.025   6.605  0.0581  0.3784  0.0854
  884YOPE   C1A12959  16.742   4.381   6.894 -0.0394  0.2166  0.2265
  884YOPE   D2A12960  16.594   4.500   7.265  0.1088 -0.2485  0.0259
  884YOPE   C3A12961  16.948   4.410   7.572  0.2588 -0.0230  0.1062
  884YOPE   C4A12962  17.215   4.522   7.932  0.1417 -0.2157  0.2081
  884YOPE   C1B12963  17.117   4.110   6.970  0.0216  0.0760 -0.4715
  884YOPE   C2B12964  17.202   4.563   7.102  0.0667  0.4333 -0.2118
  884YOPE   D3B12965  17.429   4.709   7.450  0.1236  0.2492  0.0405
  884YOPE   C4B12966  17.673   4.758   7.812  0.1209 -0.3688 -0.2589
  885YOPE   NH312967  10.020   2.248   5.656  0.2094 -0.1896 -0.0442
  885YOPE   PO412968  10.374   2.005   5.823  0.2148  0.0513  0.0160
  885YOPE   GL112969  10.724   1.757   6.104  0.1196  0.0316  0.2428
  885YOPE   GL212970  11.005   1.804   6.059 -0.1279  0.1987 -0.2103
  885YOPE   C1A12971  10.630   1.487   6.467 -0.0314 -0.3651 -0.1005
  885YOPE   D2A12972  10.686   1.375   6.851  0.3266 -0.2960 -0.3532
  885YOPE   C3A12973  10.472   1.004   6.920 -0.0801 -0.0204  0.1140
  885YOPE   C4A12974  10.531   0.729   7.309  0.0564  0.3875 -0.0004
  885YOPE   C1B12975  11.172   1.820   6.403 -0.2130 -0.0881 -0.0648
  885YOPE   C2B12976  11.466   2.015   6.635 -0.0311  0.2471 -0.0630
  885YOPE   D3B12977  11.917   1.790   6.868 -0.0515  0.0414 -0.0168
  885YOPE   C4B12978  11.929   1.499   7.191  0.1071  0.1192 -0.0471
  886YOPE   NH312979   1.368  11.541   5.872  0.2786 -0.1763  0.0844
  886YOPE   PO412980   1.377  12.024   5.803  0.0720  0.1935  0.2172
  886YOPE   GL112981   1.689  11.885   6.172  0.0695 -0.2869 -0.3346
  886YOPE   GL212982   1.839  11.583   6.092 -0.1354 -0.1064  0.0178
  886YOPE   C1A12983   1.622  11.906   6.558  0.0088 -0.0486  0.1871
  886YOPE   D2A12984   1.744  11.799   7.013  0.1591 -0.4978  0.0998
  886YOPE   C3A12985   1.685  11.413   7.272 -0.2672 -0.0323  0.2066
  886YOPE   C4A12986   1.761  11.072   7.298 -0.1936  0.0455 -0.2318
  886YOPE   C1B12987   2.058  11.581   6.483 -0.3792 -0.1606  0.4674
  886YOPE   C2B12988   2.102  11.365   6.876  0.1344 -0.1899 -0.0211
  886YOPE   D3B12989   2.225  11.214   7.272 -0.0851 -0.0595  0.3620
  886YOPE   C4B12990   2.120  11.070   7.684 -0.1580  0.1636  0.0766
  887YOPE   NH312991   7.489  11.454   5.898 -0.0594 -0.1249 -0.0540
  887YOPE   PO412992   7.552  10.954   5.919 -0.0894 -0.0631 -0.0655
  887YOPE   GL112993   7.702  11.135   6.292 -0.1857  0.0824  0.0538
  887YOPE   GL212994   7.902  11.346   6.179  0.3047  0.1142 -0.0671
  887YOPE   C1A12995   7.764  11.171   6.770  0.2773  0.3019  0.1664
  887YOPE   D2A12996   7.689  11.135   7.109 -0.0027 -0.0854 -0.4009
  887YOPE   C3A12997   7.993  11.007   7.417  0.2127 -0.4212 -0.3382
  887YOPE   C4A12998   8.275  11.297   7.611 -0.1232  0.0157 -0.5484
  887YOPE   C1B12999   8.232  11.347   6.528  0.2930 -0.1006  0.2217
  887YOPE   C2B13000   8.634  11.378   6.809 -0.1658 -0.2612 -0.0410
  887YOPE   D3B13001   8.885  11.599   7.084  0.1491 -0.1002  0.1866
  887YOPE   C4B13002   8.904  11.801   7.450 -0.2350  0.4203 -0.0492
  888YOPE   NH313003  17.214  12.461   6.043  0.0800 -0.4977 -0.1518
  888YOPE   PO413004  17.260  12.035   5.886  0.1936 -0.0395 -0.2418
  888YOPE   GL113005  17.079  12.006   6.289 -0.1247 -0.1299 -0.0810
  888YOPE   GL213006  17.190  11.743   6.447 -0.0935 -0.1784 -0.4593
  888YOPE   C1A13007  16.874  12.108   6.701  0.0542 -0.0299 -0.0070
  888YOPE   D2A13008  16.876  12.086   7.200  0.3327  0.0280 -0.1407
  888YOPE   C3A13009  16.752  11.627   7.319  0.0840  0.0971  0.0400
  888YOPE   C4A13010  16.383  11.382   7.099  0.0971 -0.2637 -0.4242
  888YOPE   C1B13011  17.237  11.615   6.882 -0.0235 -0.0026  0.2315
  888YOPE   C2B13012  17.250  11.652   7.323 -0.1813 -0.4184  0.0014
  888YOPE   D3B13013  17.103  11.727   7.716  0.0261 -0.4630  0.0904
  888YOPE   C4B13014  16.746  11.809   7.833  0.0285 -0.1020  0.3415
  889YOPE   NH313015  10.550   1.429   5.768 -0.1530  0.3797  0.4066
  889YOPE   PO413016  10.369   1.017   5.565  0.0778 -0.3045 -0.0102
  889YOPE   GL113017  10.346   1.036   6.017 -0.0329 -0.1629 -0.0650
  889YOPE   GL213018  10.683   0.944   6.104  0.1327 -0.1089 -0.0358
  889YOPE   C1A13019  10.307   1.073   6.435  0.1046 -0.3498  0.1313
  889YOPE   D2A13020   9.997   1.015   6.697 -0.0545  0.0601  0.0690
  889YOPE   C3A13021   9.773   0.632   6.596  0.1369 -0.3129 -0.1717
  889YOPE   C4A13022   9.497   0.236   6.496  0.1745  0.0652  0.3143
  889YOPE   C1B13023  10.780   0.975   6.466  0.1927  0.2963 -0.1033
  889YOPE   C2B13024  10.855   0.687   6.816 -0.2055 -0.1077  0.3067
  889YOPE   D3B13025  11.311   0.585   6.887 -0.1456  0.0053  0.2580
  889YOPE   C4B13026  11.571   0.440   6.622 -0.0856 -0.1287  0.1126
  890YOPE   NH313027  11.829  13.531   5.164 -0.0960 -0.0825  0.1054
  890YOPE   PO413028  11.916  13.886   5.426  0.2337  0.0943 -0.0279
  890YOPE   GL113029  11.951  13.573   5.786 -0.0378 -0.2590  0.1395
  890YOPE   GL213030  12.129  13.808   5.924 -0.2746  0.0352 -0.3237
  890YOPE   C1A13031  12.092  13.309   6.051  0.0344 -0.0481 -0.1719
  890YOPE   D2A13032  11.959  13.179   6.478 -0.1134  0.0687 -0.0002
  890YOPE   C3A13033  11.552  13.363   6.527 -0.1327  0.2565  0.0635
  890YOPE   C4A13034  11.373  13.707   6.599 -0.4383 -0.0652 -0.2266
  890YOPE   C1B13035  12.235  13.717   6.387 -0.2365 -0.1868  0.1238
  890YOPE   C2B13036  11.982  13.616   6.761 -0.1958 -0.0402 -0.0763
  890YOPE   D3B13037  12.080  13.535   7.201  0.0836 -0.4563 -0.2063
  890YOPE   C4B13038  12.288  13.531   7.658  0.3758 -0.4511 -0.3199
  891YOPE   NH313039  17.188   0.969   6.240 -0.1812 -0.0968  0.4398
  891YOPE   PO413040  17.451   1.027   5.839  0.1162 -0.1418  0.0187
  891YOPE   GL113041  17.730   1.062   6.174 -0.0518 -0.1275  0.2712
  891YOPE   GL213042  17.633   1.258   6.399  0.0392 -0.0005  0.1461
  891YOPE   C1A13043  18.169   0.879   6.279 -0.0545 -0.1286  0.1832
  891YOPE   D2A13044  18.580   0.616   6.194  0.1172 -0.0892  0.0509
  891YOPE   C3A13045  18.965   0.715   6.444  0.0438 -0.1409  0.1664
  891YOPE   C4A13046  18.882   0.958   6.816 -0.1315 -0.2145 -0.0772
  891YOPE   C1B13047  17.828   1.344   6.739 -0.2876  0.2044  0.1739
  891YOPE   C2B13048  17.832   1.300   7.241  0.3585 -0.3252  0.0177
  891YOPE   D3B13049  18.039   1.228   7.550 -0.3538  0.2183 -0.3728
  891YOPE   C4B13050  18.212   1.371   7.893 -0.0545 -0.0165 -0.0793
  892YOPE   NH313051   1.852  12.291   5.756 -0.1422 -0.1254 -0.0435
  892YOPE   PO413052   2.123  11.960   5.889  0.3062 -0.3301  0.1624
  892YOPE   GL113053   2.389  11.785   6.173 -0.2183  0.1183 -0.0851
  892YOPE   GL213054   2.477  11.999   6.271 -0.3002  0.2010 -0.1061
  892YOPE   C1A13055   2.534  11.630   6.618  0.0593 -0.2610 -0.0357
  892YOPE   D2A13056   2.895  11.576   6.923  0.0680  0.2315  0.1022
  892YOPE   C3A13057   3.020  11.897   7.134 -0.0281 -0.0195  0.0489
  892YOPE   C4A13058   3.255  12.187   6.940 -0.3095  0.1520  0.2537
  892YOPE   C1B13059   2.660  12.424   6.409  0.0139  0.0188  0.0238
  892YOPE   C2B13060   2.970  12.514   6.712 -0.0016  0.3460  0.0089
  892YOPE   D3B13061   2.990  12.613   7.139 -0.3539 -0.1088 -0.0221
  892YOPE   C4B13062   3.127  12.741   7.518  0.0290  0.0773  0.0322
  893YOPE   NH313063   4.977   9.177   5.972 -0.0674 -0.0882  0.1364
  893YOPE   PO413064   4.861   8.758   6.013 -0.3177  0.3240  0.2628
  893YOPE   GL113065   4.607   8.867   6.399 -0.1161  0.1134  0.2812
  893YOPE   GL213066   4.504   9.137   6.328  0.0357  0.1654 -0.2275
  893YOPE   C1A13067   4.517   8.874   6.820 -0.1401 -0.2983 -0.3062
  893YOPE   D2A13068   4.347   9.259   7.021  0.0694 -0.2190 -0.0905
  893YOPE   C3A13069   4.309   9.238   7.455 -0.0634 -0.0289  0.0678
  893YOPE   C4A13070   4.256   8.922   7.738  0.1430 -0.0769  0.0929
  893YOPE   C1B13071   4.667   9.383   6.622 -0.0857 -0.2948  0.0522
  893YOPE   C2B13072   4.660   9.670   6.956  0.2192 -0.1018 -0.1093
  893YOPE   D3B13073   4.517   9.725   7.422  0.1647 -0.1626 -0.0615
  893YOPE   C4B13074   4.345   9.926   7.760  0.1327 -0.2265  0.0900
  894YOPE   NH313075   1.837  14.531   6.088 -0.1921  0.2999  0.6033
  894YOPE   PO413076   1.361  14.444   6.075 -0.0839  0.2120 -0.1255
  894YOPE   GL113077   1.451  14.263   6.441  0.1678 -0.0858 -0.4931
  894YOPE   GL213078   1.683  14.149   6.418  0.1220 -0.1206 -0.2940
  894YOPE   C1A13079   1.333  13.934   6.718  0.1024  0.0127  0.0581
  894YOPE   D2A13080   1.533  13.755   6.984  0.1349 -0.1205 -0.1958
  894YOPE   C3A13081   1.697  13.814   7.487  0.2605  0.2600  0.3630
  894YOPE   C4A13082   1.725  14.154   7.809  0.1185  0.0436  0.0220
  894YOPE   C1B13083   1.810  14.090   6.841 -0.0078  0.1594 -0.0571
  894YOPE   C2B13084   1.752  14.209   7.185  0.0387  0.0783 -0.1341
  894YOPE   D3B13085   1.993  14.494   7.399  0.2114 -0.0222  0.0256
  894YOPE   C4B13086   1.948  14.959   7.539 -0.0749  0.2825 -0.1699
  895YOPE   NH313087   2.247   5.003   5.914  0.2837 -0.0044  0.3119
  895YOPE   PO413088   2.614   4.825   5.965  0.0781  0.4157 -0.1571
  895YOPE   GL113089   2.590   4.798   6.403  0.2434  0.2280  0.0605
  895YOPE   GL213090   2.304   4.797   6.462 -0.2113 -0.1896 -0.2613
  895YOPE   C1A13091   2.710   5.099   6.692 -0.3288  0.3296  0.2708
  895YOPE   D2A13092   2.734   5.130   7.238 -0.2450  0.1066 -0.3165
  895YOPE   C3A13093   3.142   5.074   7.543  0.2077  0.3064 -0.0937
  895YOPE   C4A13094   3.120   5.031   8.066 -0.0355  0.2297 -0.0400
  895YOPE   C1B13095   2.380   4.831   6.916 -0.4659 -0.0390  0.2559
  895YOPE   C2B13096   2.434   4.703   7.252 -0.2256  0.1438 -0.3289
  895YOPE   D3B13097   2.261   4.816   7.663 -0.0554  0.1841 -0.2042
  895YOPE   C4B13098   1.958   4.517   7.913 -0.1859  0.0202 -0.0297
  896YOPE   NH313099   7.944   1.763   5.648  0.2089  0.0169  0.5233
  896YOPE   PO413100   7.746   2.054   5.823 -0.1339 -0.0455  0.0732
  896YOPE   GL113101   7.817   2.065   6.187 -0.0731  0.3497  0.1234
  896YOPE   GL213102   8.141   1.992   6.276  0.2778  0.0626 -0.0114
  896YOPE   C1A13103   7.849   2.135   6.645  0.0164 -0.1316  0.0415
  896YOPE   D2A13104   7.555   1.940   6.973  0.1036 -0.1843  0.2271
  896YOPE   C3A13105   7.633   1.485   7.069  0.0292  0.2902 -0.1362
  896YOPE   C4A13106   8.014   1.297   7.264 -0.1943 -0.0129 -0.2077
  896YOPE   C1B13107   8.520   2.165   6.415  0.0159 -0.0730  0.3095
  896YOPE   C2B13108   8.605   2.591   6.677  0.0473  0.3892 -0.3980
  896YOPE   D3B13109   8.631   2.947   7.000  0.0426 -0.2037  0.0766
  896YOPE   C4B13110   8.949   2.975   7.326  0.3096 -0.0284 -0.0692
  897YOPE   NH313111   4.023   0.736   5.699 -0.0095 -0.1954 -0.0505
  897YOPE   PO413112   4.435   0.458   5.755  0.1918 -0.0421 -0.0746
  897YOPE   GL113113   4.359   0.449   6.161 -0.0887  0.1528 -0.1311
  897YOPE   GL213114   4.478   0.205   6.399  0.0476  0.2347 -0.0754
  897YOPE   C1A13115   4.502   0.714   6.401 -0.0490  0.1805 -0.5172
  897YOPE   D2A13116   4.792   0.830   6.707 -0.0248  0.0555  0.1334
  897YOPE   C3A13117   4.870   0.840   7.133 -0.0150  0.0920  0.0691
  897YOPE   C4A13118   4.761   0.654   7.509 -0.0812  0.0573 -0.1332
  897YOPE   C1B13119   4.392   0.211   6.835  0.3316 -0.1024  0.4574
  897YOPE   C2B13120   4.297   0.017   7.171 -0.0497  0.0068  0.0508
  897YOPE   D3B13121   4.151  -0.083   7.508 -0.2947 -0.0637 -0.0140
  897YOPE   C4B13122   4.416  -0.142   7.846 -0.3527 -0.0270 -0.0853
  898YOPE   NH313123   1.629  13.354   6.017 -0.1633  0.0706  0.2863
  898YOPE   PO413124   1.870  12.947   5.849 -0.0082 -0.0585  0.1057
  898YOPE   GL113125   1.912  12.951   6.286  0.3529  0.0544 -0.2924
  898YOPE   GL213126   2.120  13.149   6.255 -0.0247 -0.0375 -0.3489
  898YOPE   C1A13127   1.895  12.774   6.776 -0.0020 -0.0012 -0.1048
  898YOPE   D2A13128   2.068  12.517   7.041  0.0853  0.0271 -0.0798
  898YOPE   C3A13129   1.832  12.262   7.358  0.1723  0.0554 -0.2209
  898YOPE   C4A13130   1.590  11.978   7.657  0.2935  0.0682 -0.0740
  898YOPE   C1B13131   2.288  13.273   6.607  0.1195  0.1880  0.0900
  898YOPE   C2B13132   2.321  13.166   6.941 -0.1002 -0.3387 -0.1317
  898YOPE   D3B13133   2.256  13.185   7.321  0.1106 -0.1620 -0.3173
  898YOPE   C4B13134   2.173  13.070   7.760 -0.0023 -0.2061 -0.1148
  899YOPE   NH313135   0.170  10.558   5.383 -0.0470  0.1616 -0.2358
  899YOPE   PO413136   0.363  10.806   5.752 -0.0118  0.0724 -0.0495
  899YOPE   GL113137   0.530  10.539   6.195  0.0174  0.1474  0.0515
  899YOPE   GL213138   0.293  10.612   6.480 -0.2298  0.2915 -0.2025
  899YOPE   C1A13139   0.607  10.262   6.542  0.0342 -0.0116  0.2510
  899YOPE   D2A13140   0.708  10.097   6.947 -0.3182 -0.2607 -0.1640
  899YOPE   C3A13141   0.382   9.997   7.249  0.0242 -0.1153  0.6106
  899YOPE   C4A13142   0.465  10.064   7.686 -0.1913  0.0657  0.3559
  899YOPE   C1B13143   0.391  10.558   6.907  0.1233  0.0686  0.0038
  899YOPE   C2B13144   0.577  10.427   7.364  0.1463 -0.2340 -0.2193
  899YOPE   D3B13145   0.940  10.563   7.612  0.1625  0.1476  0.2003
  899YOPE   C4B13146   1.286  10.685   7.555 -0.3672  0.2085 -0.1161
  900YOPE   NH313147   6.011  10.621   6.047 -0.0109  0.0765 -0.0304
  900YOPE   PO413148   5.673  10.866   6.120 -0.1046  0.1755  0.2104
  900YOPE   GL113149   5.538  10.598   6.437 -0.4353  0.0836 -0.0139
  900YOPE   GL213150   5.867  10.496   6.497 -0.1590 -0.0233 -0.2849
  900YOPE   C1A13151   5.200  10.421   6.601  0.2407  0.1407 -0.3602
  900YOPE   D2A13152   4.822  10.364   6.919  0.0408  0.0054  0.2475
  900YOPE   C3A13153   4.894  10.477   7.308  0.2921 -0.5079 -0.0875
  900YOPE   C4A13154   5.036  10.837   7.458  0.0100  0.0918  0.1604
  900YOPE   C1B13155   5.614  10.167   6.763 -0.0208  0.0115 -0.1132
  900YOPE   C2B13156   5.323  10.143   7.029  0.0289  0.1290 -0.2294
  900YOPE   D3B13157   4.902  10.003   7.236  0.0535  0.3466 -0.1474
  900YOPE   C4B13158   4.900   9.925   7.705 -0.0811 -0.1850 -0.0506
  901POPC   NC313159   3.086  13.922   5.341 -0.2314  0.2743  0.1669
  901POPC   PO413160   3.430  13.598   5.519 -0.1880  0.0824 -0.1277
  901POPC   GL113161   3.474  13.540   5.979  0.2935 -0.1171  0.0736
  901POPC   GL213162   3.571  13.869   6.235 -0.0002  0.4275 -0.1125
  901POPC   C1A13163   3.356  13.445   6.414 -0.0313 -0.0272 -0.2175
  901POPC   D2A13164   3.579  13.700   6.758  0.0297  0.0179  0.0168
  901POPC   C3A13165   3.707  13.569   7.201 -0.1347 -0.0577 -0.0523
  901POPC   C4A13166   3.651  13.485   7.558 -0.3463 -0.1670  0.0469
  901POPC   C1B13167   3.716  14.094   6.536 -0.1111 -0.2194 -0.1242
  901POPC   C2B13168   3.989  14.196   6.861 -0.0453 -0.2617 -0.1432
  901POPC   C3B13169   4.265  14.284   7.282 -0.1906 -0.1250  0.1497
  901POPC   C4B13170   4.336  14.303   7.710  0.0749 -0.1101 -0.1892
  902POPC   NC313171   4.637  17.169   6.038 -0.1655  0.0283  0.2070
  902POPC   PO413172   4.479  16.719   6.012  0.0184 -0.0463 -0.2740
  902POPC   GL113173   4.579  16.786   6.417 -0.2084  0.0999  0.4025
  902POPC   GL213174   4.884  16.812   6.401  0.0572 -0.3310  0.2395
  902POPC   C1A13175   4.417  16.915   6.796 -0.2874 -0.0680  0.3121
  902POPC   D2A13176   4.303  16.844   7.204 -0.0409  0.1613 -0.1479
  902POPC   C3A13177   3.930  16.851   7.391  0.0047 -0.1853 -0.0764
  902POPC   C4A13178   3.598  17.014   7.699 -0.1994 -0.2823  0.1972
  902POPC   C1B13179   5.053  16.629   6.850  0.2477  0.1623  0.2599
  902POPC   C2B13180   4.895  16.715   7.256  0.1526 -0.0687  0.2016
  902POPC   C3B13181   5.072  17.195   7.398  0.0989  0.1413  0.0514
  902POPC   C4B13182   5.338  17.549   7.258  0.2718 -0.1591  0.0763
  903POPC   NC313183   4.444   3.595   5.405 -0.4924 -0.0581  0.1891
  903POPC   PO413184   4.381   3.411   5.739  0.0432 -0.2869 -0.2230
  903POPC   GL113185   4.398   3.624   6.162  0.0805  0.1633  0.2022
  903POPC   GL213186   3.968   3.600   6.150 -0.0853 -0.0142  0.1932
  903POPC   C1A13187   4.504   3.602   6.535  0.2563  0.0386  0.0920
  903POPC   D2A13188   4.835   3.560   6.857  0.3453  0.1242 -0.1603
  903POPC   C3A13189   4.605   3.385   7.081 -0.1830 -0.0058  0.4504
  903POPC   C4A13190   4.397   3.274   7.511  0.0404  0.1722 -0.0969
  903POPC   C1B13191   3.562   3.323   6.207 -0.1785 -0.1466 -0.2026
  903POPC   C2B13192   3.264   3.313   6.313  0.3061  0.1703 -0.0461
  903POPC   C3B13193   2.930   3.469   6.518  0.0574  0.0871  0.1200
  903POPC   C4B13194   2.551   3.363   6.521  0.1263 -0.0393 -0.1400
  904POPC   NC313195   0.349   9.011   5.839 -0.3043  0.0470 -0.0163
  904POPC   PO413196   0.368   9.041   6.256  0.1100 -0.1376 -0.2140
  904POPC   GL113197   0.615   9.115   6.670 -0.2723 -0.4138 -0.1554
  904POPC   GL213198   0.863   8.863   6.748 -0.1467 -0.7145 -0.0828
  904POPC   C1A13199   0.617   9.118   7.149  0.1683  0.0747 -0.1288
  904POPC   D2A13200   0.643   9.176   7.597 -0.3557  0.0241 -0.4667
  904POPC   C3A13201   0.346   9.394   7.892  0.0984 -0.0923 -0.0414
  904POPC   C4A13202   0.219   9.073   8.177  0.1860 -0.0993 -0.1464
  904POPC   C1B13203   1.015   8.546   7.041  0.3552  0.2259  0.2377
  904POPC   C2B13204   1.343   8.353   7.260 -0.1233  0.0087  0.0703
  904POPC   C3B13205   1.593   8.057   7.544  0.2632  0.0509 -0.0337
  904POPC   C4B13206   1.735   7.867   7.869  0.0662  0.1147 -0.1834
  905POPC   NC313207   2.522   8.753   5.688  0.0070 -0.4912 -0.4417
  905POPC   PO413208   2.922   8.851   5.978  0.0528  0.2909 -0.3900
  905POPC   GL113209   3.075   8.754   6.396  0.0059  0.0638 -0.0980
  905POPC   GL213210   2.842   8.599   6.495  0.0500  0.3028  0.1269
  905POPC   C1A13211   3.403   8.817   6.773  0.1211  0.2702 -0.1360
  905POPC   D2A13212   3.625   8.737   7.241 -0.2216  0.1006  0.3785
  905POPC   C3A13213   4.082   8.775   7.096 -0.2518  0.1386 -0.0173
  905POPC   C4A13214   4.511   8.748   7.361  0.0826 -0.0698  0.2118
  905POPC   C1B13215   3.031   8.393   6.780  0.1698 -0.3861 -0.4923
  905POPC   C2B13216   3.165   8.561   7.130 -0.2285  0.4815 -0.3900
  905POPC   C3B13217   3.173   8.937   7.305  0.2048 -0.1475 -0.1432
  905POPC   C4B13218   3.318   9.186   7.589  0.1574  0.1393  0.1846
  906POPC   NC313219  17.833  14.247   5.938 -0.0276  0.2119  0.1461
  906POPC   PO413220  18.204  14.437   6.046  0.1743  0.5760  0.0838
  906POPC   GL113221  18.090  14.548   6.393  0.1373 -0.2686 -0.3777
  906POPC   GL213222  18.165  14.861   6.374  0.0614 -0.0823  0.0246
  906POPC   C1A13223  18.213  14.572   6.849  0.1961  0.1916 -0.1277
  906POPC   D2A13224  18.307  14.670   7.272 -0.2512 -0.2429 -0.1376
  906POPC   C3A13225  18.330  14.923   7.738 -0.1735 -0.3619 -0.1683
  906POPC   C4A13226  18.260  15.027   8.130  0.0060 -0.0376 -0.2354
  906POPC   C1B13227  17.817  14.908   6.781 -0.0241 -0.0499 -0.0572
  906POPC   C2B13228  17.823  14.737   7.139  0.1839 -0.0006  0.1183
  906POPC   C3B13229  17.967  14.350   7.343  0.1613 -0.0291 -0.1562
  906POPC   C4B13230  17.953  14.125   7.704 -0.1763 -0.2984  0.0462
  907POPC   NC313231   3.500  10.522   5.688  0.1660 -0.0131 -0.0450
  907POPC   PO413232   3.391  10.936   5.862 -0.0438 -0.1871 -0.1027
  907POPC   GL113233   3.309  10.608   6.162 -0.1477  0.0376 -0.0479
  907POPC   GL213234   3.589  10.422   6.131 -0.3792 -0.3672 -0.4189
  907POPC   C1A13235   3.237  10.546   6.640  0.1623 -0.1407 -0.2591
  907POPC   D2A13236   3.212  10.459   7.117  0.0476 -0.0618  0.2588
  907POPC   C3A13237   3.035  10.729   7.357 -0.0160 -0.1653 -0.0039
  907POPC   C4A13238   3.010  10.910   7.728  0.2225  0.1494 -0.0308
  907POPC   C1B13239   3.696  10.477   6.521 -0.2629  0.0509  0.3049
  907POPC   C2B13240   3.657  10.755   6.929  0.0974  0.2897  0.1172
  907POPC   C3B13241   3.583  10.669   7.391  0.0608  0.0591  0.0674
  907POPC   C4B13242   3.596  10.522   7.785  0.3033 -0.1208  0.2402
  908POPC   NC313243   8.343  13.829   5.372  0.1346  0.1135 -0.0024
  908POPC   PO413244   8.218  13.380   5.449  0.2909 -0.0480 -0.0966
  908POPC   GL113245   8.140  13.643   5.867  0.5163  0.1158 -0.2900
  908POPC   GL213246   7.881  13.707   5.980  0.1614 -0.0575 -0.1752
  908POPC   C1A13247   8.538  13.788   6.206  0.1019  0.1040  0.1382
  908POPC   D2A13248   8.884  13.945   6.521  0.2133  0.2866 -0.2224
  908POPC   C3A13249   8.689  14.062   6.833  0.0135  0.1086  0.1035
  908POPC   C4A13250   8.672  14.401   7.124  0.1897 -0.1036 -0.1173
  908POPC   C1B13251   7.543  13.527   6.285  0.2027  0.2148  0.5598
  908POPC   C2B13252   7.702  13.189   6.652  0.0974 -0.1608 -0.5743
  908POPC   C3B13253   7.729  12.982   7.014  0.1725 -0.1132  0.1471
  908POPC   C4B13254   7.894  12.858   7.435 -0.0851 -0.1213 -0.0271
  909POPC   NC313255  14.859   7.656   5.404 -0.0593 -0.0625  0.2896
  909POPC   PO413256  15.007   7.346   5.883 -0.2314  0.1162 -0.0899
  909POPC   GL113257  15.249   7.685   6.154 -0.1407  0.1913  0.0182
  909POPC   GL213258  15.414   7.888   6.245  0.1006 -0.2997 -0.1897
  909POPC   C1A13259  15.191   7.670   6.683 -0.0533 -0.1414 -0.2925
  909POPC   D2A13260  15.397   7.673   7.008  0.1133  0.0448 -0.2296
  909POPC   C3A13261  15.298   7.559   7.474  0.0672  0.0531 -0.1923
  909POPC   C4A13262  14.999   7.787   7.646  0.1828 -0.1350 -0.1133
  909POPC   C1B13263  15.426   8.126   6.727  0.0654  0.0494  0.0282
  909POPC   C2B13264  15.317   8.190   7.094 -0.3740  0.0642 -0.0246
  909POPC   C3B13265  14.964   8.250   7.307 -0.4518 -0.3392  0.1131
  909POPC   C4B13266  14.808   8.264   7.724 -0.1706  0.1941  0.2843
  910POPC   NC313267  18.340  12.281   5.805 -0.1687  0.0076 -0.1715
  910POPC   PO413268  18.730  12.243   5.993 -0.0133 -0.0503 -0.0025
  910POPC   GL113269  18.483  12.161   6.345  0.1028 -0.2341  0.3691
  910POPC   GL213270  18.503  11.891   6.383  0.1511  0.0388 -0.0292
  910POPC   C1A13271  18.481  12.340   6.811 -0.0866 -0.1547 -0.1211
  910POPC   D2A13272  18.528  12.218   7.140  0.1280  0.0239  0.1310
  910POPC   C3A13273  18.696  12.462   7.594  0.1633  0.1503 -0.1941
  910POPC   C4A13274  19.098  12.692   7.877  0.0755 -0.1657  0.2129
  910POPC   C1B13275  18.400  11.826   6.835  0.0714 -0.0140  0.0300
  910POPC   C2B13276  18.502  11.700   7.288 -0.0707  0.0260 -0.1365
  910POPC   C3B13277  18.412  11.605   7.726  0.1767 -0.2162  0.1304
  910POPC   C4B13278  18.075  11.825   7.899  0.1781 -0.0879 -0.4804
  911POPC   NC313279  10.876   0.901   5.667 -0.0457 -0.0077 -0.2726
  911POPC   PO413280  10.941   1.225   5.476  0.0714 -0.1331 -0.2803
  911POPC   GL113281  11.142   1.321   5.910 -0.0103 -0.0807 -0.0089
  911POPC   GL213282  11.380   1.472   6.086 -0.0546  0.0044  0.2224
  911POPC   C1A13283  11.173   1.224   6.404  0.3797  0.2375 -0.3924
  911POPC   D2A13284  11.231   1.056   6.825  0.1528  0.2367  0.0707
  911POPC   C3A13285  11.026   0.994   7.191 -0.3065  0.3585 -0.1309
  911POPC   C4A13286  10.642   1.262   7.341 -0.1406 -0.2255  0.0911
  911POPC   C1B13287  11.601   1.445   6.487  0.3360  0.1257  0.0277
  911POPC   C2B13288  11.497   1.521   6.895  0.3018 -0.3453 -0.0189
  911POPC   C3B13289  11.356   1.885   7.175  0.0098 -0.3018  0.1236
  911POPC   C4B13290  11.034   2.212   7.224  0.0688 -0.3179 -0.1489
  912POPC   NC313291  13.558   6.645   6.018  0.1321  0.0380 -0.0836
  912POPC   PO413292  13.803   6.270   6.109 -0.4237  0.1612 -0.1895
  912POPC   GL113293  13.976   6.100   6.545 -0.1070  0.3102 -0.3186
  912POPC   GL213294  14.239   6.403   6.635 -0.0992  0.1682  0.2926
  912POPC   C1A13295  13.983   6.011   7.049 -0.0925 -0.0924  0.0172
  912POPC   D2A13296  13.975   5.995   7.384  0.1488 -0.2155  0.2784
  912POPC   C3A13297  13.633   5.879   7.533  0.1580 -0.2284  0.0051
  912POPC   C4A13298  13.414   5.595   7.762 -0.0779  0.1540  0.1250
  912POPC   C1B13299  14.240   6.410   7.094  0.0851 -0.3443 -0.0087
  912POPC   C2B13300  14.240   6.443   7.510  0.1102 -0.0124 -0.3509
  912POPC   C3B13301  14.187   6.450   7.950  0.0881  0.0418  0.1919
  912POPC   C4B13302  14.207   6.437   8.425  0.2352  0.0455 -0.4261
  913POPC   NC313303   5.964  16.136   5.742 -0.2842 -0.2221  0.1814
  913POPC   PO413304   6.490  16.098   5.787 -0.3699  0.2045  0.0993
  913POPC   GL113305   6.265  16.244   6.179 -0.0510  0.1827  0.1729
  913POPC   GL213306   5.977  16.387   6.151 -0.0316 -0.0491  0.0421
  913POPC   C1A13307   5.829  16.121   6.506  0.2128 -0.0398 -0.0319
  913POPC   D2A13308   5.895  16.091   6.922 -0.2170  0.1011  0.1505
  913POPC   C3A13309   6.296  15.993   7.087  0.1290  0.0059  0.1906
  913POPC   C4A13310   6.761  15.904   7.205  0.3177  0.2704 -0.3837
  913POPC   C1B13311   5.941  16.646   6.548  0.0964 -0.2287 -0.4486
  913POPC   C2B13312   5.661  16.554   6.837  0.0881 -0.0070  0.0455
  913POPC   C3B13313   5.612  16.311   7.239  0.0135 -0.0869  0.1212
  913POPC   C4B13314   5.555  15.944   7.581 -0.0865 -0.1942 -0.0482
  914POPC   NC313315  14.242   0.046   5.594 -0.0808  0.0895 -0.0673
  914POPC   PO413316  14.176   0.108   5.976 -0.2594 -0.3092  0.1866
  914POPC   GL113317  14.083  -0.205   6.266  0.1067 -0.0166  0.1812
  914POPC   GL213318  14.233  -0.339   6.549 -0.0810 -0.0016  0.0570
  914POPC   C1A13319  13.776  -0.436   6.427  0.3961  0.1204  0.3245
  914POPC   D2A13320  13.349  -0.582   6.615  0.0081 -0.1581  0.2861
  914POPC   C3A13321  13.324  -0.393   6.939  0.0837 -0.1860 -0.1396
  914POPC   C4A13322  13.315  -0.544   7.350 -0.1373 -0.3967 -0.0675
  914POPC   C1B13323  13.987  -0.507   6.857  0.2476 -0.1376 -0.1163
  914POPC   C2B13324  13.821  -0.439   7.237  0.1413 -0.0304  0.1711
  914POPC   C3B13325  13.707  -0.408   7.653  0.0409  0.0728  0.1921
  914POPC   C4B13326  13.846  -0.574   7.918 -0.1586  0.1151 -0.0589
  915POPC   NC313327   0.878  13.270   5.390  0.1029  0.1378  0.2546
  915POPC   PO413328   0.831  13.128   5.768  0.1827 -0.2884  0.2407
  915POPC   GL113329   0.962  12.890   6.108  0.2505 -0.3073  0.1555
  915POPC   GL213330   1.325  12.971   6.306 -0.2400 -0.1087  0.0629
  915POPC   C1A13331   1.042  12.524   6.361 -0.1185  0.4483 -0.2839
  915POPC   D2A13332   0.978  12.285   6.655 -0.2803 -0.2434 -0.0158
  915POPC   C3A13333   0.990  12.539   7.006 -0.0189  0.0771  0.3338
  915POPC   C4A13334   0.949  12.621   7.500  0.0616 -0.0642 -0.0172
  915POPC   C1B13335   1.383  12.888   6.752 -0.0650  0.4954  0.2987
  915POPC   C2B13336   1.349  12.834   7.154  0.1489 -0.0186  0.0479
  915POPC   C3B13337   1.312  13.007   7.452 -0.2698 -0.0657  0.0870
  915POPC   C4B13338   0.900  13.113   7.705  0.0904 -0.1645 -0.2734
  916POPC   NC313339  15.297  14.065   5.375  0.0431 -0.0520 -0.1231
  916POPC   PO413340  15.031  14.118   5.762  0.1453 -0.0768  0.0029
  916POPC   GL113341  15.020  14.258   6.158 -0.0730  0.1145  0.2058
  916POPC   GL213342  14.692  14.298   6.153  0.0566  0.0843  0.0589
  916POPC   C1A13343  15.134  14.542   6.429  0.1222 -0.0151 -0.1481
  916POPC   D2A13344  15.548  14.657   6.728  0.0723 -0.1552  0.1690
  916POPC   C3A13345  15.761  14.866   7.164 -0.0433  0.1329  0.0733
  916POPC   C4A13346  15.592  15.066   7.583  0.1452 -0.1610  0.0518
  916POPC   C1B13347  14.609  14.237   6.612 -0.2646  0.1235 -0.0273
  916POPC   C2B13348  14.732  14.486   6.794 -0.0140 -0.2085 -0.0907
  916POPC   C3B13349  14.608  14.549   7.214  0.2443 -0.0982  0.1793
  916POPC   C4B13350  14.755  14.511   7.597 -0.1716  0.3921 -0.0956
  917POPC   NC313351   6.092   8.451   6.000 -0.2650 -0.1807  0.1667
  917POPC   PO413352   5.716   8.565   5.868  0.2924 -0.3025 -0.4049
  917POPC   GL113353   5.694   8.389   6.353  0.1062 -0.2874 -0.1143
  917POPC   GL213354   5.963   8.641   6.453 -0.0078  0.1213  0.3805
  917POPC   C1A13355   5.532   8.541   6.730 -0.0966  0.2658  0.3541
  917POPC   D2A13356   5.311   8.577   7.207  0.1675 -0.3371 -0.0681
  917POPC   C3A13357   5.359   8.914   7.468 -0.0587 -0.0898  0.1355
  917POPC   C4A13358   5.759   8.875   7.724  0.1280 -0.0290 -0.1668
  917POPC   C1B13359   6.039   9.048   6.651 -0.1958 -0.1471 -0.2025
  917POPC   C2B13360   5.893   9.358   6.912  0.1570 -0.0638  0.3412
  917POPC   C3B13361   5.599   9.619   7.022 -0.0559 -0.2461  0.0540
  917POPC   C4B13362   5.279   9.671   7.412 -0.1052  0.0053 -0.0975
  918POPC   NC313363   1.322   1.969   5.561 -0.0565  0.0072  0.1428
  918POPC   PO413364   1.190   2.391   5.727 -0.1277  0.4213 -0.1725
  918POPC   GL113365   1.172   2.303   6.186  0.1429 -0.3096  0.0936
  918POPC   GL213366   0.984   2.519   6.370  0.1587  0.0458  0.2853
  918POPC   C1A13367   1.101   1.953   6.451 -0.1549  0.0436  0.2477
  918POPC   D2A13368   1.349   1.737   6.742  0.0593 -0.0487  0.1640
  918POPC   C3A13369   1.151   1.690   7.155 -0.1328  0.1940  0.1316
  918POPC   C4A13370   1.244   1.871   7.555  0.2620 -0.1582 -0.1357
  918POPC   C1B13371   0.988   2.357   6.743 -0.1940 -0.2481 -0.1710
  918POPC   C2B13372   1.081   2.230   7.153  0.0583 -0.0045  0.2986
  918POPC   C3B13373   0.928   2.206   7.564 -0.0016  0.1663  0.2084
  918POPC   C4B13374   0.614   2.079   7.906  0.0604 -0.1881  0.2154
  919POPC   NC313375  14.146  13.808   5.233  0.0666  0.0412 -0.3268
  919POPC   PO413376  14.490  13.578   5.467  0.1646 -0.0196 -0.0689
  919POPC   GL113377  14.558  13.464   5.918 -0.2321 -0.0616  0.1406
  919POPC   GL213378  14.636  13.837   5.920 -0.3159  0.1135 -0.1633
  919POPC   C1A13379  14.591  13.364   6.380  0.0622 -0.1424  0.1071
  919POPC   D2A13380  14.258  13.342   6.700 -0.1631  0.2852  0.0860
  919POPC   C3A13381  14.359  13.515   7.121 -0.1777 -0.0438  0.1876
  919POPC   C4A13382  14.299  13.367   7.547  0.1918 -0.1397 -0.0352
  919POPC   C1B13383  14.383  13.926   6.221 -0.2408  0.2402 -0.1500
  919POPC   C2B13384  14.242  13.881   6.533 -0.2251 -0.2115 -0.2024
  919POPC   C3B13385  14.003  13.882   6.895 -0.1954 -0.2147 -0.1750
  919POPC   C4B13386  14.080  13.791   7.391 -0.1607 -0.4052  0.0325
  920POPC   NC313387  14.999   9.214   5.798 -0.1715  0.1430 -0.0937
  920POPC   PO413388  14.643   9.321   5.954  0.2800 -0.1262  0.1329
  920POPC   GL113389  14.396   9.394   6.224  0.0298  0.0417  0.0331
  920POPC   GL213390  14.475   9.078   6.436 -0.2583 -0.0901  0.0286
  920POPC   C1A13391  14.291   9.571   6.665  0.2773  0.0128  0.2031
  920POPC   D2A13392  14.077   9.555   7.086 -0.0447 -0.0231  0.1483
  920POPC   C3A13393  14.424   9.440   7.421  0.1121 -0.0596  0.0875
  920POPC   C4A13394  14.624   9.668   7.722  0.2422  0.0866  0.2268
  920POPC   C1B13395  14.324   9.151   6.828  0.0503 -0.1994 -0.0975
  920POPC   C2B13396  14.088   9.083   7.187  0.2292  0.0480 -0.1526
  920POPC   C3B13397  13.878   9.255   7.508 -0.1986 -0.1403  0.0357
  920POPC   C4B13398  13.694   9.102   7.878 -0.1913 -0.2100 -0.4079
  921POPC   NC313399   9.726  13.175   4.983 -0.4450  0.1406 -0.1309
  921POPC   PO413400   9.947  13.090   5.279 -0.2014  0.1027  0.2358
  921POPC   GL113401  10.039  13.294   5.641 -0.1526 -0.0093 -0.0690
  921POPC   GL213402  10.352  13.189   5.758  0.4751  0.0708  0.1907
  921POPC   C1A13403   9.699  13.295   6.067  0.1238  0.3030  0.0123
  921POPC   D2A13404   9.392  13.569   6.090 -0.1279  0.0373  0.0707
  921POPC   C3A13405   8.988  13.464   6.146 -0.0323 -0.2969  0.0806
  921POPC   C4A13406   8.594  13.229   6.271  0.0060  0.3591 -0.0387
  921POPC   C1B13407  10.171  13.400   6.114 -0.2082  0.0130  0.2519
  921POPC   C2B13408  10.120  13.170   6.554 -0.0402 -0.2232 -0.3448
  921POPC   C3B13409  10.157  13.153   6.988  0.2660  0.0363  0.2833
  921POPC   C4B13410  10.358  13.292   7.297  0.2474 -0.1344 -0.2052
  922POPC   NC313411  10.178  11.986   5.280  0.0881  0.0126  0.0274
  922POPC   PO413412  10.542  12.281   5.310  0.2892 -0.0840 -0.1293
  922POPC   GL113413  10.553  12.427   5.720 -0.2912  0.0148  0.0096
  922POPC   GL213414  10.572  12.766   5.824 -0.0687 -0.1210 -0.0138
  922POPC   C1A13415  10.819  12.438   6.134 -0.2914 -0.1685 -0.1237
  922POPC   D2A13416  11.099  12.479   6.516  0.1172  0.0286  0.0391
  922POPC   C3A13417  10.956  12.559   6.903  0.2074 -0.0143  0.2573
  922POPC   C4A13418  10.797  12.823   7.290 -0.0328 -0.0444  0.0431
  922POPC   C1B13419  10.281  12.606   6.110 -0.1038 -0.1903  0.0849
  922POPC   C2B13420  10.148  12.582   6.453 -0.2251  0.1395 -0.2399
  922POPC   C3B13421   9.957  12.659   6.778  0.2071 -0.0813 -0.0590
  922POPC   C4B13422   9.858  12.720   7.157  0.2581 -0.1811 -0.0329
  923POPC   NC313423   5.687   1.065   5.929 -0.0435  0.1364 -0.2183
  923POPC   PO413424   5.670   1.494   5.702  0.0184 -0.0221  0.0008
  923POPC   GL113425   5.753   1.606   6.093 -0.0023 -0.0152 -0.0508
  923POPC   GL213426   5.634   2.071   6.004 -0.1975  0.1347  0.2733
  923POPC   C1A13427   5.876   1.395   6.518  0.3280 -0.1394 -0.2439
  923POPC   D2A13428   6.017   1.401   6.963 -0.3838 -0.0815 -0.0750
  923POPC   C3A13429   6.055   1.372   7.354  0.1071  0.1287  0.1264
  923POPC   C4A13430   5.735   1.111   7.674 -0.0877  0.2427  0.0488
  923POPC   C1B13431   5.492   1.886   6.440 -0.4876  0.0124  0.1534
  923POPC   C2B13432   5.574   1.669   6.922 -0.0786 -0.0105  0.2647
  923POPC   C3B13433   5.555   1.487   7.387  0.3197 -0.1521 -0.0401
  923POPC   C4B13434   5.868   1.584   7.793  0.1446  0.1959  0.0053
  924POPC   NC313435   5.318  13.799   5.710  0.1571 -0.0882  0.3273
  924POPC   PO413436   5.640  13.700   6.038  0.1845 -0.0617 -0.0031
  924POPC   GL113437   5.945  13.789   6.225  0.3460  0.0303 -0.1934
  924POPC   GL213438   6.206  13.720   6.102 -0.0679  0.0240 -0.2498
  924POPC   C1A13439   6.297  13.935   6.516  0.0890  0.2294 -0.0668
  924POPC   D2A13440   6.601  14.045   6.842  0.0621  0.0739  0.2987
  924POPC   C3A13441   6.542  14.301   7.185  0.1868 -0.5431  0.2165
  924POPC   C4A13442   6.147  14.373   7.439 -0.0522  0.1579  0.2031
  924POPC   C1B13443   6.552  13.541   6.373 -0.0039 -0.0462  0.2932
  924POPC   C2B13444   7.006  13.601   6.483  0.1392 -0.1794  0.1163
  924POPC   C3B13445   7.382  13.662   6.794 -0.1559  0.0433 -0.1193
  924POPC   C4B13446   7.749  13.527   7.054  0.0574  0.0996 -0.1016
  925POPC   NC313447   9.873   3.452   6.057 -0.0117 -0.0853 -0.1158
  925POPC   PO413448   9.543   3.518   5.739 -0.0265 -0.1136  0.0544
  925POPC   GL113449   9.406   3.482   6.155 -0.2930 -0.1749  0.1256
  925POPC   GL213450   9.468   3.153   6.152  0.1753 -0.1777 -0.2758
  925POPC   C1A13451   9.493   3.526   6.640 -0.2168 -0.2560 -0.2624
  925POPC   D2A13452   9.475   3.817   6.956  0.4565  0.1108  0.0549
  925POPC   C3A13453   9.772   3.870   7.332 -0.0678 -0.1159  0.0442
  925POPC   C4A13454  10.075   3.970   7.656  0.0531  0.0395 -0.0458
  925POPC   C1B13455   9.185   3.097   6.415  0.0259  0.0243  0.1631
  925POPC   C2B13456   8.986   3.207   6.753 -0.1155 -0.2040  0.0616
  925POPC   C3B13457   9.010   3.670   6.889 -0.2331  0.1021  0.0386
  925POPC   C4B13458   9.048   4.047   7.286 -0.1219  0.4111  0.3174
  926POPC   NC313459  10.043   5.012   5.006 -0.0879 -0.0700 -0.0629
  926POPC   PO413460   9.950   5.192   5.477 -0.0202 -0.1833 -0.3397
  926POPC   GL113461   9.899   5.461   5.937  0.1660 -0.2909  0.1526
  926POPC   GL213462   9.559   5.508   6.023  0.2742  0.2706  0.2112
  926POPC   C1A13463   9.851   5.634   6.358 -0.1092  0.1015 -0.0925
  926POPC   D2A13464  10.083   5.865   6.620  0.2509 -0.3477  0.0959
  926POPC   C3A13465  10.190   5.811   7.121 -0.1999 -0.1607  0.2843
  926POPC   C4A13466  10.177   5.448   7.371  0.1787  0.0067 -0.3290
  926POPC   C1B13467   9.525   5.228   6.390  0.1445  0.1233 -0.0819
  926POPC   C2B13468   9.511   5.225   6.744 -0.1524 -0.2432 -0.3099
  926POPC   C3B13469   9.697   5.499   7.179  0.0252 -0.0662  0.1868
  926POPC   C4B13470   9.352   5.513   7.481  0.0592 -0.2082 -0.1923
  927POPC   NC313471   1.958   5.059   6.272 -0.2219  0.1704  0.1665
  927POPC   PO413472   1.964   4.678   6.156 -0.0545 -0.0380  0.2073
  927POPC   GL113473   1.945   4.476   6.523 -0.1602  0.2078 -0.1080
  927POPC   GL213474   1.897   4.227   6.351 -0.3708 -0.2605 -0.0704
  927POPC   C1A13475   2.062   4.424   6.914  0.0019 -0.0321 -0.1089
  927POPC   D2A13476   2.106   4.091   7.207  0.2150 -0.1524 -0.0474
  927POPC   C3A13477   2.264   4.297   7.626 -0.0249 -0.0584 -0.0523
  927POPC   C4A13478   2.494   4.467   7.966 -0.0253  0.1302 -0.1053
  927POPC   C1B13479   1.755   3.996   6.809  0.0312 -0.2608  0.0260
  927POPC   C2B13480   1.637   3.998   7.251 -0.1003 -0.3447 -0.4424
  927POPC   C3B13481   1.435   3.669   7.497  0.0653 -0.2437  0.0167
  927POPC   C4B13482   1.245   3.461   7.843 -0.1323  0.0793  0.0481
  928POPC   NC313483  11.769   7.499   5.743  0.2594 -0.1587 -0.0972
  928POPC   PO413484  11.964   7.841   5.868  0.2648 -0.2548  0.3075
  928POPC   GL113485  11.877   7.789   6.243  0.0822  0.3788  0.4288
  928POPC   GL213486  11.619   7.991   6.367  0.1959 -0.1008  0.1482
  928POPC   C1A13487  11.689   7.607   6.608 -0.0021 -0.1618  0.2994
  928POPC   D2A13488  11.789   7.295   6.933 -0.1033  0.2248 -0.2515
  928POPC   C3A13489  11.919   7.312   7.348 -0.1342 -0.1016 -0.1839
  928POPC   C4A13490  12.139   7.324   7.760  0.1010 -0.0826 -0.0077
  928POPC   C1B13491  11.811   7.992   6.877  0.3571  0.1095  0.3386
  928POPC   C2B13492  11.887   8.103   7.275 -0.0908  0.1958  0.1174
  928POPC   C3B13493  11.786   8.240   7.603 -0.0018  0.1146 -0.5182
  928POPC   C4B13494  11.737   8.046   8.057 -0.1026  0.1114  0.0220
  929POPC   NC313495  10.414   2.849   5.771  0.3802 -0.0710  0.0329
  929POPC   PO413496  10.288   3.199   5.947  0.0245  0.0683  0.1678
  929POPC   GL113497  10.007   2.986   6.227  0.0800  0.0767 -0.4098
  929POPC   GL213498   9.885   3.242   6.478  0.0816  0.2015 -0.1024
  929POPC   C1A13499   9.961   2.660   6.471 -0.1673 -0.2634 -0.0764
  929POPC   D2A13500  10.116   2.294   6.658 -0.1654  0.2918 -0.3013
  929POPC   C3A13501   9.980   2.164   7.149 -0.0971  0.1474 -0.2224
  929POPC   C4A13502   9.799   1.980   7.557 -0.0951  0.0806 -0.2876
  929POPC   C1B13503   9.609   3.011   6.636 -0.2399  0.0677 -0.2442
  929POPC   C2B13504   9.356   2.793   6.925 -0.0206  0.2243  0.1060
  929POPC   C3B13505   9.016   2.537   6.944  0.1531  0.0982  0.2652
  929POPC   C4B13506   8.662   2.412   7.256  0.1981 -0.3663 -0.2267
  930POPC   NC313507   1.972   7.351   5.627  0.4375  0.1846 -0.0276
  930POPC   PO413508   2.044   7.241   6.059 -0.1523 -0.3301  0.1551
  930POPC   GL113509   1.937   7.113   6.485 -0.0543 -0.1977  0.1614
  930POPC   GL213510   2.305   7.193   6.562  0.0934  0.0404  0.0266
  930POPC   C1A13511   1.969   6.840   6.862  0.0853  0.3641  0.0983
  930POPC   D2A13512   2.082   6.695   7.259  0.0310  0.3488 -0.2920
  930POPC   C3A13513   2.231   6.268   7.354 -0.0530 -0.2153 -0.0618
  930POPC   C4A13514   2.215   5.780   7.426 -0.1872  0.0779 -0.2874
  930POPC   C1B13515   2.425   7.181   6.960  0.0159  0.1149  0.0541
  930POPC   C2B13516   2.488   7.011   7.370 -0.2230  0.2001 -0.1269
  930POPC   C3B13517   2.619   7.128   7.696 -0.0689  0.1682  0.1318
  930POPC   C4B13518   2.471   7.282   8.104 -0.0934 -0.0516  0.0053
  931POPC   NC313519  17.016   1.837   5.791  0.2685 -0.0848  0.1140
  931POPC   PO413520  16.864   1.798   6.188  0.0687 -0.1702  0.0402
  931POPC   GL113521  17.032   1.711   6.584 -0.3016 -0.1297 -0.0987
  931POPC   GL213522  16.935   1.323   6.534 -0.3320 -0.0302  0.0179
  931POPC   C1A13523  16.946   1.605   7.048 -0.0772 -0.2391 -0.0674
  931POPC   D2A13524  16.713   1.797   7.424  0.2519 -0.1180  0.2065
  931POPC   C3A13525  16.544   2.152   7.303  0.3516  0.0401 -0.2004
  931POPC   C4A13526  16.280   2.446   7.165  0.0492  0.1787  0.3837
  931POPC   C1B13527  17.292   1.316   6.840  0.4573  0.0954 -0.0826
  931POPC   C2B13528  17.282   1.116   7.274 -0.0322  0.0118 -0.2145
  931POPC   C3B13529  17.572   1.018   7.605  0.1946  0.2688 -0.0217
  931POPC   C4B13530  17.718   1.236   7.971  0.0524 -0.0222  0.1061
  932POPC   NC313531   8.636   2.467   5.614 -0.0908 -0.3814  0.0538
  932POPC   PO413532   8.286   2.774   5.307 -0.0531  0.0769  0.0183
  932POPC   GL113533   8.294   2.804   5.747 -0.1593  0.0618  0.2072
  932POPC   GL213534   8.437   3.001   5.927  0.2163  0.1629  0.1911
  932POPC   C1A13535   8.115   2.620   6.132 -0.0005 -0.0945 -0.0441
  932POPC   D2A13536   8.060   2.568   6.522 -0.1489  0.1125 -0.0007
  932POPC   C3A13537   8.201   2.744   6.924 -0.1813 -0.1900  0.2011
  932POPC   C4A13538   8.168   2.540   7.303 -0.4440 -0.2743  0.2164
  932POPC   C1B13539   8.417   3.376   6.192  0.1475  0.3251 -0.3766
  932POPC   C2B13540   8.480   3.489   6.604 -0.2355  0.0154 -0.2779
  932POPC   C3B13541   8.597   3.438   7.098 -0.0319 -0.4856 -0.0414
  932POPC   C4B13542   8.402   3.505   7.522 -0.1421  0.0836  0.1405
  933POPC   NC313543   9.691  11.751   5.276  0.0976  0.1936  0.0929
  933POPC   PO413544  10.006  11.589   5.559  0.0358 -0.2335  0.1519
  933POPC   GL113545  10.065  11.605   5.884  0.1300 -0.4772  0.0094
  933POPC   GL213546  10.402  11.630   5.951 -0.0500 -0.1212  0.0318
  933POPC   C1A13547  10.045  11.912   6.269 -0.0323  0.2524  0.2414
  933POPC   D2A13548  10.237  11.923   6.674 -0.0477  0.0629  0.2539
  933POPC   C3A13549  10.070  12.248   6.998  0.1186  0.0520  0.0977
  933POPC   C4A13550  10.175  12.320   7.412  0.3226 -0.1731 -0.1385
  933POPC   C1B13551  10.644  11.664   6.320  0.1335 -0.4656  0.0380
  933POPC   C2B13552  10.586  11.620   6.778 -0.2036 -0.1040  0.0618
  933POPC   C3B13553  10.421  11.718   7.201 -0.1489  0.1018  0.1164
  933POPC   C4B13554  10.334  11.857   7.650  0.3631 -0.1332  0.0542
  934POPC   NC313555   7.288  10.569   5.560  0.3134 -0.1841 -0.0883
  934POPC   PO413556   7.794  10.496   5.638 -0.0076 -0.1136 -0.0278
  934POPC   GL113557   7.688  10.485   5.997 -0.1337  0.1022 -0.1748
  934POPC   GL213558   7.441  10.519   6.139  0.0873 -0.1360  0.4127
  934POPC   C1A13559   7.720  10.157   6.272  0.0546 -0.0201  0.2622
  934POPC   D2A13560   7.564   9.744   6.506  0.2146  0.2039  0.3373
  934POPC   C3A13561   7.799   9.321   6.433  0.2159 -0.1959  0.1487
  934POPC   C4A13562   8.179   9.054   6.511  0.1314  0.1669 -0.0030
  934POPC   C1B13563   7.506  10.689   6.523  0.4114 -0.1608  0.1186
  934POPC   C2B13564   7.490  10.705   6.851 -0.1117  0.1633  0.0524
  934POPC   C3B13565   7.597  10.692   7.295 -0.1568  0.2228 -0.0137
  934POPC   C4B13566   7.828  10.561   7.599 -0.0886  0.1210  0.1939
  935POPC   NC313567  13.091  10.531   5.716 -0.0210  0.2064  0.0162
  935POPC   PO413568  13.436  10.369   5.872 -0.1887  0.0579 -0.0270
  935POPC   GL113569  13.341  10.597   6.213 -0.1468 -0.2081  0.0868
  935POPC   GL213570  13.058  10.670   6.226 -0.1539  0.1611  0.0546
  935POPC   C1A13571  13.434  10.901   6.554  0.1142  0.1328 -0.0392
  935POPC   D2A13572  13.383  11.094   6.944  0.2316  0.0676 -0.2996
  935POPC   C3A13573  13.419  10.868   7.254 -0.3328 -0.0209  0.3978
  935POPC   C4A13574  13.572  10.885   7.612  0.3415  0.3801 -0.2442
  935POPC   C1B13575  12.992  10.911   6.640  0.3892 -0.0115  0.2632
  935POPC   C2B13576  12.929  11.315   6.719 -0.2256  0.0133 -0.2948
  935POPC   C3B13577  13.153  11.791   6.754 -0.0184 -0.1959 -0.3162
  935POPC   C4B13578  13.467  12.044   6.595 -0.3781 -0.2082  0.2863
  936POPC   NC313579   0.310  17.418   5.798  0.0350  0.0241  0.2912
  936POPC   PO413580   0.614  17.689   5.768  0.2971 -0.0809  0.3984
  936POPC   GL113581   0.715  17.921   6.046  0.0863 -0.2219 -0.0955
  936POPC   GL213582   0.783  17.736   6.331  0.1146  0.2051 -0.0626
  936POPC   C1A13583   0.668  18.338   6.307  0.1459  0.1691  0.2603
  936POPC   D2A13584   0.801  18.728   6.530 -0.2797 -0.1322  0.2692
  936POPC   C3A13585   1.048  18.808   6.934 -0.0541  0.0388 -0.1056
  936POPC   C4A13586   0.965  18.848   7.354  0.2796  0.0445 -0.1884
  936POPC   C1B13587   0.904  17.948   6.591  0.2074 -0.2054  0.1851
  936POPC   C2B13588   0.846  18.285   6.801  0.0515  0.0714  0.0227
  936POPC   C3B13589   0.626  18.569   7.093  0.0655  0.2936 -0.1371
  936POPC   C4B13590   0.277  18.670   7.296  0.0895  0.1608  0.1065
  937POPC   NC313591  12.477  14.210   5.536 -0.0590 -0.1820 -0.0246
  937POPC   PO413592  12.746  13.757   5.652  0.2586 -0.2857 -0.0122
  937POPC   GL113593  12.915  13.734   6.067  0.1762 -0.4042  0.0591
  937POPC   GL213594  12.717  13.585   6.389 -0.0762 -0.2301 -0.0536
  937POPC   C1A13595  13.028  13.964   6.563 -0.3136 -0.0777  0.0620
  937POPC   D2A13596  12.899  14.108   6.877  0.3234  0.0362  0.0849
  937POPC   C3A13597  12.646  14.105   7.171 -0.2831 -0.0529 -0.2377
  937POPC   C4A13598  12.644  14.033   7.679 -0.1066 -0.1507 -0.0202
  937POPC   C1B13599  12.599  13.685   6.850 -0.2915 -0.0898  0.1118
  937POPC   C2B13600  12.588  13.616   7.273  0.0265  0.1863  0.2469
  937POPC   C3B13601  12.798  13.301   7.656  0.0049 -0.0955  0.1915
  937POPC   C4B13602  12.826  12.860   7.614  0.0665  0.1090  0.0182
  938POPC   NC313603  16.140   9.658   5.874 -0.2255  0.0145  0.4277
  938POPC   PO413604  15.933  10.049   5.960 -0.0559 -0.1017  0.0957
  938POPC   GL113605  15.956  10.142   6.325  0.0571 -0.4152  0.0573
  938POPC   GL213606  16.081  10.340   6.329  0.1553 -0.0205  0.0617
  938POPC   C1A13607  15.745  10.114   6.680 -0.2726  0.0599  0.3090
  938POPC   D2A13608  15.783  10.008   7.025 -0.2897 -0.4806  0.1924
  938POPC   C3A13609  15.554   9.864   7.415  0.0112  0.0418 -0.3777
  938POPC   C4A13610  15.599  10.007   7.848 -0.0995 -0.0118  0.3010
  938POPC   C1B13611  16.225  10.366   6.817  0.0143  0.2435 -0.0698
  938POPC   C2B13612  16.241  10.205   7.231 -0.1140  0.2243 -0.0508
  938POPC   C3B13613  16.085  10.015   7.611  0.0683 -0.2062  0.3200
  938POPC   C4B13614  16.301   9.957   8.038  0.0401 -0.1863 -0.0415
  939POPC   NC313615  15.599   6.774   6.191 -0.2221  0.1866  0.0956
  939POPC   PO413616  15.996   6.899   6.300  0.2173  0.3954 -0.4173
  939POPC   GL113617  15.809   6.771   6.684  0.1882  0.0542 -0.0374
  939POPC   GL213618  16.075   6.867   6.828  0.0548  0.0990  0.0666
  939POPC   C1A13619  15.642   6.659   7.119  0.1217 -0.2600 -0.0273
  939POPC   D2A13620  15.646   6.689   7.615  0.1120  0.0008  0.1539
  939POPC   C3A13621  15.957   6.412   7.778  0.2422 -0.1245  0.2749
  939POPC   C4A13622  16.295   6.276   8.059 -0.1082 -0.0087 -0.0983
  939POPC   C1B13623  16.069   6.703   7.343  0.1411  0.2238  0.2940
  939POPC   C2B13624  16.147   6.981   7.666 -0.1154 -0.0294  0.3448
  939POPC   C3B13625  16.114   7.288   7.954  0.0512 -0.2383  0.1960
  939POPC   C4B13626  16.060   7.680   8.057  0.0303 -0.2315 -0.1396
  940POPC   NC313627  13.016   1.276   5.265 -0.2329  0.0105  0.1953
  940POPC   PO413628  13.121   1.459   5.673  0.1065  0.1146  0.0704
  940POPC   GL113629  13.128   1.416   6.141 -0.2519  0.0260  0.3286
  940POPC   GL213630  13.295   1.768   6.286  0.0387  0.2035  0.0031
  940POPC   C1A13631  12.982   1.545   6.571  0.1859  0.1990 -0.1140
  940POPC   D2A13632  12.886   1.825   6.943 -0.0423 -0.1781 -0.0056
  940POPC   C3A13633  13.203   1.950   7.185 -0.2331 -0.0955 -0.1725
  940POPC   C4A13634  13.375   2.164   7.508 -0.0572 -0.0793  0.1170
  940POPC   C1B13635  13.530   1.771   6.647  0.4193  0.0043  0.1122
  940POPC   C2B13636  13.737   1.771   6.969  0.0723  0.0240 -0.1067
  940POPC   C3B13637  13.668   1.733   7.354 -0.5187  0.1127  0.2719
  940POPC   C4B13638  13.804   1.415   7.533  0.2118 -0.0830 -0.1464
  941YOPC   NC313639   4.904   1.961   5.593  0.2895 -0.3415 -0.1562
  941YOPC   PO413640   5.016   2.401   5.722  0.0784  0.2559 -0.0669
  941YOPC   GL113641   4.865   2.511   6.129 -0.1076 -0.0922 -0.2156
  941YOPC   GL213642   4.771   2.217   6.233  0.1437  0.0323 -0.4271
  941YOPC   C1A13643   5.150   2.372   6.552  0.1451  0.1812  0.0154
  941YOPC   D2A13644   5.345   2.639   6.737  0.2748 -0.1682  0.1297
  941YOPC   C3A13645   5.416   2.557   7.117  0.0970  0.2413  0.1328
  941YOPC   C4A13646   5.222   2.248   7.454  0.0616 -0.0642 -0.0096
  941YOPC   C1B13647   4.654   2.080   6.691 -0.1323 -0.0506  0.2677
  941YOPC   C2B13648   4.493   1.840   6.973 -0.0596 -0.2357  0.0477
  941YOPC   D3B13649   4.780   1.638   7.174  0.0185  0.0556  0.1093
  941YOPC   C4B13650   5.117   1.792   7.393  0.1492 -0.2369 -0.5916
  942YOPC   NC313651  12.349   5.673   5.922 -0.1931 -0.0651  0.0999
  942YOPC   PO413652  12.154   6.009   6.204  0.1977  0.1320 -0.0071
  942YOPC   GL113653  12.044   6.080   6.566  0.2088  0.0634  0.0993
  942YOPC   GL213654  12.057   5.858   6.762  0.0732  0.1093 -0.0643
  942YOPC   C1A13655  11.977   6.312   6.984 -0.0956 -0.1462  0.0476
  942YOPC   D2A13656  12.126   6.414   7.343  0.0272 -0.0063  0.1391
  942YOPC   C3A13657  11.971   6.210   7.679  0.1882 -0.2803 -0.1460
  942YOPC   C4A13658  12.338   5.879   7.909 -0.0531 -0.2294  0.0696
  942YOPC   C1B13659  12.105   5.500   7.001 -0.0087 -0.0519 -0.0788
  942YOPC   C2B13660  12.266   5.488   7.420 -0.0819  0.2161 -0.1718
  942YOPC   D3B13661  12.516   5.062   7.486  0.0375 -0.0442  0.1888
  942YOPC   C4B13662  12.832   4.944   7.688  0.1427 -0.0673 -0.1802
  943YOPC   NC313663   0.661   4.546   5.794 -0.1592 -0.3464 -0.2058
  943YOPC   PO413664   0.626   4.951   5.935  0.0963 -0.3657  0.1480
  943YOPC   GL113665   0.823   5.231   6.316  0.0489 -0.0981 -0.0377
  943YOPC   GL213666   0.601   5.086   6.495  0.0673  0.2765  0.0358
  943YOPC   C1A13667   0.912   5.517   6.580  0.3128 -0.1559  0.0317
  943YOPC   D2A13668   1.090   5.641   6.952 -0.0802 -0.0839 -0.0589
  943YOPC   C3A13669   0.863   5.618   7.370 -0.5279  0.2056 -0.3262
  943YOPC   C4A13670   0.608   5.304   7.621 -0.3565  0.2501 -0.1497
  943YOPC   C1B13671   0.761   4.776   6.820  0.3077 -0.0154 -0.0299
  943YOPC   C2B13672   0.995   4.628   7.236  0.0059 -0.2077  0.1587
  943YOPC   D3B13673   0.981   4.826   7.618 -0.0927 -0.0011  0.0013
  943YOPC   C4B13674   0.687   4.795   7.976  0.0145  0.0048 -0.1941
  944YOPC   NC313675   0.548  15.052   5.634  0.2334 -0.0340  0.0436
  944YOPC   PO413676   0.587  14.858   6.003 -0.0171 -0.1833  0.2104
  944YOPC   GL113677   0.545  14.773   6.416  0.1436  0.2210 -0.1786
  944YOPC   GL213678   0.201  14.839   6.544  0.2948 -0.2673 -0.0754
  944YOPC   C1A13679   0.651  14.674   6.789  0.0190  0.0159 -0.0620
  944YOPC   D2A13680   0.638  14.733   7.267  0.1133  0.1544 -0.1813
  944YOPC   C3A13681   0.655  15.218   7.304 -0.2677  0.0930 -0.3332
  944YOPC   C4A13682   0.878  15.515   7.104  0.2480  0.0155  0.2042
  944YOPC   C1B13683   0.298  14.969   6.944 -0.1973 -0.1025 -0.0814
  944YOPC   C2B13684   0.184  15.046   7.337 -0.3042 -0.2329 -0.3178
  944YOPC   D3B13685   0.306  15.231   7.678 -0.1333 -0.0505 -0.1120
  944YOPC   C4B13686   0.582  15.359   7.943 -0.2316  0.3187 -0.1842
  945YOPC   NC313687  16.574  14.415   5.604  0.4832 -0.1213 -0.1744
  945YOPC   PO413688  16.316  13.973   5.667  0.0528  0.3224  0.0326
  945YOPC   GL113689  16.302  14.130   6.126  0.3195  0.2509 -0.4449
  945YOPC   GL213690  16.561  14.342   6.105 -0.3732 -0.0078  0.0020
  945YOPC   C1A13691  16.237  14.086   6.549 -0.2142 -0.1394 -0.0813
  945YOPC   D2A13692  16.191  13.838   6.891 -0.0974 -0.0115 -0.0147
  945YOPC   C3A13693  16.021  14.040   7.210  0.0077 -0.0009 -0.1055
  945YOPC   C4A13694  16.089  14.125   7.742 -0.2133  0.1811 -0.2220
  945YOPC   C1B13695  16.621  14.753   6.211  0.0704  0.1025 -0.0200
  945YOPC   C2B13696  16.361  15.068   6.143  0.4457 -0.0190 -0.0882
  945YOPC   D3B13697  15.995  15.032   6.327 -0.0013  0.3352 -0.1631
  945YOPC   C4B13698  15.883  15.031   6.636  0.1043  0.0324  0.1514
  946YOPC   NC313699  14.508   0.540   6.097  0.0823  0.0042  0.0775
  946YOPC   PO413700  14.433   0.823   6.231  0.0102 -0.0748 -0.2306
  946YOPC   GL113701  14.260   1.071   6.589 -0.0480  0.0917  0.0127
  946YOPC   GL213702  13.982   1.366   6.694 -0.2084 -0.1041  0.0463
  946YOPC   C1A13703  14.462   1.037   7.007 -0.2123 -0.0246  0.0459
  946YOPC   D2A13704  14.717   1.156   7.355  0.1403 -0.0778  0.2672
  946YOPC   C3A13705  14.961   1.483   7.475  0.0291  0.2205  0.0711
  946YOPC   C4A13706  15.052   1.546   8.013  0.1100 -0.0251  0.1094
  946YOPC   C1B13707  13.922   1.134   7.078  0.0189  0.1410  0.2017
  946YOPC   C2B13708  13.704   0.900   7.337 -0.2373  0.0896 -0.0672
  946YOPC   D3B13709  13.647   0.777   7.655  0.0051  0.0792  0.4674
  946YOPC   C4B13710  13.614   0.442   8.007  0.4293 -0.2935 -0.1200
  947YOPC   NC313711   4.214  13.002   5.991 -0.1082 -0.0033  0.0994
  947YOPC   PO413712   3.941  13.257   5.832  0.0571  0.2207  0.2580
  947YOPC   GL113713   3.899  13.433   6.263  0.2718 -0.0846 -0.1976
  947YOPC   GL213714   4.026  13.219   6.414 -0.2646  0.2869  0.0967
  947YOPC   C1A13715   4.014  13.713   6.612 -0.1881  0.0912 -0.0442
  947YOPC   D2A13716   4.125  13.691   7.041  0.2071 -0.0533 -0.2248
  947YOPC   C3A13717   3.970  13.895   7.446 -0.4050  0.0540 -0.0065
  947YOPC   C4A13718   3.924  13.908   7.861 -0.1169 -0.1872  0.0865
  947YOPC   C1B13719   3.760  13.049   6.593  0.0447 -0.2072  0.0414
  947YOPC   C2B13720   3.493  12.655   6.791 -0.2446  0.2143  0.0389
  947YOPC   D3B13721   3.512  12.504   7.269  0.3142 -0.2690 -0.3355
  947YOPC   C4B13722   3.193  12.129   7.545 -0.2649 -0.1089  0.2006
  948YOPC   NC313723  10.394   5.568   5.629 -0.2152 -0.1018  0.1396
  948YOPC   PO413724  10.181   5.946   5.459  0.0956 -0.1768 -0.2215
  948YOPC   GL113725  10.414   6.184   5.846  0.3477  0.3212  0.2730
  948YOPC   GL213726  10.746   6.167   5.857  0.0132 -0.2273 -0.3476
  948YOPC   C1A13727  10.424   6.348   6.310 -0.1334 -0.2590 -0.2337
  948YOPC   D2A13728  10.427   6.329   6.778 -0.1180  0.0119  0.0024
  948YOPC   C3A13729  10.758   6.459   7.180 -0.2726  0.0792 -0.2214
  948YOPC   C4A13730  11.150   6.526   7.199  0.0843 -0.2717 -0.0965
  948YOPC   C1B13731  10.678   5.912   6.211  0.1859  0.0414  0.2240
  948YOPC   C2B13732  10.586   5.888   6.511  0.0456 -0.1878 -0.1746
  948YOPC   D3B13733  10.663   5.894   6.915 -0.0298 -0.2903 -0.1843
  948YOPC   C4B13734  10.626   5.876   7.326 -0.0148 -0.0894 -0.1402
  949YOPC   NC313735  13.039  15.050   5.683  0.1573  0.0876  0.0581
  949YOPC   PO413736  13.128  14.667   5.689 -0.3658  0.6210 -0.1927
  949YOPC   GL113737  13.200  14.627   6.169 -0.2156  0.2622 -0.0073
  949YOPC   GL213738  13.112  14.309   6.273 -0.2217  0.2490 -0.2520
  949YOPC   C1A13739  13.172  14.628   6.620  0.2006  0.0886  0.0225
  949YOPC   D2A13740  13.267  14.595   7.062  0.1876 -0.1204 -0.0884
  949YOPC   C3A13741  12.968  14.516   7.321 -0.1207  0.5584 -0.0947
  949YOPC   C4A13742  12.916  14.534   7.810  0.1180 -0.0685 -0.0422
  949YOPC   C1B13743  13.353  13.883   6.195 -0.1366  0.0247  0.0479
  949YOPC   C2B13744  13.476  13.564   6.069 -0.0685 -0.0544 -0.3368
  949YOPC   D3B13745  13.175  13.331   6.277 -0.0584  0.0016 -0.4769
  949YOPC   C4B13746  12.963  13.283   6.677  0.0109  0.1495 -0.0913
  950YOPC   NC313747   7.151  16.912   5.908  0.0377 -0.3323 -0.0756
  950YOPC   PO413748   7.589  16.754   5.800  0.2142 -0.0887  0.0159
  950YOPC   GL113749   7.460  16.769   6.288  0.0532 -0.1491 -0.0610
  950YOPC   GL213750   7.187  16.703   6.376 -0.0046 -0.0562 -0.2475
  950YOPC   C1A13751   7.557  16.489   6.542  0.1836  0.2768  0.0098
  950YOPC   D2A13752   7.579  16.412   6.981 -0.3432  0.0210 -0.2700
  950YOPC   C3A13753   7.765  16.857   7.324 -0.0295 -0.0581  0.3145
  950YOPC   C4A13754   7.790  17.361   7.293 -0.0514  0.4054 -0.2452
  950YOPC   C1B13755   7.034  16.510   6.781 -0.2541  0.1680 -0.1879
  950YOPC   C2B13756   6.682  16.410   6.996 -0.0120 -0.0760  0.1181
  950YOPC   D3B13757   6.671  16.405   7.373  0.2748 -0.2490  0.1067
  950YOPC   C4B13758   6.679  16.128   7.737  0.1377 -0.4387  0.0354
  951YOPC   NC313759  10.464   9.319   5.816 -0.1221 -0.3337  0.2341
  951YOPC   PO413760  10.090   9.545   6.004  0.0724  0.0889 -0.1087
  951YOPC   GL113761  10.486   9.689   6.221 -0.1342  0.1664  0.2300
  951YOPC   GL213762  10.319  10.063   6.207  0.0885 -0.0033  0.0481
  951YOPC   C1A13763  10.505   9.874   6.657 -0.0006  0.0686 -0.2529
  951YOPC   D2A13764  10.691   9.810   7.048 -0.2812 -0.3819  0.0161
  951YOPC   C3A13765  10.960  10.126   7.302  0.0828  0.0543 -0.0362
  951YOPC   C4A13766  11.374  10.179   7.575  0.3328  0.0705  0.0175
  951YOPC   C1B13767  10.355  10.332   6.576 -0.0277 -0.2974  0.0711
  951YOPC   C2B13768  10.151  10.340   6.976 -0.0722  0.1044 -0.1179
  951YOPC   D3B13769  10.287  10.596   7.306  0.1779  0.3650 -0.0944
  951YOPC   C4B13770  10.195  10.751   7.776 -0.0543 -0.1834 -0.0534
  952YOPC   NC313771   6.870   5.117   5.414 -0.2290  0.1289 -0.0743
  952YOPC   PO413772   6.732   5.106   5.815  0.1794  0.1186  0.2946
  952YOPC   GL113773   6.898   4.701   5.998 -0.1961 -0.1439 -0.1414
  952YOPC   GL213774   6.882   4.793   6.274 -0.1939  0.2739 -0.1024
  952YOPC   C1A13775   7.201   4.406   6.337 -0.0843 -0.0211  0.1107
  952YOPC   D2A13776   7.582   4.412   6.634  0.0995  0.0461 -0.1671
  952YOPC   C3A13777   7.468   4.380   7.058  0.1807  0.2044 -0.5001
  952YOPC   C4A13778   7.174   4.666   7.219  0.1018  0.0445 -0.0848
  952YOPC   C1B13779   7.055   4.886   6.689 -0.2112  0.1868 -0.1532
  952YOPC   C2B13780   6.950   5.186   7.097  0.1935 -0.0018  0.3149
  952YOPC   D3B13781   6.589   5.116   7.190  0.3786  0.0577 -0.2704
  952YOPC   C4B13782   6.175   4.925   7.187 -0.0899  0.1913  0.2275
  953YOPC   NC313783  14.416   6.957   5.909  0.3543  0.0965 -0.1166
  953YOPC   PO413784  14.139   7.233   6.123  0.0456 -0.1691  0.0423
  953YOPC   GL113785  13.880   7.456   6.445 -0.4323  0.0108  0.1285
  953YOPC   GL213786  13.718   7.798   6.436  0.5320  0.0017 -0.3612
  953YOPC   C1A13787  13.813   7.316   6.749 -0.0585  0.3303  0.1166
  953YOPC   D2A13788  13.727   7.271   7.193 -0.1890  0.2064 -0.0198
  953YOPC   C3A13789  13.478   7.116   7.563 -0.1419  0.0628  0.0323
  953YOPC   C4A13790  13.165   7.150   7.931  0.0905 -0.2010 -0.0242
  953YOPC   C1B13791  13.843   7.788   6.877 -0.2931 -0.0338  0.0041
  953YOPC   C2B13792  13.983   7.837   7.344  0.3413  0.0269 -0.1697
  953YOPC   D3B13793  13.882   7.536   7.565  0.3240  0.1004  0.2684
  953YOPC   C4B13794  14.049   7.382   7.762 -0.0829 -0.0822  0.2854
  954YOPC   NC313795   4.878  14.642   5.707 -0.1818 -0.2752  0.0637
  954YOPC   PO413796   5.290  14.755   5.822  0.0661 -0.1137  0.2937
  954YOPC   GL113797   5.293  14.753   6.242 -0.0121 -0.0991  0.3933
  954YOPC   GL213798   5.362  14.461   6.415  0.1607  0.0465 -0.1082
  954YOPC   C1A13799   5.403  14.948   6.513  0.0123  0.3183 -0.0937
  954YOPC   D2A13800   5.748  15.134   6.658 -0.2115 -0.0191  0.0674
  954YOPC   C3A13801   6.134  14.987   6.863 -0.0964  0.2402  0.2416
  954YOPC   C4A13802   6.125  14.745   7.090 -0.0329  0.0598 -0.0067
  954YOPC   C1B13803   5.179  14.440   6.793  0.1225 -0.4305 -0.2056
  954YOPC   C2B13804   4.787  14.391   7.125  0.2863 -0.5043  0.0498
  954YOPC   D3B13805   4.686  14.571   7.498 -0.2375 -0.2854  0.0775
  954YOPC   C4B13806   4.883  15.006   7.645  0.1179 -0.0140 -0.0029
  955YOPC   NC313807  13.899  10.409   5.678  0.1221 -0.2378  0.2353
  955YOPC   PO413808  14.085   9.962   5.765  0.0457  0.1352  0.4103
  955YOPC   GL113809  13.851  10.226   6.145 -0.2267 -0.1785 -0.0526
  955YOPC   GL213810  13.885  10.615   6.097 -0.0933 -0.0781  0.0669
  955YOPC   C1A13811  14.046  10.284   6.511  0.2011  0.0447 -0.1738
  955YOPC   D2A13812  14.223  10.089   6.861 -0.3097  0.3042 -0.0620
  955YOPC   C3A13813  14.105  10.003   7.248  0.0718 -0.1320 -0.0851
  955YOPC   C4A13814  14.027   9.787   7.567 -0.3640 -0.1407 -0.1283
  955YOPC   C1B13815  14.226  10.948   6.093  0.0298 -0.0219 -0.0171
  955YOPC   C2B13816  14.608  10.960   6.222 -0.0899 -0.1779 -0.0641
  955YOPC   D3B13817  14.549  10.967   6.687 -0.2145 -0.2347 -0.2367
  955YOPC   C4B13818  14.513  11.016   7.082  0.0622 -0.1421 -0.0619
  956YOPC   NC313819  15.344  17.964   5.514  0.2260  0.1115  0.1423
  956YOPC   PO413820  15.300  17.562   5.748  0.0055 -0.2339  0.0183
  956YOPC   GL113821  15.165  17.608   6.197 -0.0873 -0.1374 -0.0948
  956YOPC   GL213822  14.859  17.740   6.352  0.0079 -0.0827 -0.0741
  956YOPC   C1A13823  15.208  17.348   6.594  0.0282 -0.0646 -0.4002
  956YOPC   D2A13824  15.083  17.209   6.952 -0.4109 -0.2316 -0.0719
  956YOPC   C3A13825  15.451  17.117   7.244  0.1473 -0.1138  0.0746
  956YOPC   C4A13826  15.496  16.822   7.591 -0.0632  0.1208 -0.1934
  956YOPC   C1B13827  15.064  17.825   6.648  0.1262  0.0700 -0.0534
  956YOPC   C2B13828  14.940  18.087   7.039  0.2648 -0.2467  0.0345
  956YOPC   D3B13829  14.515  18.327   6.991 -0.0478 -0.0236 -0.1814
  956YOPC   C4B13830  14.199  18.350   7.266 -0.1041 -0.0414 -0.0137
  957YOPC   NC313831   6.220   3.207   5.708  0.0840 -0.0286  0.2027
  957YOPC   PO413832   6.384   2.724   5.741 -0.0513 -0.0032 -0.4325
  957YOPC   GL113833   6.582   2.396   6.040  0.3099 -0.1213  0.1385
  957YOPC   GL213834   6.884   2.348   6.040  0.2112 -0.0501  0.1309
  957YOPC   C1A13835   6.474   2.163   6.470  0.1196  0.3574  0.2346
  957YOPC   D2A13836   6.551   2.227   6.875 -0.1466  0.0214  0.1796
  957YOPC   C3A13837   6.453   2.424   7.374 -0.2290  0.1102  0.3295
  957YOPC   C4A13838   6.155   2.413   7.592  0.1029  0.0019 -0.0032
  957YOPC   C1B13839   7.109   2.223   6.473  0.0988 -0.4382  0.3162
  957YOPC   C2B13840   7.078   2.072   6.918 -0.1980 -0.1041  0.0035
  957YOPC   D3B13841   6.901   2.244   7.211 -0.0452  0.1007  0.0704
  957YOPC   C4B13842   6.784   2.143   7.643 -0.1554  0.0182 -0.3272
  958YOPC   NC313843   2.201  17.008   5.147  0.2862  0.1342  0.0803
  958YOPC   PO413844   2.100  16.816   5.415  0.0423  0.2649 -0.2131
  958YOPC   GL113845   2.037  16.831   5.887 -0.2791 -0.2475 -0.0338
  958YOPC   GL213846   2.233  16.912   6.090  0.1841  0.4105  0.1099
  958YOPC   C1A13847   1.904  17.270   6.167  0.0419  0.0637  0.1602
  958YOPC   D2A13848   1.610  17.603   6.196 -0.0159  0.3098  0.2883
  958YOPC   C3A13849   1.410  17.729   6.579  0.0408  0.1837 -0.1095
  958YOPC   C4A13850   1.326  18.006   6.923 -0.0654 -0.0636  0.0777
  958YOPC   C1B13851   2.126  16.787   6.494 -0.0159 -0.2063 -0.1201
  958YOPC   C2B13852   2.094  16.864   7.013  0.1432 -0.0344  0.3128
  958YOPC   D3B13853   2.336  16.626   7.270 -0.1872 -0.2371 -0.3864
  958YOPC   C4B13854   2.376  16.614   7.697  0.1149  0.1923  0.0084
  959YOPC   NC313855   0.979   7.721   5.831  0.0108 -0.2803 -0.0993
  959YOPC   PO413856   1.330   7.944   6.058  0.1307 -0.3510  0.0037
  959YOPC   GL113857   0.940   7.827   6.344  0.1656  0.0016  0.1333
  959YOPC   GL213858   0.745   7.495   6.283  0.2462 -0.1669 -0.1216
  959YOPC   C1A13859   0.656   7.780   6.692  0.0724  0.1751 -0.3270
  959YOPC   D2A13860   0.460   7.673   7.136 -0.2000  0.1693 -0.1769
  959YOPC   C3A13861   0.562   7.820   7.550  0.1474 -0.1554  0.1382
  959YOPC   C4A13862   0.735   8.094   7.856 -0.0669 -0.0107 -0.1221
  959YOPC   C1B13863   0.678   7.244   6.737 -0.0729  0.1341 -0.0713
  959YOPC   C2B13864   0.585   7.233   7.146  0.2138  0.0425 -0.0883
  959YOPC   D3B13865   0.613   7.340   7.507  0.2254 -0.5266 -0.1741
  959YOPC   C4B13866   0.663   7.134   7.968  0.1028 -0.0664 -0.0525
  960YOPC   NC313867  16.354   2.399   6.019  0.1454 -0.0981  0.0712
  960YOPC   PO413868  16.676   2.180   5.796  0.0598  0.1045 -0.0815
  960YOPC   GL113869  16.728   2.221   6.312 -0.0612 -0.1355  0.1172
  960YOPC   GL213870  16.725   2.539   6.413 -0.2179  0.0099  0.0477
  960YOPC   C1A13871  16.743   2.086   6.805 -0.1516  0.0843  0.0701
  960YOPC   D2A13872  17.021   2.305   7.017  0.1319  0.3051 -0.1840
  960YOPC   C3A13873  16.958   2.304   7.474 -0.0524 -0.1204  0.1383
  960YOPC   C4A13874  17.267   2.075   7.707  0.1628 -0.2646 -0.1567
  960YOPC   C1B13875  16.682   2.714   6.775 -0.0279 -0.4577 -0.0083
  960YOPC   C2B13876  16.761   2.666   7.208 -0.4366 -0.1583  0.0816
  960YOPC   D3B13877  16.593   2.620   7.548 -0.2732  0.0206 -0.1041
  960YOPC   C4B13878  16.283   2.293   7.778  0.0599  0.0820  0.0544
  961YOPC   NC313879  11.389   9.486   5.860  0.1631 -0.2934  0.0586
  961YOPC   PO413880  10.968   9.621   5.976 -0.0907  0.1763  0.4015
  961YOPC   GL113881  11.212   9.643   6.301  0.1775  0.1015  0.0162
  961YOPC   GL213882  11.569   9.451   6.369  0.1428  0.1267 -0.0020
  961YOPC   C1A13883  11.530   9.817   6.666 -0.0089 -0.0742  0.5423
  961YOPC   D2A13884  11.605   9.666   7.018  0.1461  0.0907 -0.1511
  961YOPC   C3A13885  11.367   9.260   7.206  0.1449  0.3759  0.0933
  961YOPC   C4A13886  11.467   8.945   7.493  0.0730  0.1564  0.2719
  961YOPC   C1B13887  11.763   9.282   6.620 -0.0116  0.2503 -0.5003
  961YOPC   C2B13888  11.794   8.963   6.904  0.0038 -0.0787  0.3268
  961YOPC   D3B13889  11.472   8.814   6.943  0.1554 -0.2714  0.3273
  961YOPC   C4B13890  11.080   8.726   7.243 -0.1403 -0.3748 -0.1701
  962YOPC   NC313891   0.162  13.903   5.618  0.1270  0.0833 -0.0961
  962YOPC   PO413892  -0.079  13.544   5.815 -0.2432 -0.0021 -0.0154
  962YOPC   GL113893   0.208  13.267   6.099 -0.1504  0.1862  0.3001
  962YOPC   GL213894   0.390  13.083   5.970 -0.0722 -0.1463 -0.0965
  962YOPC   C1A13895   0.622  13.373   6.357  0.2568  0.3651  0.3430
  962YOPC   D2A13896   0.692  13.469   6.809 -0.1940 -0.5846 -0.0367
  962YOPC   C3A13897   0.944  13.742   7.051  0.0153  0.1562  0.0499
  962YOPC   C4A13898   0.826  13.927   7.408 -0.0949  0.0620  0.0031
  962YOPC   C1B13899   0.511  12.825   6.371 -0.1378 -0.2263  0.0947
  962YOPC   C2B13900   0.835  12.875   6.648  0.2198 -0.2790 -0.0095
  962YOPC   D3B13901   0.774  13.025   7.079  0.1854  0.1421 -0.0192
  962YOPC   C4B13902   0.730  13.386   7.329 -0.0292 -0.1164 -0.0056
  963YOPC   NC313903  15.468   3.321   6.365  0.0356  0.3178 -0.0030
  963YOPC   PO413904  15.744   3.039   6.155 -0.1496 -0.2244 -0.1907
  963YOPC   GL113905  15.604   2.871   6.506  0.1106 -0.0961  0.2170
  963YOPC   GL213906  15.284   2.952   6.651 -0.4324  0.4140 -0.0869
  963YOPC   C1A13907  15.724   2.871   6.964  0.1790 -0.0251 -0.1626
  963YOPC   D2A13908  15.895   3.152   7.211 -0.2587 -0.1233  0.0306
  963YOPC   C3A13909  15.881   3.144   7.679  0.2277  0.0304 -0.3121
  963YOPC   C4A13910  15.755   2.978   7.985 -0.2359  0.1381  0.0916
  963YOPC   C1B13911  15.286   2.853   7.216  0.0563  0.3891  0.0581
  963YOPC   C2B13912  15.390   3.010   7.640  0.0690  0.1155  0.1829
  963YOPC   D3B13913  15.361   2.739   8.080 -0.1186  0.1364  0.1659
  963YOPC   C4B13914  15.359   2.360   8.227  0.1585  0.0261  0.1619
  964YOPC   NC313915   3.382   7.262   5.923  0.1687  0.2439 -0.0808
  964YOPC   PO413916   3.837   7.171   5.961  0.1063 -0.2328 -0.0407
  964YOPC   GL113917   3.657   7.199   6.352  0.2250 -0.0960 -0.0020
  964YOPC   GL213918   3.350   7.067   6.392 -0.1111 -0.0970  0.0082
  964YOPC   C1A13919   3.784   7.496   6.674  0.1698  0.1071 -0.1049
  964YOPC   D2A13920   3.866   7.632   7.041 -0.2193 -0.0064  0.0626
  964YOPC   C3A13921   3.460   7.672   7.346  0.1584  0.1739 -0.3051
  964YOPC   C4A13922   3.141   7.950   7.614 -0.0075  0.1377 -0.0098
  964YOPC   C1B13923   3.340   7.266   6.811 -0.2208 -0.2245 -0.0480
  964YOPC   C2B13924   3.523   7.143   7.251 -0.1099  0.1973  0.0842
  964YOPC   D3B13925   3.298   6.848   7.624 -0.3028 -0.0234  0.0104
  964YOPC   C4B13926   3.164   7.022   8.006 -0.2540  0.4112  0.1409
  965YOPC   NC313927  11.054   7.031   5.957 -0.1892  0.0541  0.0016
  965YOPC   PO413928  10.911   6.700   5.859  0.0927  0.0210 -0.1054
  965YOPC   GL113929  10.796   6.602   6.161 -0.0748  0.0348 -0.1286
  965YOPC   GL213930  11.160   6.669   6.368  0.0131  0.3041  0.0853
  965YOPC   C1A13931  10.874   6.294   6.521 -0.2159 -0.0667 -0.2201
  965YOPC   D2A13932  11.067   6.174   6.786 -0.2066  0.1955  0.1028
  965YOPC   C3A13933  11.148   5.790   6.700  0.0815  0.0572  0.1196
  965YOPC   C4A13934  10.795   5.415   6.601  0.1350  0.2650  0.0363
  965YOPC   C1B13935  10.941   6.849   6.727  0.0387 -0.2887  0.1290
  965YOPC   C2B13936  10.924   6.986   7.216 -0.0341  0.1589  0.1533
  965YOPC   D3B13937  10.865   7.389   7.311 -0.1579 -0.0754 -0.3064
  965YOPC   C4B13938  11.056   7.687   7.529 -0.1308  0.0980  0.5254
  966YOPC   NC313939  14.610   9.832   5.856  0.1162 -0.0847  0.0394
  966YOPC   PO413940  14.953  10.088   5.769 -0.2609  0.1455  0.1150
  966YOPC   GL113941  14.927  10.017   6.241  0.0719 -0.4324 -0.1403
  966YOPC   GL213942  14.862   9.775   6.279 -0.5344  0.0162  0.0950
  966YOPC   C1A13943  14.677  10.134   6.620  0.0701  0.3000 -0.0391
  966YOPC   D2A13944  14.775  10.476   6.834 -0.1176 -0.0463 -0.1916
  966YOPC   C3A13945  14.815  10.571   7.287  0.2263  0.0695  0.1167
  966YOPC   C4A13946  15.018  10.859   7.630 -0.1935 -0.0705  0.2200
  966YOPC   C1B13947  14.776   9.580   6.562  0.1143  0.1397  0.0397
  966YOPC   C2B13948  14.660   9.767   6.997  0.2862 -0.1287 -0.3509
  966YOPC   D3B13949  14.655  10.058   7.371  0.0012  0.0455 -0.1367
  966YOPC   C4B13950  14.824  10.341   7.713 -0.1416  0.1835 -0.1783
  967YOPC   NC313951   1.997   6.094   6.146  0.1901 -0.0659 -0.3999
  967YOPC   PO413952   1.747   5.761   6.214 -0.1336  0.0419 -0.0908
  967YOPC   GL113953   1.698   5.700   6.575 -0.3318 -0.0118 -0.1755
  967YOPC   GL213954   1.647   5.407   6.609  0.1633 -0.2124 -0.0513
  967YOPC   C1A13955   1.507   5.841   6.918  0.0414 -0.1525  0.0057
  967YOPC   D2A13956   1.295   6.005   7.200  0.3567 -0.0795 -0.1017
  967YOPC   C3A13957   0.827   6.054   7.196 -0.3034 -0.0578  0.2858
  967YOPC   C4A13958   0.519   6.351   6.977  0.3830  0.2527  0.2732
  967YOPC   C1B13959   1.655   5.296   7.044 -0.1834  0.0134  0.0399
  967YOPC   C2B13960   1.492   5.502   7.339 -0.0954  0.0812 -0.0064
  967YOPC   D3B13961   1.544   5.554   7.775  0.1395 -0.4732  0.1624
  967YOPC   C4B13962   1.675   5.572   8.165 -0.0442 -0.0041  0.3400
  968YOPC   NC313963   2.715  14.747   5.658  0.1494  0.1108  0.0811
  968YOPC   PO413964   2.320  14.576   5.944  0.1012  0.2580 -0.1772
  968YOPC   GL113965   2.286  14.364   6.327 -0.3571 -0.1893 -0.0120
  968YOPC   GL213966   2.061  14.516   6.550 -0.1297 -0.1242  0.2915
  968YOPC   C1A13967   2.623  14.325   6.758  0.1626  0.0072 -0.0135
  968YOPC   D2A13968   2.782  14.399   7.121 -0.1013 -0.0394  0.3248
  968YOPC   C3A13969   3.120  14.240   7.512 -0.0805 -0.2929 -0.1071
  968YOPC   C4A13970   3.438  13.959   7.599 -0.6246 -0.1913 -0.0194
  968YOPC   C1B13971   1.752  14.594   6.821  0.0761 -0.0877 -0.1200
  968YOPC   C2B13972   1.645  14.762   7.206 -0.1623  0.1694  0.3055
  968YOPC   D3B13973   1.505  14.514   7.524 -0.1335 -0.0776  0.1998
  968YOPC   C4B13974   1.236  14.451   7.917  0.0722  0.0042 -0.1273
  969YOPC   NC313975   5.198   7.322   5.701 -0.0245  0.0261 -0.1073
  969YOPC   PO413976   5.102   6.934   5.944 -0.0117  0.3547 -0.1616
  969YOPC   GL113977   5.022   6.872   6.380  0.0196 -0.4549  0.0571
  969YOPC   GL213978   5.272   6.662   6.559  0.2270  0.1248 -0.1538
  969YOPC   C1A13979   4.726   6.725   6.722  0.0675  0.0852 -0.1090
  969YOPC   D2A13980   4.755   6.409   7.054  0.1805 -0.1410 -0.1804
  969YOPC   C3A13981   5.005   6.529   7.428 -0.0858  0.2641 -0.0547
  969YOPC   C4A13982   5.065   6.347   7.804  0.1238  0.1336 -0.1031
  969YOPC   C1B13983   5.172   6.794   6.992  0.1578  0.0605  0.1609
  969YOPC   C2B13984   5.161   7.161   7.222 -0.0273 -0.2394 -0.0401
  969YOPC   D3B13985   5.471   7.356   7.446  0.2870  0.2522  0.0647
  969YOPC   C4B13986   5.733   7.608   7.404  0.2688  0.0053  0.0774
  970YOPC   NC313987  11.590   4.328   5.554  0.0104 -0.2047 -0.0102
  970YOPC   PO413988  11.323   4.371   5.839 -0.1852  0.0777 -0.1576
  970YOPC   GL113989  11.224   4.301   6.266 -0.0487  0.0241 -0.3589
  970YOPC   GL213990  11.439   4.024   6.321  0.4359  0.0336  0.3038
  970YOPC   C1A13991  10.932   4.378   6.604 -0.3811 -0.2332  0.0557
  970YOPC   D2A13992  10.598   4.465   7.044  0.1150  0.2683  0.0474
  970YOPC   C3A13993  10.311   4.344   7.327 -0.1844  0.0540  0.1378
  970YOPC   C4A13994   9.881   4.394   7.512 -0.0093 -0.3438  0.0346
  970YOPC   C1B13995  11.557   4.192   6.717 -0.1841 -0.2285  0.0974
  970YOPC   C2B13996  11.640   4.132   7.254 -0.1575 -0.0264  0.0657
  970YOPC   D3B13997  11.538   3.746   7.332  0.4409  0.0497  0.2640
  970YOPC   C4B13998  11.274   3.570   7.718 -0.0636  0.4491 -0.0870
  971YOPC   NC313999   6.046   7.539   6.166 -0.0394  0.1274 -0.2262
  971YOPC   PO414000   6.151   7.045   6.121 -0.1058  0.0751  0.2529
  971YOPC   GL114001   6.248   7.179   6.497 -0.1518  0.0860 -0.2438
  971YOPC   GL214002   6.155   6.768   6.515 -0.3337 -0.0487 -0.0413
  971YOPC   C1A14003   6.184   7.340   6.874  0.0364 -0.6001 -0.0872
  971YOPC   D2A14004   6.422   7.352   7.242  0.1913  0.2108 -0.0724
  971YOPC   C3A14005   6.358   7.678   7.511  0.0015 -0.4710  0.3251
  971YOPC   C4A14006   6.465   8.044   7.279  0.1883  0.1090 -0.0854
  971YOPC   C1B14007   6.179   6.540   6.808  0.1803  0.0221 -0.0494
  971YOPC   C2B14008   6.326   6.438   7.222  0.1734 -0.0728  0.2909
  971YOPC   D3B14009   6.551   6.776   7.513  0.0761 -0.0192  0.1556
  971YOPC   C4B14010   6.793   7.032   7.312 -0.1107 -0.0814 -0.0276
  972YOPC   NC314011  16.997  18.257   6.012  0.1565 -0.2958  0.1620
  972YOPC   PO414012  17.236  18.668   6.122 -0.2138  0.0971 -0.2815
  972YOPC   GL114013  17.386  18.822   6.497 -0.3145 -0.3249 -0.0365
  972YOPC   GL214014  17.266  18.502   6.649 -0.4377  0.0936  0.0932
  972YOPC   C1A14015  17.593  18.879   6.834  0.2198  0.0057  0.1925
  972YOPC   D2A14016  17.367  18.753   7.121 -0.1750  0.1910 -0.0444
  972YOPC   C3A14017  17.571  19.016   7.461 -0.1317 -0.0146 -0.0755
  972YOPC   C4A14018  17.965  19.052   7.695  0.1168  0.0501 -0.1612
  972YOPC   C1B14019  16.964  18.494   7.042 -0.3139  0.1911  0.1139
  972YOPC   C2B14020  16.528  18.677   7.087 -0.1822  0.0889  0.2900
  972YOPC   D3B14021  16.458  19.102   7.154 -0.1020 -0.3588  0.2491
  972YOPC   C4B14022  16.577  19.342   7.508  0.0392  0.0439  0.1401
  973YOPC   NC314023   4.046   9.151   5.916 -0.1323  0.0086  0.1993
  973YOPC   PO414024   3.986   9.497   5.993 -0.0766  0.3469  0.0383
  973YOPC   GL114025   3.725   9.645   6.386 -0.1028 -0.0764  0.0223
  973YOPC   GL214026   3.590   9.921   6.230 -0.1277  0.2379  0.0397
  973YOPC   C1A14027   3.517   9.732   6.759 -0.0397  0.2433  0.5225
  973YOPC   D2A14028   3.565  10.158   6.934  0.0200 -0.0847 -0.0798
  973YOPC   C3A14029   3.950  10.372   7.038 -0.3961  0.2203  0.2399
  973YOPC   C4A14030   4.152  10.735   7.068 -0.1683  0.1180  0.0608
  973YOPC   C1B14031   3.279  10.090   6.412  0.1062 -0.0216 -0.1359
  973YOPC   C2B14032   2.947  10.216   6.385  0.0614 -0.3049  0.0947
  973YOPC   D3B14033   2.787  10.343   6.800 -0.2605  0.0456 -0.1210
  973YOPC   C4B14034   2.733  10.287   7.298 -0.3065 -0.2028 -0.0764
  974YOPC   NC314035  12.952   1.992   5.594  0.0815 -0.2116 -0.0930
  974YOPC   PO414036  12.777   1.784   5.918  0.1842 -0.2464  0.1154
  974YOPC   GL114037  12.566   1.570   6.268  0.0060  0.3018 -0.2114
  974YOPC   GL214038  12.331   1.611   6.360 -0.1829 -0.3387 -0.0010
  974YOPC   C1A14039  12.526   1.355   6.746 -0.2439  0.4249 -0.0268
  974YOPC   D2A14040  12.525   1.517   7.181  0.3373 -0.2805 -0.2567
  974YOPC   C3A14041  12.354   1.849   7.245 -0.1136  0.1042 -0.0847
  974YOPC   C4A14042  12.227   2.182   7.543 -0.1737  0.2955 -0.0871
  974YOPC   C1B14043  12.103   1.364   6.572  0.0451 -0.0485  0.4469
  974YOPC   C2B14044  11.902   1.095   6.790  0.2013  0.0955 -0.0133
  974YOPC   D3B14045  11.611   0.909   6.516 -0.1146 -0.0670  0.1632
  974YOPC   C4B14046  11.166   0.709   6.422  0.1986  0.0320  0.0603
  975YOPC   NC314047   5.879   3.502   5.953 -0.2056  0.0833 -0.1663
  975YOPC   PO414048   6.228   3.610   5.944 -0.1698  0.2619 -0.0213
  975YOPC   GL114049   6.613   3.699   6.278  0.2614  0.0257  0.0411
  975YOPC   GL214050   6.841   3.789   6.019  0.2207  0.2386 -0.0023
  975YOPC   C1A14051   6.781   3.945   6.490 -0.1631 -0.0984 -0.0299
  975YOPC   D2A14052   7.126   4.102   6.779 -0.0740 -0.1255  0.2470
  975YOPC   C3A14053   7.007   4.229   7.166 -0.2944 -0.0011  0.0283
  975YOPC   C4A14054   6.631   4.112   7.396 -0.1683  0.4590  0.0460
  975YOPC   C1B14055   7.250   3.916   6.221  0.1066  0.1481 -0.2083
  975YOPC   C2B14056   7.485   3.801   6.572  0.2003  0.3412  0.0276
  975YOPC   D3B14057   7.499   3.392   6.855 -0.0245 -0.1877 -0.2990
  975YOPC   C4B14058   7.503   2.905   7.022 -0.1294 -0.1767 -0.1843
  976YOPC   NC314059   9.178   3.872   5.821 -0.4507  0.3861  0.3607
  976YOPC   PO414060   9.656   4.005   5.835 -0.0518  0.3416  0.0034
  976YOPC   GL114061   9.445   4.088   6.169  0.0653  0.0223 -0.1564
  976YOPC   GL214062   9.723   3.839   6.345 -0.0823  0.2946 -0.2543
  976YOPC   C1A14063   9.125   4.277   6.433 -0.0057  0.2581  0.0097
  976YOPC   D2A14064   9.009   4.374   6.843  0.0677  0.0046 -0.0750
  976YOPC   C3A14065   8.670   4.369   7.153 -0.1202 -0.5467 -0.3667
  976YOPC   C4A14066   8.332   4.491   7.357  0.1198  0.0529  0.0604
  976YOPC   C1B14067   9.754   4.193   6.651 -0.5213  0.1597  0.2217
  976YOPC   C2B14068   9.878   4.481   6.975  0.0808  0.2415  0.1332
  976YOPC   D3B14069   9.583   4.772   7.228  0.3042 -0.2037 -0.2383
  976YOPC   C4B14070   9.412   5.092   7.198  0.0388  0.1645  0.0562
  977YOPC   NC314071   5.259   6.394   6.111 -0.0499 -0.4057  0.3257
  977YOPC   PO414072   4.873   6.398   6.028 -0.4038 -0.1040  0.0130
  977YOPC   GL114073   4.702   6.308   6.378 -0.0385 -0.1423 -0.1524
  977YOPC   GL214074   4.881   6.101   6.459 -0.4895 -0.0792  0.0707
  977YOPC   C1A14075   4.369   6.400   6.725  0.0989  0.0375  0.0349
  977YOPC   D2A14076   4.282   6.712   7.100  0.0572 -0.0062 -0.2936
  977YOPC   C3A14077   4.342   6.664   7.535 -0.0805  0.1289 -0.0769
  977YOPC   C4A14078   4.568   6.534   7.829 -0.0069  0.1679 -0.0100
  977YOPC   C1B14079   5.194   6.209   6.779 -0.0986 -0.2126  0.0169
  977YOPC   C2B14080   5.278   6.257   7.122 -0.1315 -0.2388 -0.1666
  977YOPC   D3B14081   5.663   5.909   7.147 -0.2806 -0.3038  0.2823
  977YOPC   C4B14082   5.719   5.625   7.527 -0.1018  0.2862 -0.0798
  978YOPC   NC314083  14.358   2.922   6.366  0.1548  0.3611 -0.1099
  978YOPC   PO414084  14.116   2.677   6.121  0.0740 -0.3011 -0.0796
  978YOPC   GL114085  13.913   2.655   6.476 -0.1681  0.1666  0.0410
  978YOPC   GL214086  13.739   2.885   6.508 -0.2286  0.1867 -0.1230
  978YOPC   C1A14087  13.996   2.680   6.985  0.0743  0.0502 -0.1731
  978YOPC   D2A14088  14.016   2.580   7.433 -0.0494  0.1882 -0.0934
  978YOPC   C3A14089  13.991   2.877   7.807  0.1259 -0.1898  0.1565
  978YOPC   C4A14090  14.345   3.167   7.748  0.1757 -0.1894 -0.0174
  978YOPC   C1B14091  13.487   2.721   6.844 -0.1790 -0.0962 -0.1496
  978YOPC   C2B14092  13.530   2.575   7.253 -0.0240  0.1143  0.0907
  978YOPC   D3B14093  13.561   2.592   7.701  0.1573 -0.1335 -0.3386
  978YOPC   C4B14094  13.457   2.260   8.071  0.0079  0.1763 -0.3034
  979YOPC   NC314095   5.578   5.529   6.004 -0.0270  0.1287  0.1069
  979YOPC   PO414096   5.981   5.843   5.929 -0.1253 -0.2040 -0.0605
  979YOPC   GL114097   6.147   5.915   6.279 -0.2390  0.1352 -0.1137
  979YOPC   GL214098   6.116   6.168   6.473  0.0825 -0.1061  0.0348
  979YOPC   C1A14099   6.338   5.656   6.555  0.3101  0.2510 -0.1517
  979YOPC   D2A14100   6.564   5.598   6.941 -0.2281 -0.3221 -0.0990
  979YOPC   C3A14101   6.677   5.564   7.431 -0.0117 -0.0766 -0.2352
  979YOPC   C4A14102   6.939   5.685   7.543 -0.3101 -0.1066 -0.3354
  979YOPC   C1B14103   5.912   5.833   6.694 -0.1000  0.4733  0.1536
  979YOPC   C2B14104   5.490   5.755   6.729 -0.0611 -0.1682 -0.1078
  979YOPC   D3B14105   5.310   5.570   7.137  0.0500 -0.2723  0.2377
  979YOPC   C4B14106   5.545   5.173   7.245  0.3048  0.4447  0.2223
  980YOPC   NC314107   7.111  18.315   5.312  0.2903 -0.3850  0.0496
  980YOPC   PO414108   7.271  18.356   5.615  0.0955  0.0224  0.0631
  980YOPC   GL114109   7.261  18.358   5.975 -0.2111  0.1000  0.1520
  980YOPC   GL214110   7.153  18.664   6.015 -0.0035 -0.0067 -0.0307
  980YOPC   C1A14111   7.084  18.153   6.382  0.0707  0.0232 -0.0212
  980YOPC   D2A14112   7.088  17.734   6.687 -0.1505  0.0317  0.4599
  980YOPC   C3A14113   7.462  17.790   6.834 -0.1820 -0.0698 -0.2739
  980YOPC   C4A14114   7.464  17.745   7.392  0.2779 -0.0802  0.1506
  980YOPC   C1B14115   6.973  18.604   6.484  0.0034 -0.2240  0.3397
  980YOPC   C2B14116   6.602  18.612   6.672  0.2457 -0.5384  0.0132
  980YOPC   D3B14117   6.284  18.381   6.964  0.0427  0.3805  0.0358
  980YOPC   C4B14118   6.285  18.373   7.438 -0.3197 -0.1479 -0.1645
  981YOPC   NC314119  13.058   6.631   5.746  0.1844  0.3952  0.1299
  981YOPC   PO414120  12.740   6.624   6.012  0.0482 -0.0290  0.0784
  981YOPC   GL114121  12.440   6.925   6.229  0.2217  0.3983  0.2912
  981YOPC   GL214122  12.668   7.018   6.416 -0.1758 -0.1430 -0.1257
  981YOPC   C1A14123  12.233   7.249   6.569  0.0473 -0.0243  0.1519
  981YOPC   D2A14124  12.183   7.617   6.830 -0.2382  0.1284 -0.1241
  981YOPC   C3A14125  12.229   7.780   7.303  0.1390 -0.1615 -0.0554
  981YOPC   C4A14126  12.245   8.024   7.605 -0.0393  0.3390  0.1049
  981YOPC   C1B14127  12.886   6.755   6.709 -0.2490 -0.0709  0.0751
  981YOPC   C2B14128  13.239   6.525   6.875  0.2514  0.5093  0.0179
  981YOPC   D3B14129  13.159   6.405   7.187  0.1407 -0.2154 -0.2188
  981YOPC   C4B14130  13.047   6.404   7.618  0.1131  0.1777  0.3161
  982YOPC   NC314131   7.672   7.902   6.145 -0.3258  0.1012 -0.2191
  982YOPC   PO414132   8.043   8.028   5.940 -0.2369  0.1125 -0.1459
  982YOPC   GL114133   8.229   7.859   6.377 -0.1268 -0.1041 -0.3510
  982YOPC   GL214134   8.591   7.820   6.477  0.1057 -0.0946 -0.1806
  982YOPC   C1A14135   8.134   7.539   6.652  0.2187 -0.2072  0.0282
  982YOPC   D2A14136   8.111   7.275   7.046 -0.5540  0.1148 -0.0566
  982YOPC   C3A14137   8.038   7.530   7.537 -0.2094  0.1553  0.2961
  982YOPC   C4A14138   8.092   7.597   7.910  0.0383 -0.1641 -0.1685
  982YOPC   C1B14139   8.467   8.207   6.672  0.0819 -0.0344  0.2067
  982YOPC   C2B14140   8.274   8.630   6.795 -0.1711  0.0182 -0.2395
  982YOPC   D3B14141   8.438   9.029   6.907  0.0796 -0.2492  0.1069
  982YOPC   C4B14142   8.624   9.417   7.062  0.1901 -0.0382  0.0834
  983YOPC   NC314143  14.814  10.663   4.906 -0.0038 -0.3720 -0.1574
  983YOPC   PO414144  14.796  10.589   5.362  0.0435 -0.0243  0.2514
  983YOPC   GL114145  14.715  10.544   5.911 -0.2532 -0.0219  0.4563
  983YOPC   GL214146  14.506  10.280   6.049  0.0179 -0.1940 -0.1031
  983YOPC   C1A14147  14.970  10.521   6.332  0.3259  0.0833 -0.0901
  983YOPC   D2A14148  15.316  10.301   6.468  0.0743 -0.2907 -0.0649
  983YOPC   C3A14149  15.233  10.342   6.893  0.0685  0.0214 -0.1776
  983YOPC   C4A14150  15.367  10.313   7.277  0.0432  0.3359  0.0460
  983YOPC   C1B14151  14.434  10.536   6.389  0.0903  0.2155  0.0444
  983YOPC   C2B14152  14.265  10.613   6.839 -0.1722  0.2315  0.1843
  983YOPC   D3B14153  14.274  10.533   7.265  0.0843 -0.0890 -0.0977
  983YOPC   C4B14154  14.066  10.940   7.422 -0.0771  0.2512 -0.3260
  984YOPC   NC314155  15.050  13.601   5.666 -0.1834 -0.1163 -0.1958
  984YOPC   PO414156  15.482  13.645   5.641  0.0295  0.0012 -0.2466
  984YOPC   GL114157  15.279  13.702   6.069  0.0854 -0.1227  0.0110
  984YOPC   GL214158  15.420  13.923   6.198 -0.0874  0.0345 -0.1740
  984YOPC   C1A14159  14.925  13.758   6.435 -0.1937 -0.1164  0.1358
  984YOPC   D2A14160  14.696  13.642   6.756 -0.1765  0.2443 -0.0601
  984YOPC   C3A14161  14.751  13.246   6.979 -0.0003  0.1040 -0.0429
  984YOPC   C4A14162  14.838  12.929   6.606  0.0924 -0.2978  0.1012
  984YOPC   C1B14163  15.292  13.993   6.611  0.1053 -0.1040 -0.1748
  984YOPC   C2B14164  15.097  13.987   6.942  0.0876 -0.1657  0.0747
  984YOPC   D3B14165  15.127  14.337   7.229  0.2115 -0.3343 -0.3240
  984YOPC   C4B14166  15.261  14.744   7.205  0.0745  0.0900 -0.0337
  985YOPC   NC314167  14.720   3.901   6.177 -0.0317  0.2438 -0.0039
  985YOPC   PO414168  15.008   3.416   6.161  0.0339  0.1806 -0.2107
  985YOPC   GL114169  15.160   3.671   6.551  0.0533 -0.0110 -0.2003
  985YOPC   GL214170  15.089   3.457   6.748 -0.0227 -0.1665 -0.5097
  985YOPC   C1A14171  15.007   3.957   6.760 -0.0939  0.0199  0.1965
  985YOPC   D2A14172  15.263   4.222   6.788  0.2918 -0.3297  0.0688
  985YOPC   C3A14173  15.113   4.632   7.016  0.2204 -0.0358 -0.1279
  985YOPC   C4A14174  15.342   4.972   6.931 -0.0515 -0.2572 -0.5676
  985YOPC   C1B14175  14.899   3.177   7.068  0.1412  0.3288  0.0009
  985YOPC   C2B14176  14.822   2.928   7.391 -0.1458 -0.0599 -0.2312
  985YOPC   D3B14177  14.906   3.022   7.747 -0.0801 -0.0573  0.0789
  985YOPC   C4B14178  14.863   3.132   8.082  0.2009 -0.1355 -0.1534
  986YOPC   NC314179   6.787  13.690   5.460  0.0015 -0.2905  0.1324
  986YOPC   PO414180   6.904  13.988   5.483 -0.2047  0.2578  0.0747
  986YOPC   GL114181   7.223  14.048   5.812  0.0559  0.0146  0.1678
  986YOPC   GL214182   7.453  14.344   5.693  0.2683 -0.0268 -0.0658
  986YOPC   C1A14183   7.364  14.014   6.171  0.0876  0.1287  0.2488
  986YOPC   D2A14184   7.779  13.996   6.393 -0.1655  0.2962  0.1618
  986YOPC   C3A14185   7.987  14.305   6.485  0.0934 -0.0063 -0.2470
  986YOPC   C4A14186   8.217  14.681   6.340  0.1973 -0.0045  0.0998
  986YOPC   C1B14187   7.707  14.363   6.032 -0.1849  0.1706 -0.3214
  986YOPC   C2B14188   7.689  14.674   6.364  0.1763 -0.1245 -0.2554
  986YOPC   D3B14189   7.973  14.816   6.758 -0.0843  0.2715 -0.1630
  986YOPC   C4B14190   8.252  14.789   7.176 -0.0336  0.2346  0.2791
  987YOPC   NC314191  15.666   4.588   6.068 -0.3235 -0.1040  0.1200
  987YOPC   PO414192  15.593   4.293   6.332  0.1216  0.1630 -0.4389
  987YOPC   GL114193  15.731   3.999   6.680 -0.0472  0.2259  0.2706
  987YOPC   GL214194  15.717   3.730   6.609 -0.2129  0.0347 -0.0733
  987YOPC   C1A14195  15.905   3.647   7.082  0.0068  0.1868 -0.1517
  987YOPC   D2A14196  15.911   3.629   7.565 -0.1664 -0.1011  0.0113
  987YOPC   C3A14197  15.693   3.604   7.853 -0.2996  0.0866  0.0180
  987YOPC   C4A14198  15.752   3.535   8.216 -0.0134  0.0168 -0.1431
  987YOPC   C1B14199  15.439   3.801   6.990  0.1456  0.0374 -0.0148
  987YOPC   C2B14200  15.154   4.019   7.261 -0.2647 -0.1740 -0.0107
  987YOPC   D3B14201  15.163   4.389   7.483 -0.0890  0.1371 -0.3651
  987YOPC   C4B14202  15.151   4.632   7.860  0.0476 -0.0064  0.1493
  988YOPC   NC314203  12.208  10.297   5.351 -0.5631  0.0665  0.1291
  988YOPC   PO414204  11.876  10.137   5.763 -0.2262  0.0626  0.3602
  988YOPC   GL114205  12.209  10.277   5.965 -0.0103  0.0518 -0.1060
  988YOPC   GL214206  12.309  10.618   5.847  0.2796  0.0838 -0.2106
  988YOPC   C1A14207  12.357  10.200   6.345  0.1785  0.0175 -0.0273
  988YOPC   D2A14208  12.400  10.361   6.785 -0.2779 -0.0108  0.3219
  988YOPC   C3A14209  12.673  10.677   6.879 -0.1222 -0.3597 -0.0944
  988YOPC   C4A14210  12.935  10.938   7.191 -0.0298  0.2209 -0.0002
  988YOPC   C1B14211  12.123  10.758   6.267  0.1557  0.0175 -0.0671
  988YOPC   C2B14212  12.064  10.692   6.785 -0.0984  0.1154  0.2051
  988YOPC   D3B14213  11.721  10.334   6.888 -0.2941 -0.3709  0.0608
  988YOPC   C4B14214  11.398  10.134   7.010 -0.1185  0.1246 -0.1322
  989YOPC   NC314215   6.475   5.883   5.893 -0.1164 -0.3653 -0.1344
  989YOPC   PO414216   6.675   6.208   6.079  0.0151 -0.0951 -0.1069
  989YOPC   GL114217   6.751   6.015   6.333 -0.2041 -0.1231  0.0442
  989YOPC   GL214218   6.715   6.140   6.702  0.1766  0.1620 -0.1836
  989YOPC   C1A14219   7.049   5.836   6.510  0.0902  0.1623  0.2592
  989YOPC   D2A14220   7.046   5.770   6.991  0.2009  0.3657  0.2248
  989YOPC   C3A14221   6.703   5.986   7.196  0.2682  0.2460  0.2241
  989YOPC   C4A14222   6.601   6.130   7.553  0.0883  0.0698  0.1831
  989YOPC   C1B14223   6.268   6.019   6.919 -0.2544 -0.1284 -0.1880
  989YOPC   C2B14224   6.243   5.804   7.355  0.3145  0.2720  0.2246
  989YOPC   D3B14225   5.993   6.107   7.493 -0.1395 -0.3188  0.2225
  989YOPC   C4B14226   5.534   6.151   7.550 -0.0432 -0.3822 -0.1932
  990YOPC   NC314227  12.636   4.694   6.329  0.0478  0.1947  0.3931
  990YOPC   PO414228  12.859   4.402   6.555  0.2148 -0.0667 -0.0280
  990YOPC   GL114229  13.080   4.125   6.840  0.0776 -0.0794 -0.3012
  990YOPC   GL214230  13.250   4.015   6.671  0.0675  0.0828  0.0752
  990YOPC   C1A14231  13.125   4.034   7.380 -0.2516 -0.1569  0.3140
  990YOPC   D2A14232  13.382   4.328   7.654  0.1854  0.0312 -0.2556
  990YOPC   C3A14233  13.282   4.650   7.680 -0.0586  0.0081 -0.5638
  990YOPC   C4A14234  13.478   5.053   7.682 -0.3891  0.1224  0.1113
  990YOPC   C1B14235  13.489   3.830   6.995 -0.0259 -0.1441  0.1295
  990YOPC   C2B14236  13.798   3.723   7.243 -0.1608 -0.1099 -0.2460
  990YOPC   D3B14237  14.132   3.488   7.337  0.0697  0.0168 -0.1097
  990YOPC   C4B14238  14.276   2.974   7.286 -0.1886 -0.0306  0.0983
  991YOPC   NC314239  14.308   6.105   6.183 -0.0731 -0.2593 -0.0312
  991YOPC   PO414240  14.248   5.726   6.224 -0.1281  0.0790  0.0096
  991YOPC   GL114241  14.225   5.467   6.643 -0.2720 -0.1308 -0.2132
  991YOPC   GL214242  14.215   5.144   6.805 -0.2043  0.0580  0.1241
  991YOPC   C1A14243  14.268   5.656   7.097 -0.1256  0.3908  0.0123
  991YOPC   D2A14244  14.331   5.405   7.426 -0.0747 -0.0594  0.0251
  991YOPC   C3A14245  14.438   5.364   7.848 -0.1637  0.0849 -0.3233
  991YOPC   C4A14246  14.717   5.307   8.325 -0.1097  0.1213 -0.0471
  991YOPC   C1B14247  14.305   4.916   7.175 -0.0265 -0.2540 -0.0986
  991YOPC   C2B14248  14.152   4.932   7.632  0.0961  0.1825 -0.1063
  991YOPC   D3B14249  14.306   4.708   7.806 -0.0400  0.0454 -0.0849
  991YOPC   C4B14250  14.269   5.000   8.152 -0.3599 -0.0071  0.0008
  992YOPC   NC314251  17.823  17.560   5.404 -0.0329  0.1218  0.2122
  992YOPC   PO414252  17.806  17.366   5.794 -0.0045  0.2129  0.2146
  992YOPC   GL114253  17.973  17.367   6.114  0.2915  0.0823 -0.0485
  992YOPC   GL214254  17.772  17.199   6.345  0.0961 -0.1280 -0.3043
  992YOPC   C1A14255  18.263  17.366   6.361  0.2094 -0.1125  0.2060
  992YOPC   D2A14256  18.510  17.545   6.682  0.2680 -0.1404 -0.3448
  992YOPC   C3A14257  18.446  17.778   7.048  0.0458 -0.0358 -0.1212
  992YOPC   C4A14258  18.284  18.190   7.292 -0.0325 -0.0732 -0.0239
  992YOPC   C1B14259  17.927  17.368   6.741  0.2877  0.1935  0.0081
  992YOPC   C2B14260  18.106  17.228   7.027 -0.2247 -0.1125 -0.1026
  992YOPC   D3B14261  18.157  17.401   7.421 -0.0681  0.1273  0.1156
  992YOPC   C4B14262  18.232  17.750   7.591 -0.0521 -0.0529  0.2541
  993YOPC   NC314263  12.771   9.646   5.599 -0.0668  0.1883 -0.0755
  993YOPC   PO414264  13.154   9.462   5.932 -0.1926  0.0225 -0.1840
  993YOPC   GL114265  13.309   9.684   6.265  0.2134  0.1107  0.2439
  993YOPC   GL214266  13.390  10.054   6.243  0.1325 -0.0429 -0.1620
  993YOPC   C1A14267  13.108   9.863   6.608  0.1772  0.0461  0.1296
  993YOPC   D2A14268  12.675   9.888   6.629  0.1242 -0.0356 -0.1829
  993YOPC   C3A14269  12.528   9.949   6.981  0.0582  0.2027  0.2316
  993YOPC   C4A14270  12.471   9.882   7.441 -0.2470 -0.1407  0.0728
  993YOPC   C1B14271  13.485  10.354   6.590  0.2823  0.0304  0.2598
  993YOPC   C2B14272  13.743  10.484   6.944 -0.0345 -0.2199 -0.1159
  993YOPC   D3B14273  13.743  10.466   7.413  0.0828 -0.0739  0.1193
  993YOPC   C4B14274  13.925  10.701   7.827 -0.1987  0.1030  0.3101
  994YOPC   NC314275   4.236   7.055   5.671 -0.0792  0.0652  0.1028
  994YOPC   PO414276   4.446   7.373   5.968  0.1824 -0.1023 -0.3438
  994YOPC   GL114277   4.542   7.587   6.350 -0.0044 -0.0276  0.1254
  994YOPC   GL214278   4.372   7.889   6.382  0.0588  0.3631  0.0219
  994YOPC   C1A14279   4.414   7.560   6.824  0.0162 -0.2204  0.3032
  994YOPC   D2A14280   4.359   7.708   7.256  0.3558  0.1358 -0.2800
  994YOPC   C3A14281   4.549   7.413   7.503 -0.3867  0.1114 -0.2364
  994YOPC   C4A14282   4.342   7.111   7.813  0.3114  0.0498  0.2038
  994YOPC   C1B14283   4.121   8.020   6.751 -0.0730 -0.1647 -0.0812
  994YOPC   C2B14284   4.005   8.246   7.119 -0.2050 -0.1638 -0.1194
  994YOPC   D3B14285   4.106   8.503   7.502 -0.1516 -0.3996  0.1569
  994YOPC   C4B14286   4.501   8.470   7.799  0.1863 -0.2707  0.3173
  995YOPC   NC314287   4.679   8.247   6.045  0.0799 -0.1399 -0.1775
  995YOPC   PO414288   4.903   7.851   6.019 -0.0977  0.0753 -0.1338
  995YOPC   GL114289   4.854   8.048   6.518 -0.0276  0.2102  0.0382
  995YOPC   GL214290   4.967   7.743   6.682 -0.1494  0.2125 -0.2391
  995YOPC   C1A14291   5.101   8.191   6.941  0.0266 -0.0422  0.1359
  995YOPC   D2A14292   5.334   8.031   7.380 -0.2988 -0.0824 -0.2124
  995YOPC   C3A14293   5.138   8.203   7.631  0.0621  0.0065  0.0652
  995YOPC   C4A14294   4.966   8.591   7.549 -0.1361  0.0611 -0.4519
  995YOPC   C1B14295   4.874   7.683   7.132 -0.0518 -0.0682  0.1297
  995YOPC   C2B14296   5.051   7.662   7.547 -0.2650 -0.2455  0.0048
  995YOPC   D3B14297   4.967   7.355   7.825 -0.0852  0.0339  0.3395
  995YOPC   C4B14298   4.870   7.204   8.265 -0.2547 -0.0057  0.2358
  996YOPC   NC314299   7.928  11.962   5.402 -0.5454  0.2052  0.1385
  996YOPC   PO414300   7.545  11.957   5.687 -0.2723 -0.1394 -0.0061
  996YOPC   GL114301   7.833  12.199   5.917 -0.0046 -0.3701 -0.2201
  996YOPC   GL214302   7.703  12.106   6.161 -0.1879  0.0571  0.1406
  996YOPC   C1A14303   8.056  12.364   6.373 -0.0850 -0.1583  0.3733
  996YOPC   D2A14304   8.211  12.179   6.636 -0.0229  0.2733  0.2186
  996YOPC   C3A14305   8.143  11.755   6.846 -0.2023  0.0891 -0.2525
  996YOPC   C4A14306   8.189  11.353   7.103 -0.0002 -0.2675  0.0085
  996YOPC   C1B14307   7.680  12.113   6.555  0.2389 -0.1167 -0.0766
  996YOPC   C2B14308   7.801  12.160   6.926 -0.0069  0.2611 -0.1890
  996YOPC   D3B14309   7.814  12.423   7.160  0.2049 -0.1177  0.1405
  996YOPC   C4B14310   8.084  12.422   7.476 -0.0970  0.0521  0.0884
  997YOPC   NC314311   6.013   9.959   5.558  0.0842  0.0737  0.0999
  997YOPC   PO414312   5.789   9.596   5.706  0.0854  0.1851  0.3225
  997YOPC   GL114313   6.094   9.326   6.047  0.0578  0.2100 -0.2373
  997YOPC   GL214314   5.847   9.048   6.176 -0.0201 -0.0277  0.0949
  997YOPC   C1A14315   6.416   9.173   6.295 -0.2789  0.0398 -0.3761
  997YOPC   D2A14316   6.507   9.177   6.773  0.2595 -0.4691  0.0094
  997YOPC   C3A14317   6.234   9.113   7.240  0.1909 -0.1030  0.0281
  997YOPC   C4A14318   6.080   9.203   7.648  0.1104 -0.0251 -0.0515
  997YOPC   C1B14319   5.520   9.217   6.511 -0.1764 -0.1401 -0.0028
  997YOPC   C2B14320   5.093   9.071   6.665 -0.1622  0.2663  0.0308
  997YOPC   D3B14321   4.803   9.137   7.103  0.2743 -0.3325  0.0217
  997YOPC   C4B14322   4.866   9.297   7.396  0.0171 -0.1339 -0.2571
  998YOPC   NC314323   7.784   0.670   5.973 -0.0010  0.3705  0.0950
  998YOPC   PO414324   8.154   0.361   5.943  0.0282  0.1130 -0.0361
  998YOPC   GL114325   8.213   0.148   6.272 -0.0468  0.0123 -0.3729
  998YOPC   GL214326   8.507   0.047   6.297 -0.3986 -0.0189 -0.0741
  998YOPC   C1A14327   7.874  -0.079   6.547  0.0707  0.0643  0.1780
  998YOPC   D2A14328   7.891  -0.440   6.833  0.1428  0.2849  0.5522
  998YOPC   C3A14329   7.857  -0.521   7.193  0.1414  0.0220 -0.1560
  998YOPC   C4A14330   7.882  -0.458   7.773  0.2910 -0.1335  0.1775
  998YOPC   C1B14331   8.447   0.125   6.718  0.0435  0.2852  0.2307
  998YOPC   C2B14332   8.251  -0.142   7.000  0.0799 -0.1072  0.0382
  998YOPC   D3B14333   8.495  -0.045   7.279  0.2535  0.1303  0.0449
  998YOPC   C4B14334   8.779  -0.092   7.716  0.2141  0.0825  0.1158
  999YOPC   NC314335  16.736   3.812   5.791  0.1053  0.1191 -0.3492
  999YOPC   PO414336  16.794   3.640   6.151  0.0016 -0.3759  0.1284
  999YOPC   GL114337  16.518   3.582   6.400  0.0319 -0.0333 -0.0618
  999YOPC   GL214338  16.269   3.763   6.467 -0.1076 -0.0340  0.1748
  999YOPC   C1A14339  16.329   3.371   6.834  0.1513 -0.2145 -0.2907
  999YOPC   D2A14340  16.460   3.527   7.220  0.4808 -0.1994  0.1278
  999YOPC   C3A14341  16.350   3.276   7.505 -0.0114  0.2026 -0.1177
  999YOPC   C4A14342  16.300   2.907   7.822 -0.0994 -0.2780  0.3743
  999YOPC   C1B14343  16.642   3.837   6.860  0.1381  0.3602 -0.3744
  999YOPC   C2B14344  16.744   4.023   7.310 -0.1465  0.3133 -0.0143
  999YOPC   D3B14345  16.551   3.718   7.653 -0.0876 -0.2636 -0.1904
  999YOPC   C4B14346  16.679   3.421   7.963  0.0887  0.1863 -0.0656
 1000YOPC   NC314347   8.733   8.332   5.966 -0.3468 -0.0316  0.1857
 1000YOPC   PO414348   8.684   8.778   5.936 -0.1820 -0.2229  0.2839
 1000YOPC   GL114349   8.704   9.109   6.192 -0.2337 -0.0700  0.0323
 1000YOPC   GL214350   8.588   9.346   6.050  0.2228  0.0591 -0.0627
 1000YOPC   C1A14351   8.859   9.018   6.583  0.2490  0.2798  0.4928
 1000YOPC   D2A14352   8.841   8.788   6.983 -0.1086  0.0761 -0.0446
 1000YOPC   C3A14353   8.727   9.060   7.382 -0.2391  0.1710 -0.1147
 1000YOPC   C4A14354   8.608   9.362   7.635  0.0179 -0.0377 -0.1013
 1000YOPC   C1B14355   8.508   9.390   6.547  0.1314  0.0888  0.2688
 1000YOPC   C2B14356   8.207   9.466   6.813 -0.1369  0.1919 -0.2031
 1000YOPC   D3B14357   8.171   9.383   7.252  0.4024 -0.0188  0.1330
 1000YOPC   C4B14358   7.793   9.208   7.438  0.0877 -0.0481 -0.1350
 1001YOPC   NC314359  18.106   2.558   6.114  0.4035 -0.2910 -0.2412
 1001YOPC   PO414360  17.965   2.069   6.091 -0.1132  0.0426  0.2019
 1001YOPC   GL114361  18.151   2.043   6.521 -0.1654  0.2570  0.5196
 1001YOPC   GL214362  18.286   2.201   6.549 -0.0344 -0.1395 -0.3007
 1001YOPC   C1A14363  17.968   2.158   6.917  0.1664  0.0575 -0.2290
 1001YOPC   D2A14364  17.829   2.058   7.254  0.1195 -0.0337 -0.3693
 1001YOPC   C3A14365  18.077   1.829   7.561 -0.0709 -0.1396  0.0848
 1001YOPC   C4A14366  18.054   1.850   7.935  0.1270  0.2721 -0.3422
 1001YOPC   C1B14367  18.503   2.433   6.827 -0.3618  0.0295  0.0764
 1001YOPC   C2B14368  18.520   2.550   7.232  0.0432 -0.0751 -0.0582
 1001YOPC   D3B14369  18.258   2.706   7.726 -0.0706 -0.0782  0.0755
 1001YOPC   C4B14370  17.874   2.778   8.023 -0.2488  0.0597 -0.4129
 1002YOPC   NC314371   2.229   3.078   5.406 -0.1236 -0.1665 -0.0834
 1002YOPC   PO414372   2.650   3.099   5.568 -0.0284  0.0096  0.1148
 1002YOPC   GL114373   2.766   2.935   6.024 -0.3006  0.0243 -0.1282
 1002YOPC   GL214374   2.753   2.562   6.113  0.0688 -0.0887  0.1424
 1002YOPC   C1A14375   2.937   2.980   6.470 -0.0652 -0.0895 -0.1142
 1002YOPC   D2A14376   3.135   2.822   6.883  0.0811 -0.2717  0.1418
 1002YOPC   C3A14377   3.161   3.023   7.191 -0.1223  0.1936 -0.1983
 1002YOPC   C4A14378   3.441   2.693   7.499 -0.2966 -0.2608 -0.0534
 1002YOPC   C1B14379   2.559   2.670   6.444 -0.0589  0.1828  0.0167
 1002YOPC   C2B14380   2.554   2.692   6.931 -0.0045  0.1384 -0.0884
 1002YOPC   D3B14381   2.232   2.727   7.240  0.3582  0.5148  0.1195
 1002YOPC   C4B14382   1.907   2.784   7.579 -0.3956  0.1001 -0.0515
 1003YOPC   NC314383   8.734  10.625   5.356 -0.1056 -0.0221 -0.2540
 1003YOPC   PO414384   9.079  10.523   5.460 -0.0760  0.2101  0.3421
 1003YOPC   GL114385   9.011  10.605   5.920 -0.3779 -0.0670  0.2043
 1003YOPC   GL214386   8.747  10.371   5.987  0.1828  0.1228  0.0803
 1003YOPC   C1A14387   9.385  10.571   6.274  0.2607 -0.1088  0.0081
 1003YOPC   D2A14388   9.811  10.799   6.130 -0.3744 -0.4223 -0.1230
 1003YOPC   C3A14389  10.316  10.733   6.283 -0.1882 -0.2233 -0.1602
 1003YOPC   C4A14390  10.298  10.808   6.868  0.1748  0.2752 -0.3947
 1003YOPC   C1B14391   8.892  10.492   6.405 -0.0490  0.0589  0.0054
 1003YOPC   C2B14392   8.898  10.307   6.838  0.2153 -0.0906  0.2575
 1003YOPC   D3B14393   8.771  10.667   7.082  0.0254 -0.2299 -0.1067
 1003YOPC   C4B14394   8.558  11.040   7.190  0.0524  0.0133 -0.2135
 1004YOPC   NC314395  13.276  17.945   5.644  0.0089  0.0468 -0.0806
 1004YOPC   PO414396  13.505  17.798   5.502 -0.2429 -0.1601  0.2314
 1004YOPC   GL114397  13.415  17.556   5.977  0.2090  0.2239  0.0795
 1004YOPC   GL214398  13.655  17.549   6.244 -0.0276  0.1401 -0.1874
 1004YOPC   C1A14399  13.091  17.563   6.264  0.3639 -0.2347  0.0994
 1004YOPC   D2A14400  12.774  17.277   6.434  0.2300 -0.0070  0.1143
 1004YOPC   C3A14401  12.508  17.389   6.706 -0.0200  0.1081 -0.2236
 1004YOPC   C4A14402  12.521  17.411   7.185  0.0423  0.1748 -0.3896
 1004YOPC   C1B14403  13.681  17.534   6.722 -0.1913  0.2098 -0.1765
 1004YOPC   C2B14404  13.524  17.642   7.031 -0.0522 -0.1539  0.1427
 1004YOPC   D3B14405  13.704  17.578   7.423  0.1297  0.0738  0.0933
 1004YOPC   C4B14406  13.977  17.438   7.774  0.0388  0.1670 -0.2531
 1005YOPC   NC314407   9.610   1.867   5.520  0.2374 -0.1625  0.0665
 1005YOPC   PO414408   9.869   1.787   5.835  0.1147  0.2973  0.0016
 1005YOPC   GL114409   9.941   1.891   6.243 -0.1303  0.1730  0.0044
 1005YOPC   GL214410  10.220   1.929   6.338 -0.2563 -0.0134 -0.1230
 1005YOPC   C1A14411   9.737   1.957   6.581  0.2121 -0.1390  0.1394
 1005YOPC   D2A14412   9.648   1.819   6.983 -0.0949 -0.1539 -0.0607
 1005YOPC   C3A14413   9.329   1.918   7.349 -0.1800  0.1166 -0.1665
 1005YOPC   C4A14414   8.873   1.832   7.519 -0.0549  0.1021 -0.0695
 1005YOPC   C1B14415  10.445   1.873   6.799 -0.1324 -0.1551 -0.1367
 1005YOPC   C2B14416  10.580   1.935   7.121 -0.0447  0.1154 -0.0091
 1005YOPC   D3B14417  10.428   2.156   7.396 -0.0949  0.0917 -0.0821
 1005YOPC   C4B14418  10.307   2.088   7.781  0.3482  0.1892  0.0257
 1006YOPC   NC314419   4.387   6.173   5.922 -0.3049 -0.0353  0.1837
 1006YOPC   PO414420   4.244   5.658   5.890  0.0879  0.0972  0.5501
 1006YOPC   GL114421   4.495   5.549   6.200 -0.0649  0.0650 -0.1105
 1006YOPC   GL214422   4.837   5.314   6.364 -0.0070  0.3589  0.0695
 1006YOPC   C1A14423   4.553   5.696   6.599  0.1246  0.2394 -0.2049
 1006YOPC   D2A14424   4.531   5.950   6.900  0.0135 -0.1566  0.2702
 1006YOPC   C3A14425   4.848   5.923   7.225  0.0434 -0.3785  0.0720
 1006YOPC   C4A14426   5.076   5.944   7.435 -0.0134  0.2139  0.1895
 1006YOPC   C1B14427   4.909   5.579   6.870 -0.3463  0.1592 -0.1427
 1006YOPC   C2B14428   4.816   5.403   7.301 -0.1065  0.1063 -0.2914
 1006YOPC   D3B14429   5.174   5.309   7.658  0.4711  0.0387  0.2785
 1006YOPC   C4B14430   5.611   5.165   7.739  0.4767 -0.0036  0.0456
 1007YOPC   NC314431  12.113   4.430   6.326 -0.0031 -0.1296  0.1927
 1007YOPC   PO414432  12.116   4.880   6.314  0.1383 -0.3998 -0.3237
 1007YOPC   GL114433  12.216   4.792   6.716  0.0617  0.2272 -0.1354
 1007YOPC   GL214434  12.403   4.449   6.826 -0.2491  0.1597 -0.1058
 1007YOPC   C1A14435  12.225   4.982   7.063 -0.1446  0.0986  0.1012
 1007YOPC   D2A14436  11.998   5.089   7.449  0.2804 -0.3102  0.3707
 1007YOPC   C3A14437  11.657   5.435   7.393 -0.2036 -0.0241  0.0749
 1007YOPC   C4A14438  11.495   5.650   7.045 -0.0869  0.0516  0.1554
 1007YOPC   C1B14439  12.078   4.388   7.075  0.1529  0.0095 -0.0772
 1007YOPC   C2B14440  11.750   4.641   7.174 -0.2450 -0.3043  0.0992
 1007YOPC   D3B14441  11.519   4.531   7.605  0.4779  0.0014  0.0416
 1007YOPC   C4B14442  11.147   4.786   7.880  0.1376  0.1314  0.2817
 1008YOPC   NC314443   2.931   5.602   5.990  0.1523 -0.1848 -0.2441
 1008YOPC   PO414444   3.065   5.217   5.881 -0.1446  0.0870 -0.0311
 1008YOPC   GL114445   3.199   5.349   6.385  0.2990  0.0082 -0.1790
 1008YOPC   GL214446   3.508   5.385   6.470 -0.1829 -0.0782 -0.0450
 1008YOPC   C1A14447   3.027   5.440   6.784  0.0309 -0.0420 -0.0837
 1008YOPC   D2A14448   3.223   5.365   7.157  0.1578 -0.1127  0.0097
 1008YOPC   C3A14449   3.453   5.631   7.296 -0.2549  0.1693 -0.4858
 1008YOPC   C4A14450   3.905   5.712   7.307 -0.1234 -0.3836 -0.0279
 1008YOPC   C1B14451   3.687   5.032   6.599 -0.1822 -0.0591  0.0903
 1008YOPC   C2B14452   4.079   4.941   6.953 -0.1011 -0.0971 -0.2369
 1008YOPC   D3B14453   3.905   4.830   7.283 -0.0240  0.0230 -0.1470
 1008YOPC   C4B14454   3.895   4.601   7.549  0.1975  0.0966  0.2184
 1009YOPC   NC314455   3.566   0.992   5.013  0.2646 -0.0319  0.0735
 1009YOPC   PO414456   3.706   1.192   5.467  0.1827  0.3117 -0.2203
 1009YOPC   GL114457   3.581   1.436   5.846  0.0956 -0.0880 -0.1039
 1009YOPC   GL214458   3.382   1.191   6.095 -0.0509 -0.1002 -0.0139
 1009YOPC   C1A14459   3.821   1.489   6.309 -0.1644 -0.1373 -0.0533
 1009YOPC   D2A14460   4.091   1.553   6.680 -0.1940 -0.1000  0.1356
 1009YOPC   C3A14461   4.033   1.782   7.012 -0.2018  0.0433  0.3278
 1009YOPC   C4A14462   4.269   1.881   7.412 -0.0605  0.0626  0.0966
 1009YOPC   C1B14463   3.332   1.353   6.456 -0.5454 -0.0962 -0.0053
 1009YOPC   C2B14464   3.589   1.625   6.732  0.1016  0.1647  0.2373
 1009YOPC   D3B14465   3.676   1.493   7.178 -0.1711  0.3571 -0.1205
 1009YOPC   C4B14466   3.490   1.051   7.300 -0.0670 -0.1447 -0.0150
 1010YOPC   NC314467   8.473  17.887   5.738  0.2375  0.3748  0.0809
 1010YOPC   PO414468   8.454  17.397   5.828 -0.2706 -0.3630  0.2867
 1010YOPC   GL114469   8.531  17.094   5.923  0.1003 -0.3904  0.0721
 1010YOPC   GL214470   8.332  17.016   6.134  0.0932 -0.1369  0.2670
 1010YOPC   C1A14471   8.742  16.679   6.077  0.1199 -0.0378  0.2486
 1010YOPC   D2A14472   8.780  16.309   6.263  0.0963  0.0832  0.0837
 1010YOPC   C3A14473   8.950  16.369   6.715  0.2832  0.2645 -0.0123
 1010YOPC   C4A14474   9.057  16.613   7.004 -0.2010 -0.1153  0.1045
 1010YOPC   C1B14475   8.018  17.026   6.443  0.1635 -0.2447  0.1239
 1010YOPC   C2B14476   7.889  16.935   6.814 -0.0787  0.4647 -0.0340
 1010YOPC   D3B14477   7.518  16.898   6.895 -0.1697  0.3597  0.0277
 1010YOPC   C4B14478   7.203  16.778   7.114 -0.0358  0.2636 -0.3478
 1011YOPC   NC314479  17.964  13.270   5.691 -0.0728  0.1855 -0.4379
 1011YOPC   PO414480  17.911  13.688   5.858 -0.1960 -0.0501  0.0721
 1011YOPC   GL114481  18.142  13.539   6.221  0.1789 -0.0749  0.1380
 1011YOPC   GL214482  18.083  13.722   6.501 -0.3387 -0.0343  0.3802
 1011YOPC   C1A14483  18.294  13.234   6.545 -0.2406  0.0370  0.2239
 1011YOPC   D2A14484  18.275  13.478   6.887 -0.0244  0.1277  0.3807
 1011YOPC   C3A14485  17.947  13.440   6.996 -0.0405  0.0719  0.1569
 1011YOPC   C4A14486  17.484  13.452   6.933  0.2788  0.1161  0.0149
 1011YOPC   C1B14487  17.849  13.913   6.824 -0.2347 -0.0713 -0.1304
 1011YOPC   C2B14488  17.755  14.326   6.854 -0.1506 -0.4927 -0.0947
 1011YOPC   D3B14489  17.453  14.553   6.729  0.2526 -0.3489 -0.1031
 1011YOPC   C4B14490  16.976  14.485   6.964  0.0869  0.3456 -0.0285
 1012YOPC   NC314491  15.846  16.817   5.922  0.0505 -0.1264 -0.1115
 1012YOPC   PO414492  15.580  16.488   5.815 -0.0284  0.1059  0.1679
 1012YOPC   GL114493  15.585  16.286   6.211 -0.2817 -0.2069  0.0737
 1012YOPC   GL214494  15.488  15.933   6.262 -0.0897 -0.0547  0.2541
 1012YOPC   C1A14495  15.489  16.324   6.635  0.0694 -0.1879 -0.4696
 1012YOPC   D2A14496  15.312  16.315   7.005 -0.0474 -0.0496  0.0746
 1012YOPC   C3A14497  15.053  16.624   7.230 -0.2759 -0.2435  0.1255
 1012YOPC   C4A14498  14.997  16.625   7.622 -0.0755  0.1963 -0.1778
 1012YOPC   C1B14499  15.345  15.827   6.719 -0.1665  0.0058  0.1252
 1012YOPC   C2B14500  15.324  15.792   7.108 -0.0019  0.0232  0.1110
 1012YOPC   D3B14501  15.639  15.524   7.336 -0.0060  0.0350 -0.2124
 1012YOPC   C4B14502  15.851  15.444   7.669  0.0267  0.1019  0.1713
 1013YOPC   NC314503  18.034   7.091   5.864  0.3284  0.1206  0.2746
 1013YOPC   PO414504  18.480   6.903   6.019  0.2870 -0.0794  0.0282
 1013YOPC   GL114505  18.339   6.611   6.440 -0.0978 -0.0963  0.0625
 1013YOPC   GL214506  18.666   6.359   6.508  0.3130 -0.2561  0.1290
 1013YOPC   C1A14507  18.290   6.437   6.968 -0.1515 -0.1575 -0.1217
 1013YOPC   D2A14508  17.956   6.421   7.257  0.0757 -0.0819  0.0907
 1013YOPC   C3A14509  18.003   6.277   7.675 -0.6116 -0.4199  0.2652
 1013YOPC   C4A14510  18.409   6.193   7.802  0.1471 -0.1633 -0.2335
 1013YOPC   C1B14511  18.513   6.048   6.805 -0.1663  0.1654 -0.0550
 1013YOPC   C2B14512  18.572   6.160   7.242 -0.0281 -0.1314 -0.4132
 1013YOPC   D3B14513  18.913   6.332   7.476 -0.3555  0.1644 -0.2787
 1013YOPC   C4B14514  18.947   6.822   7.607 -0.1682  0.4215 -0.6100
 1014YOPC   NC314515   3.680   2.293   5.395 -0.2822 -0.3070  0.0013
 1014YOPC   PO414516   3.982   2.546   5.618 -0.0160 -0.1802 -0.0882
 1014YOPC   GL114517   4.083   2.526   6.034 -0.2760 -0.2177 -0.0977
 1014YOPC   GL214518   4.279   2.439   6.162 -0.1938  0.0165 -0.1195
 1014YOPC   C1A14519   3.770   2.333   6.347  0.1092 -0.0322  0.1107
 1014YOPC   D2A14520   3.535   2.542   6.617  0.1893 -0.0467  0.2065
 1014YOPC   C3A14521   3.609   2.615   6.993 -0.3570 -0.3295  0.0859
 1014YOPC   C4A14522   3.951   2.656   7.291 -0.1070 -0.3221 -0.1284
 1014YOPC   C1B14523   4.431   2.531   6.489  0.0454 -0.1368  0.3644
 1014YOPC   C2B14524   4.348   2.844   6.892  0.0931 -0.2241  0.2779
 1014YOPC   D3B14525   4.610   2.927   7.314  0.2571 -0.1315 -0.2864
 1014YOPC   C4B14526   4.997   3.286   7.395 -0.1880  0.1161 -0.2359
 1015YOPC   NC314527  16.226   3.290   5.994  0.0330  0.0213 -0.0370
 1015YOPC   PO414528  16.378   2.892   6.099 -0.1364  0.1019  0.4384
 1015YOPC   GL114529  16.236   2.863   6.419  0.1982 -0.3468 -0.1319
 1015YOPC   GL214530  16.048   2.589   6.374  0.3222  0.2171 -0.3840
 1015YOPC   C1A14531  16.202   2.855   6.828 -0.0029  0.1814 -0.1026
 1015YOPC   D2A14532  16.394   3.039   7.144 -0.1284  0.1965 -0.0679
 1015YOPC   C3A14533  16.795   3.184   7.177 -0.0196  0.4313 -0.2067
 1015YOPC   C4A14534  17.208   3.011   7.238 -0.3073  0.1000 -0.0418
 1015YOPC   C1B14535  16.317   2.385   6.686  0.2668  0.0881 -0.0606
 1015YOPC   C2B14536  16.275   1.951   6.741  0.0992 -0.0938 -0.2663
 1015YOPC   D3B14537  16.204   1.871   7.161  0.0474 -0.1555 -0.1502
 1015YOPC   C4B14538  16.254   1.846   7.638 -0.1610 -0.0888  0.0723
 1016YOPC   NC314539  10.990  12.518   5.446  0.0429  0.0341 -0.0322
 1016YOPC   PO414540  11.455  12.454   5.496  0.0173  0.2009  0.0091
 1016YOPC   GL114541  11.203  12.143   5.775 -0.0917  0.0866  0.2400
 1016YOPC   GL214542  11.033  12.036   5.581  0.2289  0.0733  0.1553
 1016YOPC   C1A14543  11.375  12.308   6.188  0.1717  0.0611 -0.1498
 1016YOPC   D2A14544  11.428  12.158   6.592  0.1254 -0.0847  0.1727
 1016YOPC   C3A14545  11.368  12.175   7.044 -0.0721 -0.1476 -0.1363
 1016YOPC   C4A14546  11.080  12.375   7.369  0.0268  0.4681  0.0080
 1016YOPC   C1B14547  10.712  11.972   5.845 -0.0015 -0.2611 -0.1158
 1016YOPC   C2B14548  10.426  12.146   6.217 -0.2264  0.1097  0.1188
 1016YOPC   D3B14549  10.593  12.313   6.624 -0.1178 -0.0623 -0.0116
 1016YOPC   C4B14550  10.495  12.489   7.010  0.0726 -0.0469  0.1479
 1017YOPC   NC314551   7.256  17.037   5.437 -0.0202 -0.1927 -0.0236
 1017YOPC   PO414552   7.461  17.248   5.826 -0.0842  0.0634  0.0934
 1017YOPC   GL114553   7.352  17.592   6.190  0.0945 -0.1307 -0.1202
 1017YOPC   GL214554   7.353  17.808   5.923 -0.3753  0.0350 -0.1445
 1017YOPC   C1A14555   7.453  17.274   6.561  0.0468 -0.0140  0.0064
 1017YOPC   D2A14556   7.285  17.331   6.912  0.0790  0.0729  0.0543
 1017YOPC   C3A14557   7.310  17.167   7.387 -0.0370  0.0981  0.1856
 1017YOPC   C4A14558   7.520  17.323   7.700 -0.2334  0.3701 -0.0578
 1017YOPC   C1B14559   7.606  18.003   6.396 -0.0993  0.1755 -0.3175
 1017YOPC   C2B14560   7.438  18.343   6.719 -0.0004 -0.1762  0.1026
 1017YOPC   D3B14561   7.685  18.444   7.031 -0.1405  0.2176 -0.0702
 1017YOPC   C4B14562   7.509  18.256   7.393 -0.0070  0.0824 -0.0000
 1018YOPC   NC314563  11.107  14.465   5.623 -0.1009 -0.1148 -0.0470
 1018YOPC   PO414564  11.374  14.243   5.848  0.1834  0.0823  0.2035
 1018YOPC   GL114565  11.523  14.292   6.113 -0.1153  0.0369  0.0946
 1018YOPC   GL214566  11.243  14.102   6.346  0.1399  0.3518  0.0709
 1018YOPC   C1A14567  11.431  14.589   6.464 -0.1652  0.3181  0.3272
 1018YOPC   D2A14568  11.190  14.790   6.832 -0.2950  0.1232 -0.0249
 1018YOPC   C3A14569  11.077  14.657   7.293 -0.1089  0.0052 -0.2481
 1018YOPC   C4A14570  10.760  14.512   7.544 -0.0468 -0.0159 -0.3047
 1018YOPC   C1B14571  11.234  14.163   6.815 -0.1222 -0.0109 -0.0390
 1018YOPC   C2B14572  11.067  14.161   7.255 -0.0910  0.1881  0.0831
 1018YOPC   D3B14573  11.363  14.397   7.571  0.1795 -0.1336 -0.0553
 1018YOPC   C4B14574  11.754  14.606   7.797 -0.2323 -0.1409 -0.0257
 1019YOPC   NC314575  16.166   4.666   6.057  0.0194 -0.2189 -0.2506
 1019YOPC   PO414576  16.578   4.619   6.155  0.2036  0.2384 -0.1048
 1019YOPC   GL114577  16.535   4.795   6.469 -0.1138  0.1365  0.0853
 1019YOPC   GL214578  16.629   5.096   6.533 -0.1637  0.0914 -0.0152
 1019YOPC   C1A14579  16.458   4.892   6.919  0.2051  0.2311  0.0478
 1019YOPC   D2A14580  16.366   5.201   7.268  0.2109 -0.1190 -0.1820
 1019YOPC   C3A14581  16.251   4.876   7.614 -0.0099 -0.1500  0.0462
 1019YOPC   C4A14582  16.128   4.565   7.967  0.0147  0.0918 -0.0704
 1019YOPC   C1B14583  16.651   5.388   6.908  0.0099 -0.1029 -0.2961
 1019YOPC   C2B14584  16.772   5.495   7.290  0.0210  0.0121  0.2403
 1019YOPC   D3B14585  17.154   5.371   7.479 -0.2227 -0.2226  0.1981
 1019YOPC   C4B14586  17.446   5.163   7.627  0.0273 -0.0180  0.1602
 1020YOPC   NC314587   5.729  12.249   5.583 -0.4012  0.0243  0.0610
 1020YOPC   PO414588   5.624  11.863   5.763  0.2330 -0.2797  0.2637
 1020YOPC   GL114589   5.555  11.826   6.180 -0.0113  0.2686  0.2949
 1020YOPC   GL214590   5.734  12.035   6.424  0.0840  0.0881 -0.1102
 1020YOPC   C1A14591   5.330  11.697   6.506  0.3161 -0.0660 -0.1448
 1020YOPC   D2A14592   4.988  11.444   6.493  0.1280  0.3663 -0.0124
 1020YOPC   C3A14593   4.672  11.480   6.859 -0.0800  0.0298  0.1880
 1020YOPC   C4A14594   4.446  11.767   6.992 -0.0419 -0.0982  0.0796
 1020YOPC   C1B14595   6.136  11.924   6.523  0.2540 -0.2251 -0.1781
 1020YOPC   C2B14596   6.496  11.658   6.465 -0.0167 -0.5105  0.1733
 1020YOPC   D3B14597   6.425  11.253   6.667  0.1670 -0.1776  0.1050
 1020YOPC   C4B14598   6.700  10.883   6.784 -0.0490 -0.1072  0.3023
 1021YOPC   NC314599  15.676   1.923   5.804 -0.2874 -0.2377  0.2197
 1021YOPC   PO414600  15.878   2.180   6.112 -0.0296 -0.1341  0.0303
 1021YOPC   GL114601  15.711   2.182   6.537  0.0582 -0.0615 -0.3029
 1021YOPC   GL214602  15.637   1.883   6.600  0.2555  0.2581 -0.0392
 1021YOPC   C1A14603  15.819   2.231   6.987 -0.1077  0.0174 -0.0099
 1021YOPC   D2A14604  15.827   2.080   7.465  0.1295  0.1787 -0.0002
 1021YOPC   C3A14605  15.597   2.286   7.808 -0.2014  0.0583 -0.0857
 1021YOPC   C4A14606  15.884   2.554   8.070  0.2085  0.0948  0.0533
 1021YOPC   C1B14607  15.681   1.739   7.014  0.2752 -0.2230  0.0135
 1021YOPC   C2B14608  15.847   1.311   7.155  0.1649 -0.3406 -0.2384
 1021YOPC   D3B14609  15.633   1.057   7.482  0.3484  0.0314  0.1764
 1021YOPC   C4B14610  15.266   1.174   7.833 -0.0155 -0.0920 -0.1993
 1022YOPC   NC314611   7.606   1.628   6.034 -0.1190  0.2304  0.0949
 1022YOPC   PO414612   7.805   1.151   6.030  0.2920 -0.2094  0.0822
 1022YOPC   GL114613   7.475   1.127   6.223  0.2590 -0.2530 -0.3117
 1022YOPC   GL214614   7.343   1.280   6.381  0.0872  0.1847  0.0050
 1022YOPC   C1A14615   7.299   0.881   6.646 -0.3070 -0.0934 -0.0195
 1022YOPC   D2A14616   7.324   0.409   6.782  0.0937  0.0953  0.3749
 1022YOPC   C3A14617   7.205   0.152   7.114 -0.2305  0.0377 -0.1125
 1022YOPC   C4A14618   7.175  -0.336   7.058 -0.2223  0.0998 -0.1886
 1022YOPC   C1B14619   7.117   1.360   6.807  0.0934 -0.1673  0.2772
 1022YOPC   C2B14620   6.980   1.629   7.096 -0.2899  0.1857 -0.1144
 1022YOPC   D3B14621   7.278   1.851   7.362  0.5490 -0.1695  0.0947
 1022YOPC   C4B14622   7.378   2.007   7.700  0.2675  0.1136 -0.0633
 1023YOPC   NC314623   9.392   2.910   5.747  0.0711  0.1233  0.2402
 1023YOPC   PO414624   9.123   2.566   5.690 -0.0321 -0.1094 -0.1884
 1023YOPC   GL114625   9.183   2.432   6.101 -0.1016 -0.0948 -0.1085
 1023YOPC   GL214626   9.061   2.648   6.407  0.2698  0.1970  0.2722
 1023YOPC   C1A14627   9.452   2.365   6.400 -0.0517 -0.0108 -0.2636
 1023YOPC   D2A14628   9.644   2.383   6.839  0.0781 -0.0315 -0.0495
 1023YOPC   C3A14629   9.954   2.668   6.954  0.2558  0.0472  0.1254
 1023YOPC   C4A14630  10.017   2.607   7.489  0.0233 -0.0197 -0.2777
 1023YOPC   C1B14631   9.045   2.183   6.548  0.1710  0.0171 -0.0622
 1023YOPC   C2B14632   9.130   2.062   6.909 -0.2422  0.0724  0.2102
 1023YOPC   D3B14633   8.660   1.971   7.045 -0.1005  0.1072 -0.3438
 1023YOPC   C4B14634   8.338   2.192   6.862  0.0783  0.0116  0.0496
 1024YOPC   NC314635   0.339   1.907   5.607  0.1297 -0.1370  0.3049
 1024YOPC   PO414636   0.625   1.511   5.682  0.0711  0.0447  0.0217
 1024YOPC   GL114637   0.449   1.668   6.070  0.3512  0.0034 -0.2779
 1024YOPC   GL214638   0.166   1.595   6.157  0.0197 -0.3808  0.0006
 1024YOPC   C1A14639   0.609   1.914   6.405  0.0648  0.3540  0.2430
 1024YOPC   D2A14640   0.783   1.891   6.841 -0.1550 -0.2427 -0.1313
 1024YOPC   C3A14641   0.575   1.889   7.199 -0.0454 -0.2958 -0.0469
 1024YOPC   C4A14642   0.322   2.159   7.461 -0.1443 -0.0902 -0.1334
 1024YOPC   C1B14643   0.155   1.810   6.564 -0.0496 -0.1356 -0.2320
 1024YOPC   C2B14644   0.245   1.917   6.920 -0.1787 -0.0316  0.0921
 1024YOPC   D3B14645  -0.134   2.078   7.190 -0.3791  0.0193  0.1152
 1024YOPC   C4B14646  -0.143   2.274   7.561 -0.0711 -0.3193 -0.0483
 1025YOPC   NC314647  15.619   5.941   6.250 -0.1606 -0.1706 -0.3606
 1025YOPC   PO414648  15.518   6.292   6.181 -0.2635 -0.2731 -0.1843
 1025YOPC   GL114649  15.344   6.349   6.595  0.2080  0.1063 -0.3042
 1025YOPC   GL214650  15.460   6.185   6.944  0.3071  0.0546  0.2206
 1025YOPC   C1A14651  15.188   6.695   6.752 -0.0993 -0.0694 -0.0959
 1025YOPC   D2A14652  15.006   7.041   6.784 -0.2213 -0.0415 -0.3006
 1025YOPC   C3A14653  15.042   7.369   7.031  0.2456 -0.1135 -0.0953
 1025YOPC   C4A14654  14.909   7.715   7.131 -0.1184 -0.2746 -0.0879
 1025YOPC   C1B14655  15.212   6.414   7.214  0.0437 -0.2711  0.1342
 1025YOPC   C2B14656  15.014   6.624   7.626 -0.2444  0.0565  0.1989
 1025YOPC   D3B14657  15.010   6.497   8.005  0.4603 -0.3625 -0.2157
 1025YOPC   C4B14658  15.216   6.461   8.497 -0.2559  0.3552 -0.1732
 1026YOPC   NC314659   2.325   8.971   6.114 -0.1575  0.3822 -0.2561
 1026YOPC   PO414660   2.789   9.284   6.312  0.1734  0.1444  0.0550
 1026YOPC   GL114661   2.516   9.205   6.633  0.0622  0.1908 -0.1912
 1026YOPC   GL214662   2.124   9.084   6.565 -0.1399 -0.2412  0.1078
 1026YOPC   C1A14663   2.346   9.538   7.009  0.1980  0.2097  0.0467
 1026YOPC   D2A14664   2.717   9.686   7.270  0.3115  0.1370  0.0869
 1026YOPC   C3A14665   3.128   9.464   7.148  0.1566 -0.3901 -0.6773
 1026YOPC   C4A14666   3.455   9.656   7.302 -0.1171 -0.3064 -0.0561
 1026YOPC   C1B14667   1.965   9.546   6.689  0.1123 -0.0281  0.0641
 1026YOPC   C2B14668   1.655   9.879   6.580 -0.4653  0.1514  0.1278
 1026YOPC   D3B14669   1.302   9.699   6.489 -0.0978 -0.1636 -0.1430
 1026YOPC   C4B14670   0.921   9.826   6.543 -0.0804  0.0929 -0.0994
 1027YOPC   NC314671  12.276   1.620   5.791  0.0609  0.1511 -0.0734
 1027YOPC   PO414672  12.209   1.195   5.712  0.2652  0.4113  0.2496
 1027YOPC   GL114673  12.295   1.106   6.103 -0.0966  0.0312 -0.2148
 1027YOPC   GL214674  12.132   0.875   6.366  0.1021  0.0037  0.0681
 1027YOPC   C1A14675  12.635   1.077   6.337 -0.2509 -0.2172 -0.2585
 1027YOPC   D2A14676  12.496   0.875   6.649 -0.4074 -0.1738  0.0653
 1027YOPC   C3A14677  12.282   0.995   7.051  0.0015  0.2418 -0.3277
 1027YOPC   C4A14678  12.099   1.005   7.405  0.0312  0.1569  0.0051
 1027YOPC   C1B14679  12.043   0.589   6.686 -0.3859  0.2685 -0.1975
 1027YOPC   C2B14680  11.736   0.570   7.091  0.0597  0.3617  0.1720
 1027YOPC   D3B14681  11.579   0.873   7.161  0.2285 -0.0313  0.1481
 1027YOPC   C4B14682  11.477   1.135   7.463  0.0228 -0.0021 -0.2657
 1028YOPC   NC314683   2.186   6.203   5.483 -0.2734 -0.1347 -0.3049
 1028YOPC   PO414684   2.391   6.345   5.797 -0.0526  0.2500  0.2182
 1028YOPC   GL114685   2.256   6.538   6.174 -0.1147 -0.0631  0.1561
 1028YOPC   GL214686   1.933   6.586   6.381 -0.1230 -0.3006 -0.1274
 1028YOPC   C1A14687   2.471   6.676   6.615  0.3150  0.5748 -0.1882
 1028YOPC   D2A14688   2.495   6.598   7.074  0.0559  0.1665  0.1422
 1028YOPC   C3A14689   2.812   6.382   7.214  0.4013  0.3327  0.0449
 1028YOPC   C4A14690   3.203   6.517   7.184  0.0392  0.1195 -0.2180
 1028YOPC   C1B14691   1.633   6.726   6.464  0.3802  0.0152 -0.0978
 1028YOPC   C2B14692   1.291   6.598   6.431 -0.0786 -0.0357 -0.3237
 1028YOPC   D3B14693   1.013   6.863   6.816  0.1557  0.0663  0.2053
 1028YOPC   C4B14694   0.701   6.716   7.167  0.1914  0.0315  0.0492
 1029YOPC   NC314695   3.623   9.767   5.769 -0.3236  0.2294  0.0103
 1029YOPC   PO414696   3.430   9.457   5.998 -0.0703 -0.1687  0.3027
 1029YOPC   GL114697   3.260   9.559   6.390 -0.2498 -0.0609 -0.2136
 1029YOPC   GL214698   3.249   9.213   6.540 -0.0067 -0.1138  0.1771
 1029YOPC   C1A14699   2.961   9.711   6.795 -0.1780 -0.2465  0.1871
 1029YOPC   D2A14700   3.054  10.002   7.108  0.1016  0.0316  0.0517
 1029YOPC   C3A14701   2.990   9.901   7.562 -0.0943  0.0019  0.1018
 1029YOPC   C4A14702   2.933   9.851   7.954  0.2021 -0.2098 -0.0118
 1029YOPC   C1B14703   2.906   9.062   6.843 -0.1695  0.0553 -0.3440
 1029YOPC   C2B14704   2.663   8.706   6.942 -0.1730 -0.0105  0.1903
 1029YOPC   D3B14705   2.740   8.614   7.395 -0.0335  0.4487  0.1277
 1029YOPC   C4B14706   2.819   8.837   7.877  0.0429  0.0996 -0.1436
 1030YOPC   NC314707   5.240   1.227   5.665  0.4477 -0.3259  0.1494
 1030YOPC   PO414708   4.958   1.504   5.520 -0.2911 -0.3102  0.3887
 1030YOPC   GL114709   5.151   1.569   5.951  0.1272  0.3882  0.1074
 1030YOPC   GL214710   5.114   1.937   6.031  0.3454  0.0668 -0.0234
 1030YOPC   C1A14711   5.371   1.414   6.314 -0.3371  0.1456  0.1241
 1030YOPC   D2A14712   5.424   1.253   6.660 -0.0382 -0.0598  0.1426
 1030YOPC   C3A14713   5.187   1.282   7.010  0.1592  0.0687 -0.0667
 1030YOPC   C4A14714   5.192   1.082   7.412 -0.1797  0.0442  0.0365
 1030YOPC   C1B14715   4.997   1.768   6.324  0.1313  0.1498 -0.5049
 1030YOPC   C2B14716   5.056   1.717   6.747  0.1941 -0.2529  0.1056
 1030YOPC   D3B14717   5.202   2.026   6.948  0.0107 -0.0924  0.0852
 1030YOPC   C4B14718   5.597   2.209   6.818  0.1344  0.1487 -0.0415
 1031YOPC   NC314719   5.204  15.642   5.594 -0.3411  0.1033 -0.2972
 1031YOPC   PO414720   5.084  16.027   5.760 -0.0018  0.2891  0.1022
 1031YOPC   GL114721   4.798  16.074   6.053 -0.0338  0.0417 -0.3634
 1031YOPC   GL214722   4.558  16.043   5.883 -0.1872  0.1722 -0.2875
 1031YOPC   C1A14723   4.880  16.259   6.381 -0.0025 -0.0569 -0.0220
 1031YOPC   D2A14724   4.607  16.336   6.727  0.3322 -0.0617  0.0067
 1031YOPC   C3A14725   4.671  16.151   7.186  0.0575  0.1012 -0.1145
 1031YOPC   C4A14726   4.920  16.075   7.566 -0.1210  0.1368  0.1838
 1031YOPC   C1B14727   4.487  15.826   6.350 -0.0216  0.3863  0.1988
 1031YOPC   C2B14728   4.649  15.800   6.759  0.2724 -0.2027 -0.1765
 1031YOPC   D3B14729   4.403  15.508   7.017 -0.0998  0.2330  0.2772
 1031YOPC   C4B14730   4.149  15.188   7.160 -0.0676 -0.0470 -0.0585
 1032YOPC   NC314731   3.657  17.044   5.886  0.0195 -0.3924  0.0486
 1032YOPC   PO414732   3.435  17.341   5.668 -0.0479 -0.0858  0.2011
 1032YOPC   GL114733   3.280  17.521   6.020 -0.0782 -0.1747 -0.3085
 1032YOPC   GL214734   3.221  17.217   6.287 -0.0996 -0.1209 -0.3002
 1032YOPC   C1A14735   3.278  17.800   6.371  0.0566 -0.1473  0.2933
 1032YOPC   D2A14736   3.568  18.047   6.436 -0.1286  0.1482  0.0055
 1032YOPC   C3A14737   3.516  18.058   6.881 -0.4259 -0.0283 -0.3521
 1032YOPC   C4A14738   3.582  18.245   7.229 -0.1339  0.3023 -0.3094
 1032YOPC   C1B14739   3.499  17.449   6.642 -0.1097 -0.3195 -0.0141
 1032YOPC   C2B14740   3.223  17.667   6.974 -0.1541 -0.0687  0.1851
 1032YOPC   D3B14741   2.936  17.460   7.267 -0.0119  0.2841 -0.5402
 1032YOPC   C4B14742   2.700  17.547   7.649 -0.1462 -0.2656  0.0426
 1033YOPC   NC314743   5.184  11.481   5.520 -0.0188  0.0243 -0.3695
 1033YOPC   PO414744   5.134  11.771   5.893 -0.2351 -0.1859  0.2960
 1033YOPC   GL114745   4.899  11.804   6.167  0.1605  0.0905  0.1053
 1033YOPC   GL214746   4.612  11.587   6.168  0.2988 -0.3074  0.2043
 1033YOPC   C1A14747   4.854  11.906   6.678  0.2036 -0.0833 -0.0161
 1033YOPC   D2A14748   4.968  11.778   7.111  0.1661  0.1769  0.2462
 1033YOPC   C3A14749   5.211  12.089   7.400 -0.0188 -0.0819 -0.1337
 1033YOPC   C4A14750   5.477  12.481   7.636  0.2202  0.0810  0.1423
 1033YOPC   C1B14751   4.390  11.839   6.433  0.0870 -0.0994  0.0467
 1033YOPC   C2B14752   4.141  11.981   6.706  0.0288  0.2383 -0.2148
 1033YOPC   D3B14753   4.438  12.228   6.786  0.1701 -0.1258 -0.1358
 1033YOPC   C4B14754   4.897  12.402   6.890 -0.0478 -0.0230  0.1869
 1034YOPC   NC314755  10.634  17.777   5.727  0.0510  0.3018  0.1670
 1034YOPC   PO414756  10.327  18.125   5.707  0.5338 -0.1090  0.0436
 1034YOPC   GL114757  10.631  18.153   6.013 -0.0762 -0.0005 -0.2046
 1034YOPC   GL214758  10.909  17.997   6.063 -0.0197  0.0752 -0.0252
 1034YOPC   C1A14759  10.649  18.192   6.473 -0.1621 -0.1499  0.2421
 1034YOPC   D2A14760  10.871  18.097   6.822 -0.2790 -0.2275 -0.4157
 1034YOPC   C3A14761  11.181  18.120   7.016 -0.0734  0.1384  0.1618
 1034YOPC   C4A14762  11.211  18.270   7.397 -0.1371  0.2169 -0.2844
 1034YOPC   C1B14763  10.901  17.688   6.344 -0.1236 -0.2628  0.2659
 1034YOPC   C2B14764  11.089  17.642   6.775  0.3302  0.2153  0.0795
 1034YOPC   D3B14765  10.774  17.699   7.099 -0.2235  0.0797  0.1290
 1034YOPC   C4B14766  10.623  18.125   7.234 -0.2695  0.2996  0.1689
 1035YOPC   NC314767   3.218  12.232   5.804 -0.0409 -0.0493 -0.0423
 1035YOPC   PO414768   3.392  11.880   6.049  0.0112 -0.2976 -0.1182
 1035YOPC   GL114769   3.291  11.728   6.494 -0.1150  0.2223 -0.0030
 1035YOPC   GL214770   3.114  12.003   6.505 -0.2632 -0.2500 -0.0767
 1035YOPC   C1A14771   3.420  11.549   6.962 -0.0221 -0.2223 -0.2781
 1035YOPC   D2A14772   3.422  11.715   7.389  0.2363  0.1411 -0.2466
 1035YOPC   C3A14773   3.697  12.026   7.507 -0.0107 -0.1768  0.0669
 1035YOPC   C4A14774   3.909  12.418   7.699 -0.1014  0.0603 -0.1569
 1035YOPC   C1B14775   2.730  12.074   6.788  0.1724 -0.1761 -0.2034
 1035YOPC   C2B14776   2.586  12.196   7.173 -0.1818 -0.2921  0.1096
 1035YOPC   D3B14777   2.736  12.374   7.538  0.3026 -0.2554  0.0341
 1035YOPC   C4B14778   2.856  12.289   7.944 -0.0381 -0.0353 -0.2446
 1036YOPC   NC314779   0.200  18.304   5.331  0.1674  0.1009 -0.1507
 1036YOPC   PO414780   0.156  17.860   5.625  0.1478  0.0560  0.0754
 1036YOPC   GL114781   0.085  17.788   6.055  0.2374  0.1025 -0.1024
 1036YOPC   GL214782   0.287  17.659   6.289  0.0475 -0.2144  0.2394
 1036YOPC   C1A14783  -0.076  17.967   6.438  0.2527 -0.0618 -0.3655
 1036YOPC   D2A14784  -0.172  18.241   6.753  0.0488 -0.0211  0.2140
 1036YOPC   C3A14785  -0.060  18.681   6.909 -0.0517 -0.0166  0.1343
 1036YOPC   C4A14786  -0.071  19.138   6.749  0.0656  0.1117  0.0632
 1036YOPC   C1B14787   0.434  18.008   6.624  0.0306  0.0857 -0.4016
 1036YOPC   C2B14788   0.282  18.196   7.069  0.2068 -0.2147  0.0900
 1036YOPC   D3B14789   0.262  17.953   7.539  0.0280  0.1805  0.0940
 1036YOPC   C4B14790   0.077  17.836   7.990  0.4188 -0.3123  0.2994
 1037YOPC   NC314791  16.883   3.232   6.417  0.0178 -0.2124  0.1768
 1037YOPC   PO414792  17.286   3.180   6.556  0.3664 -0.1614  0.1045
 1037YOPC   GL114793  17.368   3.377   6.909  0.4472 -0.2243  0.1396
 1037YOPC   GL214794  17.434   3.657   6.816 -0.0536 -0.4218  0.1674
 1037YOPC   C1A14795  17.019   3.647   7.213  0.0065 -0.2159  0.0357
 1037YOPC   D2A14796  17.068   3.798   7.666 -0.0871 -0.2376 -0.1830
 1037YOPC   C3A14797  17.098   3.591   8.113 -0.0153 -0.0739  0.1400
 1037YOPC   C4A14798  16.874   3.827   8.420  0.2655 -0.0765 -0.0614
 1037YOPC   C1B14799  17.568   3.858   7.134  0.0381  0.2716 -0.1075
 1037YOPC   C2B14800  17.376   4.095   7.367 -0.1815 -0.0083  0.2328
 1037YOPC   D3B14801  17.580   4.221   7.780  0.0299  0.2156 -0.3428
 1037YOPC   C4B14802  17.769   4.351   8.051 -0.0915  0.2949 -0.1112
 1038YOPC   NC314803   0.975   6.143   5.978 -0.2002  0.1494  0.2327
 1038YOPC   PO414804   0.931   6.600   5.904  0.4057 -0.0261 -0.0630
 1038YOPC   GL114805   0.777   6.486   6.301 -0.3726  0.1716 -0.1493
 1038YOPC   GL214806   0.731   6.172   6.402 -0.0325 -0.0812 -0.2757
 1038YOPC   C1A14807   0.582   6.696   6.683  0.1788 -0.3907  0.1857
 1038YOPC   D2A14808   0.241   6.836   6.971 -0.0694  0.2407  0.0554
 1038YOPC   C3A14809   0.059   6.707   7.310 -0.1304  0.1999  0.0429
 1038YOPC   C4A14810  -0.061   6.661   7.697 -0.0810 -0.1042  0.2743
 1038YOPC   C1B14811   0.492   5.965   6.661  0.0010 -0.0256 -0.0500
 1038YOPC   C2B14812   0.307   5.754   7.052 -0.0418  0.2741  0.0402
 1038YOPC   D3B14813   0.434   5.820   7.550 -0.3434  0.1515  0.1040
 1038YOPC   C4B14814   0.395   5.982   7.961  0.1510  0.0041 -0.0743
 1039YOPC   NC314815   0.823  10.995   5.742  0.0473 -0.4898 -0.3049
 1039YOPC   PO414816   0.914  11.414   6.111 -0.1241  0.1738  0.3175
 1039YOPC   GL114817   0.878  11.781   6.341  0.2653 -0.3638  0.0783
 1039YOPC   GL214818   1.212  11.930   6.308  0.0529  0.2082 -0.1788
 1039YOPC   C1A14819   0.675  11.875   6.678  0.3067 -0.1152  0.0791
 1039YOPC   D2A14820   0.456  11.835   7.061 -0.0716 -0.0056 -0.0925
 1039YOPC   C3A14821   0.292  11.422   6.917 -0.3568  0.1421  0.1393
 1039YOPC   C4A14822   0.382  11.041   6.738 -0.0552  0.3046 -0.1252
 1039YOPC   C1B14823   1.179  11.820   6.704 -0.3056  0.1242  0.1895
 1039YOPC   C2B14824   1.186  11.829   7.116 -0.1231 -0.0065  0.0720
 1039YOPC   D3B14825   0.868  12.129   7.219 -0.2413  0.1113  0.1192
 1039YOPC   C4B14826   0.669  12.214   7.529  0.0707  0.2226 -0.1636
 1040YOPC   NC314827   6.498   2.301   5.518  0.1642 -0.0178  0.0494
 1040YOPC   PO414828   6.132   2.105   5.518  0.1875 -0.0327 -0.1020
 1040YOPC   GL114829   6.059   2.314   5.859 -0.3932 -0.2330 -0.3708
 1040YOPC   GL214830   6.081   2.551   6.099 -0.2701 -0.0869 -0.1718
 1040YOPC   C1A14831   5.943   2.152   6.393  0.3893  0.0674 -0.1251
 1040YOPC   D2A14832   6.088   1.941   6.753 -0.1430 -0.1429 -0.2852
 1040YOPC   C3A14833   6.023   2.353   7.056  0.1990  0.0226 -0.1295
 1040YOPC   C4A14834   6.247   2.686   6.956 -0.0029 -0.0819  0.0914
 1040YOPC   C1B14835   6.010   2.588   6.542  0.2858 -0.3403 -0.0712
 1040YOPC   C2B14836   5.798   2.817   6.818  0.1166 -0.1433 -0.0439
 1040YOPC   D3B14837   5.867   2.713   7.297 -0.2496  0.2885  0.1077
 1040YOPC   C4B14838   5.685   2.640   7.662 -0.0748  0.1383 -0.1706
 1041YOPC   NC314839   0.296   8.334   5.665  0.0008  0.1282  0.0595
 1041YOPC   PO414840   0.415   8.587   6.068  0.0326  0.1346  0.2248
 1041YOPC   GL114841   0.497   8.539   6.458 -0.0956 -0.1487 -0.2623
 1041YOPC   GL214842   0.597   8.266   6.554  0.0801 -0.0719 -0.3623
 1041YOPC   C1A14843   0.462   8.683   6.886 -0.0455  0.0991 -0.2184
 1041YOPC   D2A14844   0.521   8.602   7.306  0.2380  0.1902  0.0806
 1041YOPC   C3A14845   0.986   8.847   7.474 -0.2616  0.1316 -0.0278
 1041YOPC   C4A14846   1.118   9.141   7.741  0.1004 -0.1313 -0.0975
 1041YOPC   C1B14847   0.931   8.299   6.622 -0.3686  0.0322 -0.0915
 1041YOPC   C2B14848   1.288   8.259   6.762 -0.0450 -0.0677 -0.1580
 1041YOPC   D3B14849   1.417   7.889   6.906 -0.2371 -0.1559  0.3899
 1041YOPC   C4B14850   1.501   7.502   7.182  0.0635  0.1181  0.0746
 1042YOPC   NC314851   2.928   2.976   5.197  0.1087 -0.2077  0.1758
 1042YOPC   PO414852   3.291   2.760   5.380  0.2713 -0.0542 -0.1793
 1042YOPC   GL114853   3.306   2.682   5.832 -0.0101 -0.0181 -0.2123
 1042YOPC   GL214854   3.531   2.526   5.887 -0.1367 -0.1627  0.3215
 1042YOPC   C1A14855   3.360   2.829   6.290 -0.2780 -0.0982 -0.2338
 1042YOPC   D2A14856   3.499   3.068   6.630 -0.1740  0.0757  0.3288
 1042YOPC   C3A14857   3.294   3.220   6.799 -0.1636  0.1619  0.0946
 1042YOPC   C4A14858   2.795   3.225   6.943  0.0173 -0.0433 -0.2630
 1042YOPC   C1B14859   3.240   2.337   6.239  0.2091  0.0762  0.0527
 1042YOPC   C2B14860   3.019   2.410   6.583  0.1252 -0.4118 -0.0162
 1042YOPC   D3B14861   3.270   2.244   6.964  0.3121  0.1780  0.0487
 1042YOPC   C4B14862   3.339   1.902   7.215 -0.0181  0.0532 -0.1381
 1043YOPC   NC314863   2.787   0.074   5.572  0.0992 -0.0597 -0.1344
 1043YOPC   PO414864   3.153  -0.230   5.705  0.3133  0.2730  0.1302
 1043YOPC   GL114865   3.080  -0.196   6.106  0.0964  0.0533  0.0998
 1043YOPC   GL214866   2.831  -0.064   6.240  0.0018  0.1010  0.2354
 1043YOPC   C1A14867   3.160  -0.151   6.619 -0.3690 -0.5238  0.0138
 1043YOPC   D2A14868   3.216   0.160   6.960  0.1365  0.1329 -0.3599
 1043YOPC   C3A14869   3.182   0.615   6.822 -0.1213 -0.0562  0.2487
 1043YOPC   C4A14870   3.120   1.046   6.846 -0.0102 -0.2108  0.1229
 1043YOPC   C1B14871   2.545  -0.399   6.389 -0.1003 -0.0923 -0.1531
 1043YOPC   C2B14872   2.282  -0.279   6.601 -0.3190  0.1750  0.2059
 1043YOPC   D3B14873   2.059  -0.019   6.291  0.0732  0.0445 -0.0209
 1043YOPC   C4B14874   1.567   0.063   6.133  0.0572  0.1675 -0.0247
 1044YOPC   NC314875  12.268  11.943   5.175 -0.3187 -0.2536 -0.1854
 1044YOPC   PO414876  12.210  11.558   5.388 -0.1223  0.1824  0.3111
 1044YOPC   GL114877  12.349  11.703   5.819  0.4933  0.4321 -0.3933
 1044YOPC   GL214878  12.368  12.035   5.690 -0.1462 -0.3147  0.0108
 1044YOPC   C1A14879  12.238  11.504   6.278 -0.0568 -0.1410 -0.0014
 1044YOPC   D2A14880  12.269  11.504   6.770 -0.2022 -0.0841  0.0106
 1044YOPC   C3A14881  12.539  11.624   6.873 -0.0603  0.1277 -0.2322
 1044YOPC   C4A14882  12.826  11.548   7.168  0.0159  0.1685  0.0856
 1044YOPC   C1B14883  12.349  12.063   6.163 -0.0029 -0.1457  0.1142
 1044YOPC   C2B14884  12.369  11.978   6.607 -0.1113 -0.0035 -0.2328
 1044YOPC   D3B14885  12.756  12.038   6.800 -0.0352 -0.1274 -0.1992
 1044YOPC   C4B14886  13.091  12.348   6.767  0.2243  0.1672  0.2620
 1045YOPC   NC314887   3.251  15.831   4.953 -0.0216 -0.5692 -0.1065
 1045YOPC   PO414888   3.088  15.818   5.304 -0.2287  0.0642 -0.4973
 1045YOPC   GL114889   3.287  16.067   5.696  0.2042  0.1692 -0.1861
 1045YOPC   GL214890   3.018  16.346   5.776 -0.1406 -0.2118  0.0363
 1045YOPC   C1A14891   3.450  15.996   6.200 -0.1798 -0.0257  0.3044
 1045YOPC   D2A14892   3.168  16.113   6.573 -0.0686 -0.1840  0.1403
 1045YOPC   C3A14893   2.842  16.350   6.658 -0.0987 -0.2209  0.0686
 1045YOPC   C4A14894   2.972  16.649   6.950  0.1330  0.0124 -0.1579
 1045YOPC   C1B14895   2.938  16.225   6.119 -0.2046 -0.1912 -0.0020
 1045YOPC   C2B14896   2.669  15.943   6.258  0.3155  0.0328 -0.4532
 1045YOPC   D3B14897   2.768  15.831   6.717 -0.0661  0.1250 -0.0646
 1045YOPC   C4B14898   2.818  15.715   7.099  0.1283 -0.2031  0.0745
 1046YOPC   NC314899   7.872   6.394   5.431  0.3045 -0.1285  0.2843
 1046YOPC   PO414900   7.454   6.212   5.625 -0.2377  0.1473  0.0647
 1046YOPC   GL114901   7.711   6.194   6.091  0.1541 -0.2001 -0.1089
 1046YOPC   GL214902   7.459   6.068   6.278  0.1964 -0.1990  0.0298
 1046YOPC   C1A14903   8.001   6.048   6.296 -0.1884 -0.0890  0.3237
 1046YOPC   D2A14904   8.321   5.900   6.621  0.1771 -0.1253  0.1719
 1046YOPC   C3A14905   8.153   5.581   6.900 -0.1205 -0.1342 -0.1637
 1046YOPC   C4A14906   7.987   5.174   7.232 -0.0223 -0.1979  0.0756
 1046YOPC   C1B14907   7.751   5.905   6.681  0.0514 -0.2407  0.3015
 1046YOPC   C2B14908   7.655   5.892   7.110  0.0496  0.1242 -0.0147
 1046YOPC   D3B14909   7.918   5.756   7.295 -0.0479 -0.1217  0.1634
 1046YOPC   C4B14910   8.326   5.535   7.381  0.0683 -0.0255 -0.0439
 1047YOPC   NC314911  17.517   4.357   5.827 -0.2001 -0.0591 -0.0048
 1047YOPC   PO414912  17.892   4.564   5.792  0.3173 -0.0780 -0.0212
 1047YOPC   GL114913  17.897   4.800   6.194 -0.0867  0.0667  0.1131
 1047YOPC   GL214914  18.119   4.972   6.402 -0.0055  0.1806 -0.0751
 1047YOPC   C1A14915  17.699   4.682   6.507 -0.0293  0.3829 -0.1010
 1047YOPC   D2A14916  17.665   4.792   7.035  0.0451  0.0986  0.2616
 1047YOPC   C3A14917  17.499   5.190   7.149  0.0316  0.2622 -0.1374
 1047YOPC   C4A14918  17.232   5.337   6.947  0.2824  0.1416  0.0114
 1047YOPC   C1B14919  18.430   4.964   6.709 -0.1143  0.2151 -0.0989
 1047YOPC   C2B14920  18.682   4.845   6.977 -0.3003 -0.2915 -0.1277
 1047YOPC   D3B14921  18.966   4.790   7.349  0.4137  0.1566 -0.0358
 1047YOPC   C4B14922  19.094   4.401   7.541  0.1735  0.1156  0.0436
 1048YOPC   NC314923  16.852   0.615   6.343 -0.2044 -0.3891  0.2658
 1048YOPC   PO414924  16.702   0.950   6.292  0.2797 -0.2562 -0.2688
 1048YOPC   GL114925  16.418   1.042   6.660 -0.1477  0.2411  0.1205
 1048YOPC   GL214926  16.691   0.927   6.800  0.0689 -0.0914  0.0085
 1048YOPC   C1A14927  16.330   1.144   7.052  0.4439 -0.2625 -0.0698
 1048YOPC   D2A14928  16.404   1.408   7.276 -0.4415  0.1828 -0.3736
 1048YOPC   C3A14929  16.229   1.317   7.552  0.1845  0.2374  0.0223
 1048YOPC   C4A14930  16.116   0.968   7.786  0.1870 -0.1229  0.2805
 1048YOPC   C1B14931  16.841   1.085   7.089  0.0489 -0.1112 -0.0475
 1048YOPC   C2B14932  16.860   1.280   7.440  0.0386  0.5278 -0.3961
 1048YOPC   D3B14933  17.119   1.177   7.725  0.0362  0.0079 -0.1643
 1048YOPC   C4B14934  17.208   1.197   8.093  0.0608 -0.0237  0.1956
 1049YOPC   NC314935   7.009   7.171   5.937  0.0671 -0.3957 -0.2119
 1049YOPC   PO414936   7.231   7.266   6.272 -0.0483  0.1677 -0.0006
 1049YOPC   GL114937   7.208   7.200   6.624  0.2669  0.0564  0.3086
 1049YOPC   GL214938   6.864   7.464   6.537  0.1843 -0.0543  0.4214
 1049YOPC   C1A14939   7.115   7.301   6.966  0.0592  0.1917  0.0608
 1049YOPC   D2A14940   7.102   7.422   7.443 -0.2045 -0.0032 -0.0329
 1049YOPC   C3A14941   6.850   7.671   7.750  0.1044  0.1656  0.1903
 1049YOPC   C4A14942   6.520   7.659   8.073 -0.3257  0.0834  0.1942
 1049YOPC   C1B14943   6.641   7.231   6.767 -0.0675  0.0619  0.4040
 1049YOPC   C2B14944   6.456   6.910   7.006  0.0419 -0.2896 -0.0976
 1049YOPC   D3B14945   6.084   6.943   7.171 -0.3812 -0.0094 -0.0715
 1049YOPC   C4B14946   5.869   7.047   7.522  0.1783  0.1676  0.1661
 1050YOPC   NC314947   5.124   4.124   5.757  0.0865 -0.3739 -0.2215
 1050YOPC   PO414948   4.708   3.823   5.812 -0.1842  0.2086 -0.1221
 1050YOPC   GL114949   4.889   4.005   6.233 -0.1509 -0.0171  0.3150
 1050YOPC   GL214950   4.958   4.299   6.297 -0.1544  0.3973  0.0491
 1050YOPC   C1A14951   4.952   4.026   6.732  0.1000  0.0142 -0.1005
 1050YOPC   D2A14952   4.965   3.854   7.236 -0.1287 -0.0201  0.0839
 1050YOPC   C3A14953   4.683   3.729   7.504 -0.3282 -0.1181 -0.0358
 1050YOPC   C4A14954   4.358   3.614   7.877  0.1048  0.1608 -0.0861
 1050YOPC   C1B14955   5.407   4.105   6.517 -0.2220  0.2349 -0.2182
 1050YOPC   C2B14956   5.302   3.673   6.800 -0.2999 -0.0634 -0.1530
 1050YOPC   D3B14957   5.526   3.579   7.261 -0.1134 -0.2367  0.0140
 1050YOPC   C4B14958   5.980   3.603   7.403 -0.2341 -0.2979  0.2791
 1051YOPC   NC314959  11.904  14.992   5.457 -0.0846 -0.1517 -0.1597
 1051YOPC   PO414960  11.617  14.681   5.635 -0.0971 -0.4670 -0.2238
 1051YOPC   GL114961  11.332  14.730   5.989 -0.1035 -0.1489  0.0715
 1051YOPC   GL214962  10.993  14.491   6.103  0.0357  0.1451  0.2867
 1051YOPC   C1A14963  11.091  14.911   6.317 -0.0013 -0.0629 -0.0501
 1051YOPC   D2A14964  11.052  15.357   6.514 -0.2095 -0.0019  0.2778
 1051YOPC   C3A14965  11.235  15.358   6.858  0.0798  0.1639 -0.2717
 1051YOPC   C4A14966  11.624  15.271   7.093  0.1550  0.0341  0.2667
 1051YOPC   C1B14967  10.887  14.478   6.482 -0.1684 -0.0225  0.1818
 1051YOPC   C2B14968  10.829  14.387   6.859  0.1726 -0.0980 -0.0200
 1051YOPC   D3B14969  10.573  14.613   7.100  0.2672  0.1672 -0.0645
 1051YOPC   C4B14970  10.341  14.852   7.380 -0.1895  0.1956 -0.2154
 1052YOPC   NC314971   0.837   6.855   5.478  0.1038 -0.1253 -0.1165
 1052YOPC   PO414972   0.981   7.177   5.845 -0.0695  0.2443 -0.2006
 1052YOPC   GL114973   1.194   7.378   6.156 -0.1015 -0.3381  0.3055
 1052YOPC   GL214974   1.409   7.191   6.305 -0.0196 -0.2243  0.1273
 1052YOPC   C1A14975   1.154   7.547   6.633 -0.1499  0.2149  0.2960
 1052YOPC   D2A14976   1.043   7.494   7.018  0.2600 -0.2852 -0.3330
 1052YOPC   C3A14977   1.113   7.190   7.234  0.1727  0.0735 -0.1632
 1052YOPC   C4A14978   1.013   6.985   7.608 -0.0632  0.1624 -0.2806
 1052YOPC   C1B14979   1.417   7.168   6.785 -0.2228  0.0550 -0.1492
 1052YOPC   C2B14980   1.491   6.868   7.142 -0.0428  0.0556 -0.1905
 1052YOPC   D3B14981   1.135   6.632   7.304  0.0335  0.0840  0.0336
 1052YOPC   C4B14982   0.877   6.466   7.715  0.1300 -0.1740 -0.0150
 1053YOPC   NC314983  11.251   2.676   5.218 -0.1793  0.2883  0.0876
 1053YOPC   PO414984  10.879   2.818   5.355 -0.1929  0.1656  0.0745
 1053YOPC   GL114985  10.911   2.595   5.887 -0.0042  0.0894  0.0657
 1053YOPC   GL214986  10.702   2.339   6.038 -0.0681  0.0788  0.0718
 1053YOPC   C1A14987  11.056   2.706   6.315 -0.2588  0.0008 -0.1989
 1053YOPC   D2A14988  11.207   2.983   6.548  0.0975  0.1238 -0.0863
 1053YOPC   C3A14989  11.011   3.081   6.881 -0.1544 -0.0693  0.2981
 1053YOPC   C4A14990  10.724   3.014   7.191  0.2166 -0.1265  0.3092
 1053YOPC   C1B14991  10.669   2.157   6.407  0.0804 -0.0680  0.2650
 1053YOPC   C2B14992  10.874   2.118   6.771 -0.2852  0.1626 -0.3740
 1053YOPC   D3B14993  10.990   1.750   6.864  0.0365  0.1507 -0.0447
 1053YOPC   C4B14994  11.100   1.494   7.259 -0.1665  0.1670  0.0079
 1054YOPC   NC314995  13.913  15.238   5.932 -0.0183 -0.0472 -0.2431
 1054YOPC   PO414996  13.491  15.299   5.749  0.0742  0.0087 -0.1391
 1054YOPC   GL114997  13.413  15.220   6.162  0.3495  0.0188  0.0374
 1054YOPC   GL214998  13.534  14.929   6.349 -0.2179  0.0084  0.0590
 1054YOPC   C1A14999  12.917  15.021   6.319 -0.2719 -0.1791  0.0397
 1054YOPC   D2A15000  12.818  15.042   6.753 -0.0167  0.0359  0.0182
 1054YOPC   C3A15001  12.538  15.300   6.639 -0.0399  0.0691  0.1044
 1054YOPC   C4A15002  12.531  15.448   6.248  0.5022 -0.1781  0.2259
 1054YOPC   C1B15003  13.699  14.772   6.713 -0.2343  0.1787 -0.1456
 1054YOPC   C2B15004  13.806  14.530   7.074  0.1620 -0.1657  0.2476
 1054YOPC   D3B15005  13.966  14.781   7.481  0.1204 -0.2614 -0.2381
 1054YOPC   C4B15006  14.337  14.761   7.702  0.2350 -0.1062  0.2163
 1055YOPC   NC315007   8.239   4.282   5.302 -0.0289 -0.0843  0.1448
 1055YOPC   PO415008   8.308   4.768   5.461  0.3368 -0.2478 -0.0116
 1055YOPC   GL115009   8.177   4.795   5.888  0.1582 -0.1560 -0.2185
 1055YOPC   GL215010   7.856   4.908   5.912 -0.1142  0.0392  0.2688
 1055YOPC   C1A15011   8.325   5.001   6.346  0.1550  0.1344  0.0385
 1055YOPC   D2A15012   8.535   5.343   6.682 -0.0821 -0.0777 -0.0305
 1055YOPC   C3A15013   8.624   5.578   7.000 -0.0938  0.0741 -0.1541
 1055YOPC   C4A15014   8.534   5.985   7.019  0.0622 -0.0060  0.0617
 1055YOPC   C1B15015   7.654   4.994   6.280 -0.4754  0.0095 -0.1119
 1055YOPC   C2B15016   7.559   4.920   6.667 -0.0402 -0.0763  0.0336
 1055YOPC   D3B15017   7.628   4.885   7.096 -0.0404  0.1143  0.0910
 1055YOPC   C4B15018   7.520   4.919   7.450 -0.0386  0.1547 -0.2550
 1056YOPC   NC315019   8.384  12.736   5.414  0.2305  0.0670 -0.2078
 1056YOPC   PO415020   8.477  12.310   5.622  0.0975  0.1537 -0.2096
 1056YOPC   GL115021   8.606  12.673   5.817 -0.1969  0.3934  0.0846
 1056YOPC   GL215022   8.342  12.721   5.919 -0.2276  0.0230  0.2348
 1056YOPC   C1A15023   8.816  12.795   6.178  0.0435 -0.0805 -0.2154
 1056YOPC   D2A15024   9.038  12.592   6.361  0.1537  0.0668 -0.1607
 1056YOPC   C3A15025   9.133  12.583   6.803 -0.2732  0.1681 -0.1569
 1056YOPC   C4A15026   9.308  12.806   7.110 -0.0280  0.0281 -0.3218
 1056YOPC   C1B15027   8.347  12.772   6.341  0.1011  0.1638 -0.1986
 1056YOPC   C2B15028   8.265  13.133   6.684 -0.1917  0.0620  0.1083
 1056YOPC   D3B15029   8.275  13.099   7.188 -0.2607  0.6937 -0.0154
 1056YOPC   C4B15030   8.382  12.797   7.498  0.0783 -0.0337 -0.2601
 1057YOPC   NC315031  11.561   6.001   5.938  0.2317 -0.0157 -0.0905
 1057YOPC   PO415032  11.719   6.245   6.091  0.1415 -0.1575 -0.1529
 1057YOPC   GL115033  11.596   6.300   6.440 -0.0356  0.0679 -0.3538
 1057YOPC   GL215034  11.583   6.091   6.721  0.0303 -0.3276  0.1167
 1057YOPC   C1A15035  11.505   6.584   6.849  0.0530 -0.0059 -0.0529
 1057YOPC   D2A15036  11.365   6.906   6.977  0.1190 -0.0085 -0.1531
 1057YOPC   C3A15037  11.383   7.124   7.289  0.1712 -0.0568 -0.1602
 1057YOPC   C4A15038  11.088   7.216   7.696  0.0358  0.3253 -0.0427
 1057YOPC   C1B15039  11.541   6.209   7.165 -0.1865  0.0702 -0.2014
 1057YOPC   C2B15040  11.593   6.532   7.395 -0.1316 -0.1471 -0.0129
 1057YOPC   D3B15041  11.486   6.369   7.723 -0.4244  0.5088 -0.0080
 1057YOPC   C4B15042  11.196   6.170   7.930 -0.1722 -0.4408  0.2107
 1058YOPC   NC315043   4.953  10.139   5.596 -0.2557  0.0061  0.0265
 1058YOPC   PO415044   4.641   9.977   5.806  0.0966 -0.2434  0.0009
 1058YOPC   GL115045   5.011  10.101   6.088  0.1178 -0.3008  0.0706
 1058YOPC   GL215046   5.031  10.377   6.051 -0.0568  0.2036 -0.4703
 1058YOPC   C1A15047   5.323   9.947   6.261 -0.0272  0.0253  0.3056
 1058YOPC   D2A15048   5.483   9.727   6.479 -0.1184  0.1467 -0.2577
 1058YOPC   C3A15049   5.855   9.538   6.412 -0.1390 -0.2624 -0.1150
 1058YOPC   C4A15050   6.216   9.524   6.590  0.2291  0.2056  0.2237
 1058YOPC   C1B15051   4.675  10.437   6.427 -0.3891  0.1122 -0.2692
 1058YOPC   C2B15052   4.501  10.671   6.712  0.0583  0.1810 -0.1707
 1058YOPC   D3B15053   4.681  10.890   7.122 -0.1494 -0.0980  0.0538
 1058YOPC   C4B15054   4.614  11.017   7.550  0.0857 -0.1033 -0.1745
 1059YOPC   NC315055   0.868   8.761   6.167 -0.0801  0.4093  0.1600
 1059YOPC   PO415056   1.215   8.842   5.921  0.0343 -0.0937  0.0886
 1059YOPC   GL115057   1.267   8.892   6.434  0.0999  0.0478  0.3799
 1059YOPC   GL215058   1.389   9.214   6.240 -0.1784 -0.2075 -0.1605
 1059YOPC   C1A15059   1.436   8.843   6.854  0.0698 -0.0835 -0.0370
 1059YOPC   D2A15060   1.332   9.107   7.235 -0.1598 -0.2298  0.1792
 1059YOPC   C3A15061   1.521   9.517   7.150 -0.2326  0.0222  0.0122
 1059YOPC   C4A15062   1.335   9.851   7.416  0.2895  0.0507  0.0562
 1059YOPC   C1B15063   1.605   9.220   6.672  0.0140 -0.0773 -0.0583
 1059YOPC   C2B15064   1.824   9.140   7.026  0.1969  0.1744 -0.2742
 1059YOPC   D3B15065   1.862   9.162   7.422 -0.3516 -0.0923 -0.3140
 1059YOPC   C4B15066   2.225   9.393   7.565 -0.2296 -0.0600 -0.0134
 1060YOPC   NC315067   6.352   1.664   5.560 -0.1325  0.0860  0.1159
 1060YOPC   PO415068   6.726   1.884   5.890  0.2760  0.0197  0.2837
 1060YOPC   GL115069   6.615   1.620   6.238  0.2282 -0.2036 -0.1937
 1060YOPC   GL215070   6.846   1.789   6.440 -0.0343  0.1034  0.2578
 1060YOPC   C1A15071   6.349   1.381   6.479 -0.1649 -0.2888  0.1840
 1060YOPC   D2A15072   6.401   0.874   6.692  0.1951 -0.0020  0.2824
 1060YOPC   C3A15073   6.070   0.785   7.083  0.0431  0.1523 -0.0600
 1060YOPC   C4A15074   5.709   1.028   7.184 -0.1311  0.1111 -0.1069
 1060YOPC   C1B15075   6.561   1.697   6.839 -0.0901 -0.0267 -0.0918
 1060YOPC   C2B15076   6.462   1.915   7.279 -0.2447 -0.0034  0.3264
 1060YOPC   D3B15077   6.078   1.855   7.405  0.3217 -0.1600  0.2682
 1060YOPC   C4B15078   5.635   2.026   7.284  0.1976 -0.2758  0.1510
 1061YOPC   NC315079  17.596   3.343   6.216  0.1942 -0.1844 -0.3165
 1061YOPC   PO415080  17.564   2.917   6.089  0.2479 -0.1631 -0.1660
 1061YOPC   GL115081  17.545   2.648   6.467  0.2666  0.0639 -0.1683
 1061YOPC   GL215082  17.729   2.370   6.467 -0.1503  0.2533  0.0916
 1061YOPC   C1A15083  17.557   2.466   6.963 -0.1127  0.1069  0.0526
 1061YOPC   D2A15084  17.435   2.408   7.316 -0.1777 -0.2316 -0.3273
 1061YOPC   C3A15085  17.730   2.331   7.646  0.0544 -0.2050 -0.3609
 1061YOPC   C4A15086  17.651   2.272   8.043  0.1299  0.2267  0.0326
 1061YOPC   C1B15087  17.967   2.639   6.760  0.1728  0.1850 -0.0326
 1061YOPC   C2B15088  18.061   2.578   7.218  0.2783 -0.3987 -0.6011
 1061YOPC   D3B15089  17.747   2.953   7.436  0.1946 -0.0480 -0.0213
 1061YOPC   C4B15090  17.712   3.167   7.798  0.0012  0.3349  0.2146
 1062YOPC   NC315091   9.620  17.486   5.517  0.0247  0.1159 -0.1821
 1062YOPC   PO415092   9.847  17.559   5.920 -0.0620  0.0804  0.2727
 1062YOPC   GL115093  10.271  17.662   6.128  0.0513  0.0891  0.0384
 1062YOPC   GL215094  10.168  18.006   6.195 -0.0806 -0.0300 -0.0251
 1062YOPC   C1A15095  10.449  17.637   6.513  0.0032  0.0108  0.1284
 1062YOPC   D2A15096  10.382  17.776   6.776  0.0798  0.1402 -0.2141
 1062YOPC   C3A15097  10.227  17.506   6.951 -0.4249 -0.2836 -0.0011
 1062YOPC   C4A15098  10.194  17.050   7.093  0.1087 -0.1552  0.1031
 1062YOPC   C1B15099   9.941  17.750   6.486  0.2689  0.0369  0.0509
 1062YOPC   C2B15100   9.971  17.244   6.498 -0.1794  0.1140 -0.0700
 1062YOPC   D3B15101  10.319  17.184   6.585 -0.2713  0.2572 -0.2171
 1062YOPC   C4B15102  10.671  17.305   6.822 -0.0020 -0.0962 -0.2350
 1063YOPC   NC315103  15.660   1.081   6.097  0.0294 -0.2151 -0.0093
 1063YOPC   PO415104  16.073   1.071   6.232 -0.1028  0.4417  0.0770
 1063YOPC   GL115105  15.868   0.994   6.628  0.2196  0.3588 -0.0454
 1063YOPC   GL215106  15.576   0.909   6.570  0.1201 -0.3948  0.1321
 1063YOPC   C1A15107  16.047   0.692   6.847  0.0304  0.0498 -0.1032
 1063YOPC   D2A15108  16.003   0.786   7.306 -0.4694 -0.1562  0.2819
 1063YOPC   C3A15109  16.151   0.518   7.552 -0.3257 -0.0559 -0.0538
 1063YOPC   C4A15110  16.534   0.421   7.724  0.0870  0.1516 -0.1815
 1063YOPC   C1B15111  15.525   0.929   7.009  0.2680 -0.0085 -0.0917
 1063YOPC   C2B15112  15.285   0.678   7.361 -0.2476  0.1873 -0.0422
 1063YOPC   D3B15113  15.264   0.726   7.691  0.3483 -0.1761  0.1923
 1063YOPC   C4B15114  15.339   0.495   8.102 -0.0171 -0.1830 -0.3378
 1064YOPC   NC315115   0.160  15.782   5.553  0.1216 -0.0011 -0.0161
 1064YOPC   PO415116   0.142  15.303   5.760  0.1126  0.0387 -0.0175
 1064YOPC   GL115117   0.267  15.348   6.248  0.0871 -0.0059 -0.2701
 1064YOPC   GL215118   0.588  15.295   6.280 -0.3220  0.0143  0.1841
 1064YOPC   C1A15119   0.284  15.521   6.664 -0.1652  0.2209 -0.2762
 1064YOPC   D2A15120   0.281  15.502   7.067  0.0424 -0.0732  0.1669
 1064YOPC   C3A15121   0.447  15.663   7.489 -0.2774 -0.3175  0.0510
 1064YOPC   C4A15122   0.385  15.815   7.924  0.0207 -0.1316 -0.0236
 1064YOPC   C1B15123   0.694  15.188   6.718 -0.0187  0.0605  0.2947
 1064YOPC   C2B15124   1.054  15.072   6.966  0.2128  0.0219 -0.0713
 1064YOPC   D3B15125   1.160  14.857   7.278 -0.0024  0.0058 -0.2545
 1064YOPC   C4B15126   1.354  14.952   7.679  0.3265  0.1947  0.1414
 1065YOPC   NC315127   6.975   1.012   5.487  0.2725  0.0081  0.2086
 1065YOPC   PO415128   7.323   0.710   5.762  0.2071  0.0270 -0.0492
 1065YOPC   GL115129   7.159   0.679   6.169  0.0546 -0.0568 -0.1261
 1065YOPC   GL215130   7.429   0.528   6.315 -0.2951  0.0949  0.4106
 1065YOPC   C1A15131   6.831   0.653   6.495 -0.0127  0.2816 -0.1565
 1065YOPC   D2A15132   6.791   0.707   6.925 -0.1291 -0.3771 -0.1728
 1065YOPC   C3A15133   6.731   0.531   7.413 -0.0751 -0.0665  0.0992
 1065YOPC   C4A15134   6.842   0.577   7.834  0.0436 -0.0999  0.1442
 1065YOPC   C1B15135   7.857   0.727   6.549 -0.3153  0.0856  0.3868
 1065YOPC   C2B15136   8.061   0.449   6.921 -0.0504  0.2840 -0.1396
 1065YOPC   D3B15137   8.082   0.240   7.335  0.3259  0.0428 -0.0708
 1065YOPC   C4B15138   7.966  -0.047   7.532 -0.2128 -0.3114 -0.0107
 1066YOPC   NC315139   7.027   9.081   5.912  0.1356  0.2625  0.0553
 1066YOPC   PO415140   6.660   9.316   5.681 -0.1823  0.1247  0.1596
 1066YOPC   GL115141   6.728   9.518   6.020  0.2829 -0.1497 -0.2071
 1066YOPC   GL215142   7.005   9.556   6.129  0.3240 -0.3389 -0.0690
 1066YOPC   C1A15143   6.556   9.793   6.333  0.0068  0.1747  0.0420
 1066YOPC   D2A15144   6.578  10.061   6.659  0.2398  0.1455 -0.1071
 1066YOPC   C3A15145   6.478  10.144   7.132  0.2385  0.0907  0.2823
 1066YOPC   C4A15146   6.520   9.923   7.525 -0.1540  0.1949 -0.2389
 1066YOPC   C1B15147   6.874   9.372   6.543  0.1151  0.0632 -0.1309
 1066YOPC   C2B15148   6.966   9.285   6.931  0.1042 -0.1655  0.2221
 1066YOPC   D3B15149   6.764   9.226   7.182 -0.1193  0.0732  0.1190
 1066YOPC   C4B15150   6.548   9.412   7.503 -0.2182  0.0465 -0.0550
 1067YOPC   NC315151   4.271  10.278   5.548  0.2463 -0.0390 -0.3184
 1067YOPC   PO415152   3.849  10.209   5.791 -0.1254 -0.0697  0.0050
 1067YOPC   GL115153   4.201  10.231   6.155  0.3166 -0.1203  0.4546
 1067YOPC   GL215154   4.277   9.958   6.138 -0.0193  0.2939  0.0680
 1067YOPC   C1A15155   4.183  10.225   6.572 -0.1107 -0.5071  0.3826
 1067YOPC   D2A15156   4.446  10.104   6.986  0.0622  0.1198 -0.0949
 1067YOPC   C3A15157   4.369  10.303   7.285  0.0145 -0.1885  0.0157
 1067YOPC   C4A15158   4.598  10.486   7.704  0.0999  0.0729  0.4011
 1067YOPC   C1B15159   4.595   9.931   6.513  0.1575 -0.0214 -0.0430
 1067YOPC   C2B15160   5.006   9.957   6.675  0.0504  0.3437 -0.0996
 1067YOPC   D3B15161   5.126   9.559   6.839 -0.3644  0.0190  0.0682
 1067YOPC   C4B15162   5.287   9.233   7.107  0.2759  0.3394 -0.0927
 1068YOPC   NC315163  17.604   0.198   5.752 -0.2362 -0.0399 -0.0391
 1068YOPC   PO415164  17.440  -0.273   5.823  0.0884  0.4987  0.1789
 1068YOPC   GL115165  17.453  -0.308   6.246 -0.0551 -0.2832 -0.2564
 1068YOPC   GL215166  17.686  -0.023   6.307 -0.0247 -0.0847  0.0021
 1068YOPC   C1A15167  17.305  -0.570   6.573 -0.4259  0.0869  0.0026
 1068YOPC   D2A15168  17.448  -0.947   6.724 -0.3166  0.0509 -0.4292
 1068YOPC   C3A15169  17.286  -0.893   7.171 -0.0042 -0.1623  0.4104
 1068YOPC   C4A15170  17.256  -1.017   7.588  0.1311 -0.0631 -0.0771
 1068YOPC   C1B15171  17.738  -0.026   6.619 -0.2851  0.0791  0.1352
 1068YOPC   C2B15172  17.958  -0.009   7.043 -0.0666  0.1633  0.0932
 1068YOPC   D3B15173  18.015   0.477   7.114  0.3345 -0.4208  0.0451
 1068YOPC   C4B15174  18.066   0.841   7.263  0.2551  0.1281 -0.1185
 1069YOPC   NC315175   9.591   0.329   5.456  0.3623 -0.1138  0.1144
 1069YOPC   PO415176   9.594  -0.001   5.654  0.0523 -0.1541  0.0549
 1069YOPC   GL115177   9.868  -0.054   6.044  0.2109 -0.0117  0.3401
 1069YOPC   GL215178  10.304   0.032   6.151 -0.1776 -0.1744  0.2366
 1069YOPC   C1A15179   9.748  -0.180   6.452 -0.1129  0.0778  0.2513
 1069YOPC   D2A15180   9.675  -0.312   6.878  0.1863  0.0231 -0.2161
 1069YOPC   C3A15181   9.929  -0.578   7.044  0.1646  0.0429 -0.3209
 1069YOPC   C4A15182  10.018  -0.852   7.415 -0.0582  0.1153 -0.6162
 1069YOPC   C1B15183  10.221  -0.183   6.668 -0.1594 -0.0458  0.0143
 1069YOPC   C2B15184  10.196  -0.114   7.128 -0.1081  0.0328 -0.1351
 1069YOPC   D3B15185  10.347   0.209   7.343 -0.1903  0.0076 -0.1833
 1069YOPC   C4B15186  10.450   0.457   7.715  0.3538  0.0830  0.0353
 1070YOPC   NC315187   2.947   9.647   6.028 -0.1028  0.1556 -0.1658
 1070YOPC   PO415188   2.430   9.667   5.826  0.0816  0.3065 -0.0381
 1070YOPC   GL115189   2.529   9.886   6.192 -0.2529 -0.1462  0.1098
 1070YOPC   GL215190   2.511  10.206   6.114 -0.3140 -0.3625 -0.0492
 1070YOPC   C1A15191   2.492   9.805   6.555 -0.4131 -0.2350 -0.1234
 1070YOPC   D2A15192   2.376  10.075   6.861 -0.5191 -0.1863  0.3283
 1070YOPC   C3A15193   2.370  10.004   7.376  0.0711 -0.1371  0.1171
 1070YOPC   C4A15194   2.401   9.901   7.763  0.3111 -0.0951 -0.0687
 1070YOPC   C1B15195   2.258  10.378   6.374  0.1125  0.1258 -0.1588
 1070YOPC   C2B15196   2.359  10.601   6.762  0.1631  0.0517 -0.1245
 1070YOPC   D3B15197   2.146  10.788   7.042 -0.0205 -0.0767 -0.2235
 1070YOPC   C4B15198   2.118  10.423   7.210 -0.0843  0.1378 -0.4682
 1071YOPC   NC315199  18.245   0.567   5.231  0.0352 -0.1098  0.0315
 1071YOPC   PO415200  18.631   0.768   5.390 -0.3998 -0.0634  0.0065
 1071YOPC   GL115201  18.808   0.851   5.766 -0.1000  0.0454 -0.0765
 1071YOPC   GL215202  19.116   1.098   6.043  0.3001  0.0759  0.0860
 1071YOPC   C1A15203  18.655   1.106   6.089 -0.0451  0.2148 -0.0962
 1071YOPC   D2A15204  18.543   1.324   6.574  0.2160 -0.0253 -0.1723
 1071YOPC   C3A15205  18.253   1.620   6.771 -0.1516 -0.0278 -0.1146
 1071YOPC   C4A15206  18.103   1.664   7.106  0.0884 -0.3063  0.0036
 1071YOPC   C1B15207  19.060   1.228   6.467  0.0873 -0.2698  0.0076
 1071YOPC   C2B15208  18.971   1.424   6.882 -0.0493 -0.1020 -0.1403
 1071YOPC   D3B15209  19.036   1.348   7.237  0.0612  0.5229 -0.0359
 1071YOPC   C4B15210  19.080   1.243   7.665 -0.0079 -0.2043  0.0297
 1072YOPC   NC315211   8.242   7.314   5.723  0.1077  0.1623  0.2415
 1072YOPC   PO415212   7.947   7.517   5.946  0.1452  0.0130 -0.1343
 1072YOPC   GL115213   7.899   7.238   6.339 -0.2570 -0.1781 -0.0638
 1072YOPC   GL215214   7.678   7.335   6.460  0.1721 -0.1224  0.0413
 1072YOPC   C1A15215   8.031   6.886   6.730  0.0657 -0.0736  0.1686
 1072YOPC   D2A15216   8.085   6.729   7.090 -0.1743  0.2906 -0.0678
 1072YOPC   C3A15217   8.269   6.933   7.380  0.2794  0.0387  0.1073
 1072YOPC   C4A15218   8.674   7.101   7.323 -0.1274 -0.0006  0.2937
 1072YOPC   C1B15219   7.710   7.279   6.796 -0.1088  0.0325 -0.0946
 1072YOPC   C2B15220   7.555   7.352   7.167  0.1856 -0.2480 -0.1483
 1072YOPC   D3B15221   7.694   7.155   7.538  0.0504  0.0804 -0.0442
 1072YOPC   C4B15222   7.860   6.759   7.732 -0.0152  0.3950  0.0870
 1073YOPC   NC315223  17.399  13.638   5.891  0.1808  0.0773 -0.1973
 1073YOPC   PO415224  17.089  13.350   6.072 -0.2905 -0.2276 -0.2568
 1073YOPC   GL115225  17.301  12.980   6.361 -0.0140 -0.1218  0.0485
 1073YOPC   GL215226  17.560  12.791   6.314 -0.0217  0.0476 -0.0007
 1073YOPC   C1A15227  17.320  12.942   6.863 -0.2012 -0.2171  0.0574
 1073YOPC   D2A15228  17.531  12.994   7.254 -0.0705 -0.0920 -0.0568
 1073YOPC   C3A15229  17.560  13.427   7.435  0.2260  0.0512  0.3491
 1073YOPC   C4A15230  17.824  13.748   7.360  0.2886 -0.3200 -0.1180
 1073YOPC   C1B15231  17.731  13.092   6.648  0.0154 -0.2410 -0.0151
 1073YOPC   C2B15232  17.985  12.956   6.995 -0.4323  0.2824  0.2813
 1073YOPC   D3B15233  18.097  13.156   7.401  0.1606 -0.0593  0.1635
 1073YOPC   C4B15234  18.245  13.109   7.745  0.2765  0.1937  0.1067
 1074YOPC   NC315235   2.234   2.082   5.451 -0.3828 -0.0916 -0.1087
 1074YOPC   PO415236   1.909   1.852   5.525 -0.1101  0.1498  0.2495
 1074YOPC   GL115237   1.688   1.772   5.838 -0.1151  0.1907  0.0210
 1074YOPC   GL215238   1.634   2.062   6.068  0.0131 -0.1105 -0.0438
 1074YOPC   C1A15239   1.428   1.622   6.205 -0.0766  0.0087 -0.0940
 1074YOPC   D2A15240   1.460   1.325   6.489  0.2648 -0.3536 -0.2469
 1074YOPC   C3A15241   1.749   1.429   6.876  0.1591  0.1618 -0.1549
 1074YOPC   C4A15242   1.945   1.653   7.237  0.0624 -0.5126  0.2105
 1074YOPC   C1B15243   1.603   2.353   6.425 -0.2475  0.2678  0.1119
 1074YOPC   C2B15244   1.479   2.317   6.876  0.0903 -0.0422 -0.1741
 1074YOPC   D3B15245   1.575   1.959   7.116 -0.3652  0.1663 -0.0840
 1074YOPC   C4B15246   1.778   1.923   7.574 -0.0611 -0.1291 -0.2358
 1075YOPC   NC315247  18.252  16.134   5.564 -0.1022  0.1336 -0.3811
 1075YOPC   PO415248  18.641  16.244   5.823  0.0180 -0.3326  0.1789
 1075YOPC   GL115249  18.717  16.384   6.185  0.3945  0.0833  0.2542
 1075YOPC   GL215250  18.730  16.705   6.114 -0.0638  0.0113  0.3141
 1075YOPC   C1A15251  18.697  16.597   6.610  0.1241 -0.2019  0.0322
 1075YOPC   D2A15252  18.503  16.652   7.089 -0.1327  0.0635  0.3121
 1075YOPC   C3A15253  18.409  16.703   7.462  0.3282  0.4023  0.2469
 1075YOPC   C4A15254  18.187  16.484   7.725 -0.2024  0.2328 -0.2297
 1075YOPC   C1B15255  18.689  17.089   6.347 -0.0379  0.5171  0.0128
 1075YOPC   C2B15256  18.468  17.052   6.723  0.0934  0.0370 -0.2052
 1075YOPC   D3B15257  18.657  17.141   7.079  0.2284  0.0294  0.0468
 1075YOPC   C4B15258  18.690  17.471   7.334 -0.1931 -0.0104 -0.1401
 1076YOPC   NC315259   6.860   2.872   5.941  0.1213 -0.0657 -0.3176
 1076YOPC   PO415260   7.188   2.782   5.960 -0.2959  0.0506 -0.0699
 1076YOPC   GL115261   7.189   2.735   6.391  0.2312  0.2269 -0.2149
 1076YOPC   GL215262   7.075   2.977   6.424 -0.1385  0.1573  0.2503
 1076YOPC   C1A15263   7.368   2.490   6.825  0.3538  0.1622  0.1285
 1076YOPC   D2A15264   7.767   2.462   6.983 -0.4161 -0.1636  0.1194
 1076YOPC   C3A15265   7.796   2.231   7.395 -0.2849 -0.2099  0.1273
 1076YOPC   C4A15266   8.326   2.149   7.517  0.0844  0.0307  0.1159
 1076YOPC   C1B15267   7.084   3.104   6.828 -0.2837 -0.0017 -0.0445
 1076YOPC   C2B15268   7.110   3.261   7.248 -0.0990  0.1943 -0.0443
 1076YOPC   D3B15269   6.833   3.144   7.512 -0.1843  0.1700 -0.1197
 1076YOPC   C4B15270   6.780   2.728   7.636  0.1093  0.4179  0.2363
 1077YOPC   NC315271  14.470  14.698   5.454 -0.2991 -0.2705 -0.0910
 1077YOPC   PO415272  14.080  14.377   5.444  0.2024 -0.2154  0.3878
 1077YOPC   GL115273  13.972  14.342   5.809  0.1135 -0.0452 -0.0761
 1077YOPC   GL215274  14.298  14.351   5.925  0.1328 -0.1175  0.2483
 1077YOPC   C1A15275  13.893  14.004   6.108  0.0617  0.0694  0.1383
 1077YOPC   D2A15276  13.771  13.734   6.495  0.1657 -0.1039  0.2876
 1077YOPC   C3A15277  13.385  13.616   6.689 -0.0628  0.0380 -0.0800
 1077YOPC   C4A15278  13.146  13.653   7.012  0.3061  0.1159 -0.1120
 1077YOPC   C1B15279  14.143  14.382   6.330 -0.1002  0.2367  0.0859
 1077YOPC   C2B15280  14.146  14.334   6.770 -0.0114 -0.0499  0.3269
 1077YOPC   D3B15281  14.267  14.690   6.908 -0.3935 -0.2263  0.2481
 1077YOPC   C4B15282  14.259  14.949   7.194 -0.0838 -0.1152  0.0431
 1078YOPC   NC315283   3.089   8.385   5.973 -0.0621 -0.3005  0.0220
 1078YOPC   PO415284   3.179   8.060   6.335 -0.1389  0.1009  0.3169
 1078YOPC   GL115285   2.748   8.016   6.521 -0.3211 -0.1440  0.0923
 1078YOPC   GL215286   2.463   7.738   6.620  0.1992 -0.1488  0.1853
 1078YOPC   C1A15287   2.467   8.232   6.901  0.0820 -0.1109  0.0936
 1078YOPC   D2A15288   2.199   8.398   7.307 -0.1752  0.0082  0.2165
 1078YOPC   C3A15289   1.976   8.410   7.718  0.1445 -0.4767 -0.1067
 1078YOPC   C4A15290   1.617   8.445   7.985 -0.0685  0.0213 -0.3040
 1078YOPC   C1B15291   2.298   7.673   6.971 -0.4297 -0.2290 -0.0155
 1078YOPC   C2B15292   2.413   7.887   7.316 -0.1504 -0.2126 -0.1133
 1078YOPC   D3B15293   2.796   8.085   7.225 -0.0401 -0.0218 -0.1214
 1078YOPC   C4B15294   3.167   7.932   7.058 -0.0305 -0.0676 -0.1349
 1079YOPC   NC315295  17.282  14.909   5.612  0.4484 -0.2881  0.0758
 1079YOPC   PO415296  17.297  15.040   6.035  0.1153 -0.0688 -0.0541
 1079YOPC   GL115297  17.062  14.942   6.393 -0.0400  0.0829 -0.0332
 1079YOPC   GL215298  16.845  15.101   6.420  0.0507  0.0973  0.3361
 1079YOPC   C1A15299  17.095  14.932   6.834 -0.1941 -0.0379 -0.1897
 1079YOPC   D2A15300  17.216  14.853   7.288 -0.1136  0.1388 -0.0538
 1079YOPC   C3A15301  17.443  14.484   7.276 -0.2116 -0.0049  0.0930
 1079YOPC   C4A15302  17.506  14.148   7.539 -0.0077 -0.3400  0.3541
 1079YOPC   C1B15303  16.720  15.192   6.942 -0.2643  0.0133  0.0896
 1079YOPC   C2B15304  16.730  15.263   7.431 -0.0256 -0.2859 -0.0022
 1079YOPC   D3B15305  16.787  14.933   7.697  0.0565 -0.0019 -0.1932
 1079YOPC   C4B15306  16.878  14.660   7.927 -0.3637  0.0424  0.1485
 1080YOPC   NC315307  12.797  16.440   5.377 -0.0156 -0.3661  0.2262
 1080YOPC   PO415308  12.551  16.103   5.586  0.0117 -0.2569 -0.1518
 1080YOPC   GL115309  12.297  16.025   5.914  0.1678 -0.0409  0.0577
 1080YOPC   GL215310  11.993  15.958   5.982  0.2484  0.5252 -0.1727
 1080YOPC   C1A15311  12.335  15.856   6.473  0.1237  0.1198 -0.1398
 1080YOPC   D2A15312  12.347  15.863   6.883  0.2394 -0.0795  0.0294
 1080YOPC   C3A15313  12.084  16.139   7.249  0.3780 -0.1563  0.0602
 1080YOPC   C4A15314  12.051  16.492   7.517 -0.1185  0.2986  0.1753
 1080YOPC   C1B15315  11.958  16.230   6.321  0.4237  0.1712 -0.1253
 1080YOPC   C2B15316  12.020  16.268   6.774 -0.0840  0.0291 -0.2095
 1080YOPC   D3B15317  11.790  16.522   7.029 -0.0135 -0.0409  0.2864
 1080YOPC   C4B15318  11.608  16.838   7.249 -0.2108 -0.0315  0.3874
 1081YOPC   NC315319   3.892  12.015   5.761 -0.2198  0.5104  0.1688
 1081YOPC   PO415320   3.696  12.296   5.760 -0.0358 -0.0988  0.1257
 1081YOPC   GL115321   3.665  12.368   6.163 -0.1593 -0.0767  0.3690
 1081YOPC   GL215322   3.830  12.572   6.195  0.0422  0.0689  0.0684
 1081YOPC   C1A15323   3.698  12.154   6.564 -0.0225 -0.1142  0.2543
 1081YOPC   D2A15324   3.784  12.139   7.032 -0.3658 -0.0479 -0.1408
 1081YOPC   C3A15325   4.175  12.189   7.222 -0.1532  0.1753  0.0455
 1081YOPC   C4A15326   4.602  12.031   7.418  0.0099  0.0852  0.1522
 1081YOPC   C1B15327   4.049  12.494   6.597 -0.2783 -0.1797 -0.2599
 1081YOPC   C2B15328   4.422  12.725   6.684  0.3433  0.2738 -0.0023
 1081YOPC   D3B15329   4.457  12.619   7.159  0.0551  0.1246  0.0278
 1081YOPC   C4B15330   4.900  12.654   7.436 -0.3170  0.2760  0.0328
 1082YOPC   NC315331   5.431   4.735   5.610 -0.0331 -0.0397  0.0354
 1082YOPC   PO415332   5.428   5.014   5.984  0.0229 -0.2621 -0.0624
 1082YOPC   GL115333   5.650   5.029   6.355 -0.3619  0.2108  0.0821
 1082YOPC   GL215334   5.480   5.292   6.431 -0.2129  0.0515  0.1388
 1082YOPC   C1A15335   5.850   5.208   6.755 -0.5496 -0.2388 -0.0027
 1082YOPC   D2A15336   5.905   5.495   7.058 -0.3055  0.0309 -0.0206
 1082YOPC   C3A15337   6.109   5.345   7.470 -0.3402  0.0698  0.1367
 1082YOPC   C4A15338   6.205   5.358   7.889  0.0404 -0.0221  0.0867
 1082YOPC   C1B15339   5.190   5.163   6.749  0.2206  0.0900  0.2588
 1082YOPC   C2B15340   5.010   5.032   7.107 -0.0754  0.2623 -0.0584
 1082YOPC   D3B15341   4.818   4.558   7.115 -0.1057  0.0444  0.1313
 1082YOPC   C4B15342   4.743   4.287   7.450 -0.4192 -0.1731  0.0230
 1083YOPC   NC315343  15.540   8.428   6.022 -0.0099  0.1388  0.0019
 1083YOPC   PO415344  15.884   8.661   6.364  0.3450  0.2617  0.2391
 1083YOPC   GL115345  15.815   8.503   6.764 -0.1427  0.0318 -0.0558
 1083YOPC   GL215346  16.103   8.317   6.906 -0.2288  0.2949 -0.2370
 1083YOPC   C1A15347  15.559   8.643   7.194 -0.1128 -0.1354 -0.2957
 1083YOPC   D2A15348  15.226   8.588   7.526  0.1712 -0.0150  0.0222
 1083YOPC   C3A15349  15.229   8.662   7.887 -0.0574 -0.2030 -0.3360
 1083YOPC   C4A15350  15.098   8.569   8.247  0.2203 -0.3205  0.0042
 1083YOPC   C1B15351  15.755   8.156   7.252 -0.0021 -0.2745 -0.0683
 1083YOPC   C2B15352  15.433   8.073   7.615 -0.0411  0.0095 -0.1524
 1083YOPC   D3B15353  15.573   8.108   8.129 -0.2186  0.2536  0.0824
 1083YOPC   C4B15354  15.383   8.175   8.526 -0.1298  0.1020  0.0923
 1084YOPC   NC315355   7.522   9.578   5.483  0.2591 -0.2774  0.0523
 1084YOPC   PO415356   7.875   9.435   5.593 -0.1558 -0.0508 -0.4709
 1084YOPC   GL115357   8.107   9.535   5.995  0.1066  0.2503  0.1825
 1084YOPC   GL215358   8.356   9.746   5.878  0.3878  0.2458  0.1692
 1084YOPC   C1A15359   8.109   9.749   6.398  0.1976 -0.0480  0.1009
 1084YOPC   D2A15360   7.929   9.965   6.747  0.1232 -0.0407  0.0353
 1084YOPC   C3A15361   7.921  10.360   6.640  0.1112 -0.0720 -0.2764
 1084YOPC   C4A15362   8.018  10.792   6.393 -0.2101 -0.1076 -0.1172
 1084YOPC   C1B15363   8.301  10.123   6.085  0.0340 -0.3089  0.0021
 1084YOPC   C2B15364   8.369  10.457   6.296 -0.1219  0.2727 -0.0667
 1084YOPC   D3B15365   8.379  10.436   6.726 -0.4336  0.2047 -0.0430
 1084YOPC   C4B15366   8.410  10.178   7.011 -0.0765  0.2134  0.2285
 1085YOPC   NC315367   9.475   5.130   5.653 -0.0420  0.4532 -0.2331
 1085YOPC   PO415368   9.209   5.359   5.464  0.0390  0.2126  0.0712
 1085YOPC   GL115369   8.994   5.335   5.844 -0.0308  0.0164 -0.0840
 1085YOPC   GL215370   8.709   5.158   5.809 -0.1220  0.0270  0.0833
 1085YOPC   C1A15371   9.000   5.267   6.324  0.2401  0.0911  0.0547
 1085YOPC   D2A15372   9.033   5.284   6.766  0.4488  0.0699  0.1124
 1085YOPC   C3A15373   9.156   5.628   7.031  0.0007 -0.1890  0.1200
 1085YOPC   C4A15374   9.403   5.964   7.184  0.3059  0.0694  0.3139
 1085YOPC   C1B15375   8.615   5.489   6.156  0.1071 -0.1984  0.1051
 1085YOPC   C2B15376   8.812   5.715   6.508  0.0470 -0.1753  0.1782
 1085YOPC   D3B15377   9.307   5.647   6.538 -0.0843 -0.2310 -0.4368
 1085YOPC   C4B15378   9.628   5.806   6.752  0.1075  0.0222  0.0724
 1086YOPC   NC315379   3.749  17.704   5.539  0.1009  0.0183 -0.1822
 1086YOPC   PO415380   4.121  17.350   5.785 -0.0484  0.5263 -0.1350
 1086YOPC   GL115381   4.285  17.498   6.177 -0.2675 -0.2604 -0.0361
 1086YOPC   GL215382   4.598  17.671   6.264 -0.2890 -0.0216 -0.0847
 1086YOPC   C1A15383   4.153  17.344   6.613 -0.2989  0.0674 -0.1168
 1086YOPC   D2A15384   3.964  17.185   6.900 -0.3765 -0.1513  0.1079
 1086YOPC   C3A15385   3.506  17.130   7.026 -0.0145  0.1531 -0.1111
 1086YOPC   C4A15386   3.238  17.007   7.296  0.1955 -0.3054  0.1365
 1086YOPC   C1B15387   4.473  17.743   6.664  0.2618 -0.3641  0.0125
 1086YOPC   C2B15388   4.380  17.728   7.119 -0.2167 -0.0369 -0.0293
 1086YOPC   D3B15389   4.496  17.493   7.588  0.3377 -0.2799  0.0879
 1086YOPC   C4B15390   4.573  17.035   7.612 -0.2574  0.1714 -0.0223
 1087YOPC   NC315391   1.355  17.539   5.471 -0.0470  0.1487 -0.3198
 1087YOPC   PO415392   1.768  17.744   5.550 -0.1181 -0.1945  0.1785
 1087YOPC   GL115393   1.677  17.982   5.927 -0.1728 -0.1697  0.1898
 1087YOPC   GL215394   2.038  17.892   6.024 -0.1664 -0.0542 -0.1183
 1087YOPC   C1A15395   1.693  18.084   6.334  0.1477 -0.1284 -0.2487
 1087YOPC   D2A15396   1.813  18.103   6.720  0.0842  0.1101 -0.1998
 1087YOPC   C3A15397   1.974  18.554   6.751 -0.0272  0.1977  0.1228
 1087YOPC   C4A15398   2.052  19.014   6.635  0.2249  0.0026 -0.1195
 1087YOPC   C1B15399   2.101  17.691   6.454  0.2260  0.0765 -0.1437
 1087YOPC   C2B15400   2.358  17.740   6.738  0.1097 -0.0236 -0.1210
 1087YOPC   D3B15401   2.639  17.438   6.778 -0.0895  0.1601  0.0496
 1087YOPC   C4B15402   3.053  17.242   6.766  0.0479  0.0676  0.1474
 1088YOPC   NC315403  12.514   3.428   5.452  0.2832 -0.0789  0.1923
 1088YOPC   PO415404  12.640   3.328   5.889 -0.2568 -0.2790 -0.0104
 1088YOPC   GL115405  12.413   3.280   6.187 -0.0400  0.1970 -0.0380
 1088YOPC   GL215406  12.340   3.549   6.519  0.0121  0.0680 -0.1064
 1088YOPC   C1A15407  12.291   3.031   6.558 -0.2909  0.2079  0.0545
 1088YOPC   D2A15408  12.375   2.614   6.647  0.0558  0.1366  0.1707
 1088YOPC   C3A15409  12.678   2.321   6.882 -0.0283 -0.2967 -0.1082
 1088YOPC   C4A15410  12.786   2.224   7.306  0.2109 -0.1796  0.2001
 1088YOPC   C1B15411  12.149   3.385   6.860 -0.1254  0.0565  0.0542
 1088YOPC   C2B15412  11.829   3.403   7.141  0.0990  0.0833  0.3536
 1088YOPC   D3B15413  11.791   3.226   7.460 -0.0911 -0.3037  0.1496
 1088YOPC   C4B15414  11.725   3.473   7.900 -0.3599  0.0029 -0.0164
 1089YOPC   NC315415   2.205  10.164   5.724  0.1690  0.3416  0.3358
 1089YOPC   PO415416   1.716  10.173   5.767 -0.0047  0.1333 -0.1408
 1089YOPC   GL115417   1.447  10.362   6.206 -0.1830  0.4213 -0.1810
 1089YOPC   GL215418   1.728  10.424   6.439 -0.2355  0.1506 -0.2684
 1089YOPC   C1A15419   1.161  10.255   6.645 -0.0246 -0.0534  0.0889
 1089YOPC   D2A15420   1.357   9.938   6.910  0.3926  0.1056  0.1057
 1089YOPC   C3A15421   1.653  10.282   7.313  0.0251  0.0193  0.0735
 1089YOPC   C4A15422   1.796  10.657   7.476 -0.0465  0.3667 -0.0871
 1089YOPC   C1B15423   1.922  10.241   6.761  0.0745 -0.4003 -0.0813
 1089YOPC   C2B15424   1.987   9.958   7.072 -0.0075  0.0182 -0.1289
 1089YOPC   D3B15425   1.860   9.779   7.493  0.0909 -0.0957  0.0637
 1089YOPC   C4B15426   1.961   9.642   7.944 -0.1175  0.0216  0.5390
 1090YOPC   NC315427   1.944  14.119   5.836 -0.2260 -0.1012 -0.1685
 1090YOPC   PO415428   1.980  13.729   6.087  0.0053 -0.3149 -0.1128
 1090YOPC   GL115429   1.913  13.647   6.517  0.0751  0.1436 -0.2390
 1090YOPC   GL215430   1.751  13.392   6.566  0.1363  0.0460 -0.1158
 1090YOPC   C1A15431   2.049  13.638   7.016  0.0621 -0.0896 -0.2328
 1090YOPC   D2A15432   2.275  13.679   7.455  0.4337  0.1869 -0.3476
 1090YOPC   C3A15433   2.610  13.446   7.617  0.1239 -0.0962 -0.1957
 1090YOPC   C4A15434   3.051  13.630   7.725  0.3190 -0.0694  0.0519
 1090YOPC   C1B15435   1.756  13.230   6.960  0.0369  0.1296 -0.0547
 1090YOPC   C2B15436   1.817  12.849   7.327  0.0719 -0.0111  0.3824
 1090YOPC   D3B15437   1.567  12.638   7.608 -0.1680 -0.0073  0.2364
 1090YOPC   C4B15438   1.680  12.350   7.992 -0.0632  0.1128 -0.1061
 1091YOPC   NC315439   7.021  15.991   5.958 -0.2347  0.0905 -0.2250
 1091YOPC   PO415440   7.204  15.555   5.837 -0.0662  0.2132 -0.0386
 1091YOPC   GL115441   6.999  15.471   6.180 -0.1414  0.4132  0.0079
 1091YOPC   GL215442   7.191  15.727   6.491  0.0410 -0.2398  0.0651
 1091YOPC   C1A15443   6.724  15.576   6.542  0.3795 -0.2922 -0.0653
 1091YOPC   D2A15444   6.530  15.360   6.829  0.0948  0.1647  0.0966
 1091YOPC   C3A15445   6.589  15.106   7.218  0.0335 -0.1168  0.3221
 1091YOPC   C4A15446   6.584  14.768   7.404  0.5493  0.0202  0.4328
 1091YOPC   C1B15447   7.585  16.026   6.633 -0.3229  0.2117  0.1192
 1091YOPC   C2B15448   8.000  16.181   6.806  0.2974 -0.0569 -0.1358
 1091YOPC   D3B15449   8.066  16.554   7.125  0.2730 -0.0794 -0.1742
 1091YOPC   C4B15450   8.070  16.561   7.592 -0.1766  0.0884 -0.1751
 1092YOPC   NC315451   9.390   6.785   5.445 -0.0876  0.3667  0.0873
 1092YOPC   PO415452   9.093   6.975   5.707 -0.1700  0.4871 -0.2874
 1092YOPC   GL115453   8.975   7.152   6.169  0.0004 -0.2152 -0.1137
 1092YOPC   GL215454   8.935   7.525   6.265  0.2854  0.1526 -0.2244
 1092YOPC   C1A15455   9.180   7.095   6.546  0.1340  0.0288 -0.1137
 1092YOPC   D2A15456   9.081   6.980   7.044 -0.0285  0.0284  0.0571
 1092YOPC   C3A15457   9.084   6.505   7.047 -0.1709  0.0905 -0.0898
 1092YOPC   C4A15458   9.153   6.038   6.766  0.2261 -0.0879  0.1528
 1092YOPC   C1B15459   8.889   7.455   6.689 -0.0043  0.0090  0.2555
 1092YOPC   C2B15460   8.656   7.479   6.958 -0.0409 -0.2312 -0.1054
 1092YOPC   D3B15461   8.424   7.839   6.986 -0.0475  0.1668  0.1328
 1092YOPC   C4B15462   8.191   8.273   7.106 -0.1649 -0.0618  0.0130
 1093YOPC   NC315463  13.931  12.580   5.234  0.3246  0.0037 -0.2149
 1093YOPC   PO415464  14.109  12.290   5.519 -0.0277  0.0946  0.1401
 1093YOPC   GL115465  13.989  12.356   5.954  0.3364  0.0064  0.2296
 1093YOPC   GL215466  13.856  12.645   6.112  0.3037  0.1434 -0.2074
 1093YOPC   C1A15467  13.787  12.197   6.270  0.2762  0.1161 -0.0859
 1093YOPC   D2A15468  13.968  12.308   6.745 -0.4187  0.2888 -0.1020
 1093YOPC   C3A15469  14.006  12.522   7.031  0.0154  0.1586 -0.1141
 1093YOPC   C4A15470  13.941  12.458   7.524  0.0208  0.0368  0.1751
 1093YOPC   C1B15471  13.923  12.789   6.443  0.2358  0.0584 -0.3769
 1093YOPC   C2B15472  13.899  13.014   6.801  0.0010  0.1149 -0.0646
 1093YOPC   D3B15473  13.777  13.326   6.914 -0.2591 -0.1362  0.1272
 1093YOPC   C4B15474  13.572  13.672   7.200 -0.1315  0.1161  0.0803
 1094YOPC   NC315475  16.246  13.114   6.091 -0.2756  0.0035 -0.0125
 1094YOPC   PO415476  16.256  12.604   5.978 -0.0181  0.0702  0.1246
 1094YOPC   GL115477  16.129  12.655   6.390 -0.1860 -0.2687 -0.0710
 1094YOPC   GL215478  16.329  12.945   6.557  0.0567 -0.0160 -0.3000
 1094YOPC   C1A15479  15.948  12.609   6.755 -0.1071 -0.2117  0.0044
 1094YOPC   D2A15480  15.698  12.532   7.117  0.1904  0.0607  0.5815
 1094YOPC   C3A15481  15.301  12.328   7.196  0.1637  0.2705  0.2380
 1094YOPC   C4A15482  14.970  12.114   7.339  0.0014  0.2465 -0.3565
 1094YOPC   C1B15483  16.340  12.974   6.988  0.1406 -0.1779 -0.0814
 1094YOPC   C2B15484  16.485  13.055   7.349  0.2476  0.3364 -0.2426
 1094YOPC   D3B15485  16.841  12.865   7.631  0.0143 -0.1106 -0.1527
 1094YOPC   C4B15486  17.167  13.179   7.876 -0.0043 -0.0543  0.0400
 1095YOPC   NC315487   9.624   8.800   5.900 -0.2973  0.1716  0.0659
 1095YOPC   PO415488   9.177   9.021   5.898  0.4136 -0.1297 -0.0098
 1095YOPC   GL115489   9.309   9.072   6.307  0.0806 -0.0238 -0.1880
 1095YOPC   GL215490   9.523   9.180   6.293  0.1319 -0.0468 -0.1688
 1095YOPC   C1A15491   9.351   8.871   6.733 -0.0219 -0.3643 -0.0229
 1095YOPC   D2A15492   9.576   8.714   7.170 -0.2235  0.0978  0.0264
 1095YOPC   C3A15493   9.611   8.374   7.444  0.2505  0.2817  0.1134
 1095YOPC   C4A15494   9.463   7.972   7.500 -0.0070  0.0537  0.0088
 1095YOPC   C1B15495   9.761   9.118   6.597 -0.4276  0.1316  0.1351
 1095YOPC   C2B15496   9.888   9.251   6.920  0.1330  0.0743  0.1027
 1095YOPC   D3B15497   9.847   9.154   7.406 -0.2842  0.2485  0.0331
 1095YOPC   C4B15498   9.810   8.863   7.730  0.0035  0.0623  0.2572
 1096YOPC   NC315499  16.141  10.489   5.879  0.0474 -0.1241  0.0879
 1096YOPC   PO415500  16.502  10.519   6.160  0.0437 -0.1046 -0.1560
 1096YOPC   GL115501  16.528  10.160   6.457 -0.1771  0.1060 -0.2469
 1096YOPC   GL215502  16.696  10.344   6.676 -0.0095  0.0191 -0.0100
 1096YOPC   C1A15503  16.301   9.889   6.793  0.1191 -0.3256 -0.0477
 1096YOPC   D2A15504  16.127   9.704   7.155 -0.0098  0.1292  0.0356
 1096YOPC   C3A15505  16.452   9.708   7.459  0.2370  0.2800 -0.0605
 1096YOPC   C4A15506  16.651  10.016   7.645  0.2103 -0.0359  0.0739
 1096YOPC   C1B15507  16.938  10.660   6.970 -0.2221  0.0309 -0.1015
 1096YOPC   C2B15508  17.080  10.753   7.345 -0.0988 -0.1827 -0.0508
 1096YOPC   D3B15509  16.768  10.938   7.648  0.0430  0.2004 -0.0742
 1096YOPC   C4B15510  16.320  10.976   7.765 -0.1508  0.0750  0.2487
 1097YOPC   NC315511  14.403  13.115   5.503  0.2805  0.1491 -0.1301
 1097YOPC   PO415512  14.792  13.108   5.570 -0.2456 -0.0231 -0.1028
 1097YOPC   GL115513  15.022  13.142   5.904 -0.0016  0.2739 -0.1424
 1097YOPC   GL215514  15.398  13.249   5.987 -0.0884  0.0933  0.0817
 1097YOPC   C1A15515  15.087  12.777   6.161 -0.0427 -0.2299 -0.3107
 1097YOPC   D2A15516  14.970  12.444   6.216  0.0262  0.0320 -0.1242
 1097YOPC   C3A15517  15.047  12.359   6.565  0.0509  0.0417 -0.0894
 1097YOPC   C4A15518  14.856  12.218   6.882 -0.0002  0.0040  0.4310
 1097YOPC   C1B15519  15.155  13.335   6.329 -0.0913  0.1181 -0.1155
 1097YOPC   C2B15520  15.162  13.469   6.787 -0.1020 -0.0561  0.2936
 1097YOPC   D3B15521  15.198  13.376   7.189  0.5041 -0.0894 -0.0291
 1097YOPC   C4B15522  15.088  12.974   7.392 -0.0610  0.0315  0.1340
 1098YOPC   NC315523   7.356  12.387   5.748  0.0603 -0.0182 -0.1795
 1098YOPC   PO415524   7.658  12.717   5.798  0.2474 -0.5191 -0.0301
 1098YOPC   GL115525   7.734  12.769   6.242 -0.2611 -0.0753 -0.0244
 1098YOPC   GL215526   7.564  12.620   6.320  0.0797 -0.0294 -0.0698
 1098YOPC   C1A15527   7.971  12.785   6.650  0.1441 -0.0865  0.0845
 1098YOPC   D2A15528   8.273  12.638   6.930  0.1071 -0.0317 -0.1377
 1098YOPC   C3A15529   8.277  12.153   7.144 -0.1397  0.0881 -0.1263
 1098YOPC   C4A15530   8.402  11.766   7.320  0.0654  0.0627  0.3051
 1098YOPC   C1B15531   7.503  12.549   6.785 -0.3205 -0.2243  0.0220
 1098YOPC   C2B15532   7.384  12.676   7.163 -0.1180  0.2358 -0.0559
 1098YOPC   D3B15533   7.084  12.837   7.286  0.3988 -0.0410 -0.2395
 1098YOPC   C4B15534   6.707  12.949   7.214  0.2344 -0.0245 -0.0229
 1099YOPC   NC315535  14.187   4.132   6.295  0.1716 -0.2059  0.2272
 1099YOPC   PO415536  14.278   3.698   6.158 -0.0886  0.0182 -0.1402
 1099YOPC   GL115537  14.059   3.773   6.552 -0.1579  0.1104  0.2359
 1099YOPC   GL215538  13.676   3.528   6.430 -0.0173 -0.1613 -0.3562
 1099YOPC   C1A15539  14.161   3.917   6.966  0.0092  0.1953  0.0490
 1099YOPC   D2A15540  14.196   4.025   7.289 -0.5953 -0.1570 -0.2682
 1099YOPC   C3A15541  14.315   4.460   7.360  0.1546  0.1657  0.2278
 1099YOPC   C4A15542  14.691   4.718   7.468 -0.1730 -0.0360  0.0505
 1099YOPC   C1B15543  13.964   3.318   6.672  0.0237  0.0691 -0.1143
 1099YOPC   C2B15544  14.325   3.272   6.902  0.2642  0.0514  0.1369
 1099YOPC   D3B15545  14.490   2.765   6.847 -0.0096 -0.2966 -0.0671
 1099YOPC   C4B15546  14.880   2.618   6.987  0.1129 -0.0566 -0.2556
 1100YOPC   NC315547   7.738  18.225   5.764  0.1148  0.2452  0.2924
 1100YOPC   PO415548   8.203  18.277   5.838  0.1816  0.2104 -0.4747
 1100YOPC   GL115549   8.088  18.124   6.188  0.0930 -0.0389 -0.1916
 1100YOPC   GL215550   8.196  17.867   6.204  0.3996 -0.0813  0.2129
 1100YOPC   C1A15551   8.344  18.133   6.543  0.1156 -0.1037 -0.0480
 1100YOPC   D2A15552   8.718  18.187   6.833 -0.0285  0.1777  0.0576
 1100YOPC   C3A15553   8.908  18.067   7.298  0.0722  0.0445  0.0247
 1100YOPC   C4A15554   9.010  17.818   7.658  0.0046 -0.3437 -0.0817
 1100YOPC   C1B15555   7.948  17.578   6.404  0.1803  0.2705  0.1626
 1100YOPC   C2B15556   7.875  17.498   6.843  0.0535 -0.4275 -0.0824
 1100YOPC   D3B15557   8.256  17.699   7.091  0.1268  0.0233  0.0241
 1100YOPC   C4B15558   8.368  17.986   7.444  0.1384  0.1788 -0.3704
 1101YOPC   NC315559  10.252   7.026   5.458 -0.4685 -0.1196  0.1343
 1101YOPC   PO415560   9.895   6.871   5.543 -0.4805 -0.1464  0.2487
 1101YOPC   GL115561   9.910   6.638   5.921  0.0075  0.1703 -0.0739
 1101YOPC   GL215562   9.932   6.713   6.207  0.0354  0.3528 -0.2059
 1101YOPC   C1A15563  10.007   6.195   6.082 -0.0078 -0.2809 -0.0831
 1101YOPC   D2A15564  10.205   5.834   6.100 -0.1979  0.1665 -0.1787
 1101YOPC   C3A15565  10.306   5.463   6.305  0.2000 -0.1028 -0.2627
 1101YOPC   C4A15566  10.523   5.113   6.291  0.1124 -0.4842 -0.2489
 1101YOPC   C1B15567   9.973   6.345   6.579 -0.4173  0.0106 -0.0817
 1101YOPC   C2B15568   9.921   6.218   7.063  0.0692  0.0685 -0.0229
 1101YOPC   D3B15569  10.262   6.300   7.290 -0.1383  0.0160  0.1653
 1101YOPC   C4B15570  10.457   6.667   7.639  0.0234 -0.2430  0.0019
 1102YOPC   NC315571  17.591  12.010   5.514 -0.1669 -0.0473  0.1235
 1102YOPC   PO415572  17.789  12.123   5.878 -0.3001  0.2052 -0.2366
 1102YOPC   GL115573  18.056  11.917   6.178  0.4637 -0.0443  0.1489
 1102YOPC   GL215574  18.063  11.542   6.223  0.1811 -0.0326  0.0383
 1102YOPC   C1A15575  18.066  12.062   6.546 -0.0599 -0.0669 -0.3687
 1102YOPC   D2A15576  17.976  12.140   7.013  0.2840 -0.0938  0.0558
 1102YOPC   C3A15577  18.166  12.538   7.169 -0.2323  0.2649 -0.0392
 1102YOPC   C4A15578  18.448  12.908   7.210  0.0228 -0.2385 -0.2015
 1102YOPC   C1B15579  18.009  11.604   6.688 -0.1892  0.0780  0.1384
 1102YOPC   C2B15580  17.683  11.648   7.047 -0.3234 -0.1534 -0.0020
 1102YOPC   D3B15581  17.560  12.071   7.408 -0.0777  0.4589 -0.0269
 1102YOPC   C4B15582  17.145  12.202   7.563 -0.4043 -0.0663  0.1830
 1103ERGO   ROH15583   7.234   4.614   9.554  0.1960  0.0041  0.0447
 1103ERGO    R115584   7.421   4.506   9.371  0.1377  0.0741 -0.0562
 1103ERGO    R215585   7.387   4.259   9.252  0.1528  0.0747 -0.0548
 1103ERGO    R315586   7.419   4.400   9.023 -0.0024  0.0989 -0.0643
 1103ERGO    R415587   7.454   4.121   8.943  0.1139  0.1167 -0.0832
 1103ERGO    R515588   7.593   4.284   8.905  0.0175  0.1909 -0.1292
 1103ERGO    C115589   7.524   4.173   8.547 -0.0545  0.1640 -0.1087
 1103ERGO    C215590   7.583   4.041   8.249  0.1387 -0.1944 -0.1179
 1104ERGO   ROH15591   3.978   5.673  10.088  0.0902 -0.2180 -0.0106
 1104ERGO    R115592   3.847   5.651   9.838  0.2598 -0.2370 -0.0995
 1104ERGO    R215593   3.713   5.863   9.721 -0.0858 -0.3724  0.0275
 1104ERGO    R315594   3.876   5.808   9.511  0.1418  0.1263  0.0608
 1104ERGO    R415595   3.619   5.875   9.388  0.0239 -0.4416 -0.0059
 1104ERGO    R515596   3.736   5.695   9.354  0.4811 -0.1451 -0.0526
 1104ERGO    C115597   3.718   5.830   8.998  0.3014 -0.0138  0.0060
 1104ERGO    C215598   3.664   5.976   8.638 -0.1697 -0.0964 -0.1232
 1105ERGO   ROH15599  10.181  11.133   6.018 -0.0267 -0.0825  0.1229
 1105ERGO    R115600  10.030  11.231   6.236 -0.0599  0.1428  0.0002
 1105ERGO    R215601  10.087  11.166   6.498 -0.3527  0.0720  0.0462
 1105ERGO    R315602  10.091  11.436   6.530  0.0020  0.0731  0.0375
 1105ERGO    R415603  10.025  11.331   6.796 -0.2860  0.1629  0.0110
 1105ERGO    R515604   9.913  11.481   6.684 -0.0252  0.3197 -0.0566
 1105ERGO    C115605   9.994  11.681   6.999  0.0859  0.2166 -0.0176
 1105ERGO    C215606   9.921  11.795   7.264 -0.0563  0.1270  0.0123
 1106ERGO   ROH15607  15.174   0.043   6.726 -0.1307 -0.0724  0.0601
 1106ERGO    R115608  15.283   0.117   6.977 -0.1031  0.0224  0.0205
 1106ERGO    R215609  15.129   0.221   7.182 -0.1063 -0.0385  0.0491
 1106ERGO    R315610  15.238   0.017   7.324  0.0495  0.0419  0.0464
 1106ERGO    R415611  15.133   0.201   7.527 -0.0077  0.0051  0.0510
 1106ERGO    R515612  15.336   0.124   7.515  0.0356  0.1226  0.0093
 1106ERGO    C115613  15.238  -0.003   7.861  0.1958  0.1062  0.0494
 1106ERGO    C215614  15.285  -0.086   8.212  0.1587 -0.2035  0.0321
 1107ERGO   ROH15615  16.336  15.232   9.886 -0.3088  0.2071 -0.0392
 1107ERGO    R115616  16.294  15.311   9.618  0.0839  0.3624 -0.0607
 1107ERGO    R215617  16.496  15.415   9.460  0.4896 -0.1687  0.0836
 1107ERGO    R315618  16.422  15.215   9.291  0.0435  0.0429  0.0127
 1107ERGO    R415619  16.572  15.403   9.123  0.3695 -0.1672  0.0550
 1107ERGO    R515620  16.372  15.327   9.085  0.1993  0.2408  0.0768
 1107ERGO    C115621  16.548  15.208   8.768 -0.1191  0.0324 -0.0279
 1107ERGO    C215622  16.693  15.398   8.492 -0.1359 -0.1133 -0.0584
 1108ERGO   ROH15623  15.757  12.964   6.152 -0.0128 -0.3150  0.0366
 1108ERGO    R115624  15.674  12.901   6.416 -0.0440 -0.0625  0.0894
 1108ERGO    R215625  15.490  13.054   6.554 -0.1581  0.0001 -0.1271
 1108ERGO    R315626  15.362  12.816   6.581 -0.0399 -0.0402  0.1080
 1108ERGO    R415627  15.305  12.959   6.830  0.2866 -0.0216  0.1733
 1108ERGO    R515628  15.390  12.759   6.812  0.3280  0.0052  0.0801
 1108ERGO    C115629  15.077  12.680   7.016  0.6564 -0.0721  0.5690
 1108ERGO    C215630  14.783  12.686   7.073 -0.3203  0.3924  0.0687
 1109ERGO   ROH15631   3.197   2.496   9.732 -0.0821  0.0245  0.1159
 1109ERGO    R115632   3.140   2.605   9.477 -0.1340  0.0289  0.1289
 1109ERGO    R215633   3.317   2.768   9.342 -0.1137 -0.0596  0.0459
 1109ERGO    R315634   3.284   2.586   9.143 -0.2720 -0.0620  0.0736
 1109ERGO    R415635   3.286   2.845   9.006 -0.1680 -0.0746  0.0479
 1109ERGO    R515636   3.132   2.691   8.990 -0.2586  0.0075  0.1074
 1109ERGO    C115637   3.236   2.718   8.624 -0.3482 -0.0856  0.0750
 1109ERGO    C215638   3.141   2.708   8.256 -0.1826 -0.1228  0.1845
 1110ERGO   ROH15639   7.477   6.654   9.868  0.2708 -0.1947  0.0296
 1110ERGO    R115640   7.399   6.649   9.595  0.1666 -0.1178  0.0571
 1110ERGO    R215641   7.517   6.811   9.405  0.1156 -0.0868  0.0522
 1110ERGO    R315642   7.559   6.575   9.277  0.0359 -0.0610 -0.0224
 1110ERGO    R415643   7.666   6.778   9.095 -0.0003 -0.0288 -0.0104
 1110ERGO    R515644   7.520   6.625   9.046 -0.0406  0.0039  0.0035
 1110ERGO    C115645   7.793   6.537   8.794 -0.1427  0.0292 -0.1170
 1110ERGO    C215646   7.941   6.406   8.663  0.0568  0.4058 -0.0522
 1111ERGO   ROH15647   7.592  17.177   9.806 -0.0832  0.0107 -0.0900
 1111ERGO    R115648   7.624  17.087   9.539 -0.1253 -0.0305 -0.0808
 1111ERGO    R215649   7.411  17.061   9.364 -0.1294  0.1096 -0.0943
 1111ERGO    R315650   7.563  17.222   9.206 -0.0020 -0.0101 -0.0962
 1111ERGO    R415651   7.417  17.050   9.019  0.0302 -0.0526 -0.0884
 1111ERGO    R515652   7.633  17.079   9.026  0.0391 -0.1178  0.0011
 1111ERGO    C115653   7.563  17.194   8.670  0.2428 -0.2596 -0.0866
 1111ERGO    C215654   7.565  17.053   8.319  0.2064 -0.2939 -0.0758
 1112ERGO   ROH15655   3.910  16.097   9.688 -0.1017 -0.1111 -0.1475
 1112ERGO    R115656   3.825  16.154   9.424 -0.0534 -0.0735 -0.1555
 1112ERGO    R215657   4.001  16.229   9.225 -0.0217 -0.0013 -0.1032
 1112ERGO    R315658   3.888  16.020   9.092  0.0456  0.0041 -0.1679
 1112ERGO    R415659   4.001  16.191   8.881  0.0605  0.0628 -0.1103
 1112ERGO    R515660   3.795  16.119   8.894  0.0717  0.0235 -0.1694
 1112ERGO    C115661   3.895  15.972   8.557  0.1715  0.1050 -0.1752
 1112ERGO    C215662   4.118  15.888   8.291 -0.1486  0.1990  0.1418
 1113ERGO   ROH15663   7.579   6.868   6.441  0.0109 -0.4192 -0.0099
 1113ERGO    R115664   7.460   6.763   6.676  0.0009 -0.2960  0.0415
 1113ERGO    R215665   7.590   6.761   6.920 -0.0323 -0.1124  0.0638
 1113ERGO    R315666   7.365   6.890   7.003 -0.0722 -0.1063 -0.0517
 1113ERGO    R415667   7.499   6.804   7.250  0.0539  0.3275  0.0356
 1113ERGO    R515668   7.293   6.763   7.194  0.0570  0.1331  0.1612
 1113ERGO    C115669   7.236   6.950   7.522  0.0667  0.5895 -0.0892
 1113ERGO    C215670   7.312   6.842   7.899 -0.2097  0.1843  0.1747
 1114ERGO   ROH15671  15.477  15.092   6.397 -0.0893  0.0757 -0.1046
 1114ERGO    R115672  15.306  15.094   6.622 -0.0631  0.1083 -0.0870
 1114ERGO    R215673  15.399  15.122   6.880 -0.0137 -0.1019 -0.0882
 1114ERGO    R315674  15.221  15.328   6.888  0.1580  0.0446  0.0434
 1114ERGO    R415675  15.260  15.252   7.169  0.1317 -0.1493  0.0061
 1114ERGO    R515676  15.069  15.268   7.063  0.1279  0.0680  0.0314
 1114ERGO    C115677  15.011  15.520   7.344  0.3778 -0.0393  0.1846
 1114ERGO    C215678  15.018  15.697   7.587  0.0159  0.1214 -0.1398
 1115ERGO   ROH15679  16.407   8.872   6.883 -0.0405  0.1710 -0.2559
 1115ERGO    R115680  16.605   9.064   6.945 -0.0089  0.0843 -0.0812
 1115ERGO    R215681  16.634   9.299   6.802  0.2014  0.0854 -0.0389
 1115ERGO    R315682  16.612   9.413   7.048  0.0531  0.0726 -0.0452
 1115ERGO    R415683  16.701   9.631   6.873  0.1575  0.0821  0.0201
 1115ERGO    R515684  16.795   9.567   7.059  0.0462  0.0728  0.0737
 1115ERGO    C115685  16.719   9.931   7.145 -0.0074  0.0681  0.0485
 1115ERGO    C215686  16.782  10.275   7.204  0.1750 -0.0462  0.3854
 1116ERGO   ROH15687   9.160  13.865   9.384  0.0439 -0.0703  0.1319
 1116ERGO    R115688   9.260  13.880   9.120  0.1205  0.0166  0.1674
 1116ERGO    R215689   9.416  13.680   9.009 -0.0641 -0.0614  0.0669
 1116ERGO    R315690   9.227  13.686   8.813 -0.0067  0.2726  0.0128
 1116ERGO    R415691   9.472  13.597   8.678 -0.1105 -0.2205  0.0967
 1116ERGO    R515692   9.345  13.764   8.620  0.2147  0.0284  0.0334
 1116ERGO    C115693   9.327  13.554   8.302 -0.0838  0.0004  0.0632
 1116ERGO    C215694   9.331  13.443   7.998 -0.1478 -0.0303  0.4100
 1117ERGO   ROH15695   7.087   2.472   9.644  0.1371  0.1634 -0.1055
 1117ERGO    R115696   6.980   2.317   9.432  0.0579  0.1196 -0.0337
 1117ERGO    R215697   6.772   2.406   9.274  0.0617  0.1239 -0.0292
 1117ERGO    R315698   6.946   2.352   9.072  0.0099 -0.0010 -0.0423
 1117ERGO    R415699   6.700   2.438   8.937 -0.0433 -0.1061 -0.0314
 1117ERGO    R515700   6.809   2.254   8.901 -0.0381 -0.1282  0.0623
 1117ERGO    C115701   6.820   2.407   8.552 -0.1531 -0.3573 -0.0450
 1117ERGO    C215702   6.755   2.733   8.162  0.0980  0.1076  0.1369
 1118ERGO   ROH15703   4.900   7.404   9.881 -0.0247 -0.0694 -0.0689
 1118ERGO    R115704   4.858   7.503   9.619 -0.2960 -0.0323 -0.0135
 1118ERGO    R215705   4.995   7.406   9.399 -0.1474  0.3456 -0.0934
 1118ERGO    R315706   4.744   7.368   9.301 -0.1043 -0.1246 -0.0449
 1118ERGO    R415707   4.916   7.381   9.064 -0.1777  0.3258 -0.0852
 1118ERGO    R515708   4.737   7.501   9.102 -0.4210 -0.0468  0.0103
 1118ERGO    C115709   4.634   7.332   8.776 -0.1549 -0.1271 -0.0347
 1118ERGO    C215710   4.393   7.244   8.623 -0.1006  0.1149  0.2339
 1119ERGO   ROH15711  10.550  15.254   5.991 -0.0007 -0.2625  0.1281
 1119ERGO    R115712  10.557  15.263   6.274  0.0288 -0.1238  0.1227
 1119ERGO    R215713  10.387  15.423   6.422 -0.0211 -0.1263  0.0641
 1119ERGO    R315714  10.328  15.190   6.547  0.0934 -0.0915  0.1867
 1119ERGO    R415715  10.232  15.399   6.730 -0.1310 -0.0397  0.0169
 1119ERGO    R515716  10.368  15.235   6.779 -0.0330  0.0850  0.1768
 1119ERGO    C115717  10.086  15.165   7.026 -0.0873  0.0434  0.1044
 1119ERGO    C215718  10.000  15.253   7.355 -0.0439  0.1867  0.1205
 1120ERGO   ROH15719   4.267   0.651   9.615 -0.2324  0.0166 -0.0345
 1120ERGO    R115720   4.347   0.502   9.388 -0.1443 -0.0069  0.0118
 1120ERGO    R215721   4.166   0.384   9.217 -0.0777 -0.0218 -0.0466
 1120ERGO    R315722   4.301   0.525   9.027 -0.0021 -0.0434 -0.0097
 1120ERGO    R415723   4.233   0.271   8.897 -0.1724  0.0389 -0.0885
 1120ERGO    R515724   4.432   0.360   8.912 -0.1132 -0.0901 -0.0728
 1120ERGO    C115725   4.398   0.338   8.533 -0.1565  0.0540 -0.0784
 1120ERGO    C215726   4.367   0.205   8.260 -0.2299 -0.1317  0.1518
 1121ERGO   ROH15727   0.348   2.304   6.476  0.3247 -0.2150 -0.0974
 1121ERGO    R115728   0.526   2.333   6.694  0.2761 -0.1796 -0.0625
 1121ERGO    R215729   0.554   2.571   6.832  0.3235 -0.1268 -0.1640
 1121ERGO    R315730   0.500   2.415   7.048  0.2094 -0.0085 -0.1056
 1121ERGO    R415731   0.586   2.672   7.161 -0.1891  0.1741 -0.1957
 1121ERGO    R515732   0.668   2.476   7.208 -0.0464  0.2892  0.0633
 1121ERGO    C115733   0.554   2.585   7.555 -0.5945  0.4604 -0.1593
 1121ERGO    C215734   0.705   2.611   7.888  0.0101  0.0498  0.0272
 1122ERGO   ROH15735  13.203  16.746   5.924 -0.0095  0.0106  0.0916
 1122ERGO    R115736  13.323  16.843   6.161  0.0475 -0.0591  0.0918
 1122ERGO    R215737  13.293  17.105   6.247  0.1312 -0.0632  0.1357
 1122ERGO    R315738  13.209  16.985   6.476  0.1263 -0.0750  0.1276
 1122ERGO    R415739  13.330  17.237   6.564 -0.0192 -0.0049  0.1301
 1122ERGO    R515740  13.379  17.038   6.636  0.0578  0.0274  0.1679
 1122ERGO    C115741  13.274  17.202   6.963 -0.1114  0.0180  0.1191
 1122ERGO    C215742  13.320  17.036   7.355 -0.5191 -0.0699 -0.1470
 1123ERGO   ROH15743  16.529  17.196   9.867 -0.1741  0.1514 -0.0890
 1123ERGO    R115744  16.421  17.202   9.606 -0.1943 -0.1011 -0.0894
 1123ERGO    R215745  16.515  17.373   9.410 -0.4266 -0.0548 -0.1647
 1123ERGO    R315746  16.543  17.142   9.268 -0.1262 -0.0814 -0.0682
 1123ERGO    R415747  16.510  17.351   9.065 -0.3532 -0.2016 -0.1570
 1123ERGO    R515748  16.393  17.167   9.083 -0.1337 -0.3387 -0.1001
 1123ERGO    C115749  16.533  17.122   8.731 -0.0286 -0.3121 -0.0618
 1123ERGO    C215750  16.515  17.106   8.510 -0.1227  0.2360  0.1226
 1124ERGO   ROH15751  11.511   3.160   9.922 -0.1370 -0.1601 -0.0706
 1124ERGO    R115752  11.594   3.356   9.735 -0.0122 -0.1719 -0.0281
 1124ERGO    R215753  11.813   3.321   9.570 -0.0429 -0.2789 -0.0465
 1124ERGO    R315754  11.633   3.378   9.374 -0.0121 -0.1118 -0.0234
 1124ERGO    R415755  11.895   3.430   9.253  0.0218 -0.3696 -0.0613
 1124ERGO    R515756  11.726   3.568   9.262  0.1575 -0.2065 -0.0433
 1124ERGO    C115757  11.775   3.547   8.884  0.0885 -0.2656 -0.0482
 1124ERGO    C215758  11.963   3.500   8.570 -0.0649 -0.2412 -0.0661
 1125ERGO   ROH15759  12.625   8.977   9.963  0.1237 -0.2684 -0.0990
 1125ERGO    R115760  12.676   8.900   9.695  0.0188 -0.1233 -0.1622
 1125ERGO    R215761  12.494   8.940   9.491 -0.0844 -0.0622 -0.0592
 1125ERGO    R315762  12.703   9.067   9.372 -0.1675  0.0447 -0.0932
 1125ERGO    R415763  12.566   8.927   9.153  0.0043 -0.2212 -0.0351
 1125ERGO    R515764  12.778   8.913   9.205  0.0066 -0.0020  0.0247
 1125ERGO    C115765  12.805   9.039   8.846 -0.0221 -0.2135 -0.0529
 1125ERGO    C215766  12.707   8.923   8.618 -0.1826 -0.0982  0.0274
 1126ERGO   ROH15767  14.214  12.532   9.796 -0.0114 -0.0724 -0.0156
 1126ERGO    R115768  14.129  12.550   9.527  0.0010 -0.0528 -0.0159
 1126ERGO    R215769  14.260  12.704   9.339  0.0302 -0.0824  0.0004
 1126ERGO    R315770  14.267  12.471   9.200 -0.0116 -0.0735 -0.0213
 1126ERGO    R415771  14.325  12.677   9.001  0.5336 -0.0696  0.0864
 1126ERGO    R515772  14.170  12.525   8.988  0.3665  0.0895 -0.1755
 1126ERGO    C115773  14.368  12.443   8.673  0.7875 -0.0538  0.1161
 1126ERGO    C215774  14.442  12.371   8.349 -0.2342 -0.0076  0.0945
 1127ERGO   ROH15775   2.444   1.438   6.134 -0.0867  0.0754  0.0410
 1127ERGO    R115776   2.439   1.615   6.354 -0.1296  0.0336  0.0735
 1127ERGO    R215777   2.293   1.564   6.584 -0.0686 -0.0724  0.0869
 1127ERGO    R315778   2.533   1.604   6.706 -0.0666  0.0133  0.0565
 1127ERGO    R415779   2.334   1.641   6.918 -0.0530 -0.1324  0.0994
 1127ERGO    R515780   2.492   1.781   6.861 -0.1278 -0.0420  0.1057
 1127ERGO    C115781   2.583   1.724   7.227 -0.0420 -0.0869  0.0781
 1127ERGO    C215782   2.422   1.686   7.568 -0.2833  0.1810  0.0771
 1128ERGO   ROH15783   9.731   7.252   9.938 -0.2521  0.1499 -0.1452
 1128ERGO    R115784   9.816   7.316   9.676 -0.1871  0.1296 -0.1301
 1128ERGO    R215785   9.977   7.148   9.527 -0.1269  0.1265 -0.0705
 1128ERGO    R315786   9.778   7.173   9.343 -0.0841  0.0863 -0.1217
 1128ERGO    R415787  10.028   7.183   9.187 -0.0600  0.1280 -0.0602
 1128ERGO    R515788   9.866   7.329   9.183 -0.0806  0.0943 -0.1050
 1128ERGO    C115789   9.871   7.225   8.816  0.0191  0.0911 -0.1024
 1128ERGO    C215790  10.049   7.169   8.581 -0.2107 -0.0936  0.2624
 1129ERGO   ROH15791   1.482  17.662   9.724  0.0562  0.0974  0.0407
 1129ERGO    R115792   1.493  17.512   9.483 -0.1940  0.0032  0.0848
 1129ERGO    R215793   1.270  17.467   9.326 -0.2705  0.3649  0.0775
 1129ERGO    R315794   1.427  17.573   9.131 -0.0501  0.0271  0.0617
 1129ERGO    R415795   1.191  17.472   8.990 -0.1955  0.3657  0.0598
 1129ERGO    R515796   1.399  17.425   8.945 -0.2614 -0.0026  0.1162
 1129ERGO    C115797   1.292  17.575   8.611  0.0550  0.0490  0.0347
 1129ERGO    C215798   1.306  17.479   8.306  0.1698 -0.2158  0.0449
 1130ERGO   ROH15799   4.230   9.558   6.499  0.1025 -0.1506 -0.1193
 1130ERGO    R115800   4.221   9.679   6.755  0.2152 -0.2568 -0.0644
 1130ERGO    R215801   3.989   9.789   6.859  0.3603  0.0932 -0.1038
 1130ERGO    R315802   4.043   9.623   7.067 -0.0046 -0.1056 -0.1590
 1130ERGO    R415803   3.911   9.855   7.189  0.4839  0.1494 -0.0847
 1130ERGO    R515804   4.104   9.771   7.246  0.3087 -0.2914 -0.1029
 1130ERGO    C115805   3.916   9.738   7.577  0.2132 -0.0045 -0.1253
 1130ERGO    C215806   3.976   9.653   7.963  0.1749 -0.1504  0.1912
 1131ERGO   ROH15807  17.220  13.604   6.450 -0.1174  0.1420 -0.0779
 1131ERGO    R115808  17.006  13.606   6.635 -0.0976  0.0353 -0.0542
 1131ERGO    R215809  16.960  13.397   6.811 -0.0100 -0.0135 -0.0936
 1131ERGO    R315810  16.970  13.595   6.997 -0.0569 -0.0495 -0.0513
 1131ERGO    R415811  16.751  13.421   7.085  0.0962 -0.2253  0.0087
 1131ERGO    R515812  16.740  13.636   7.053 -0.0648 -0.2194  0.0629
 1131ERGO    C115813  16.638  13.620   7.420  0.1142 -0.3824  0.1079
 1131ERGO    C215814  16.654  13.822   7.675  0.0293 -0.1197  0.1554
 1132ERGO   ROH15815  14.380  17.716   6.240 -0.3610  0.2058  0.0972
 1132ERGO    R115816  14.214  17.665   6.463 -0.2033  0.0262  0.1775
 1132ERGO    R215817  14.207  17.419   6.591 -0.1012 -0.0771 -0.0010
 1132ERGO    R315818  14.261  17.569   6.811  0.0485 -0.2389  0.0723
 1132ERGO    R415819  14.190  17.305   6.916 -0.0119 -0.2694 -0.0634
 1132ERGO    R515820  14.102  17.496   6.974  0.0899 -0.2734  0.0924
 1132ERGO    C115821  14.231  17.378   7.313  0.1805 -0.5335 -0.0309
 1132ERGO    C215822  14.460  17.400   7.498 -0.3284  0.1708 -0.2373
 1133ERGO   ROH15823  11.936  18.206   5.510 -0.0044  0.1655 -0.0189
 1133ERGO    R115824  11.827  18.234   5.769 -0.0168  0.0814 -0.0144
 1133ERGO    R215825  11.966  18.165   5.997 -0.0398 -0.0278 -0.0291
 1133ERGO    R315826  11.907  18.420   6.071 -0.0064 -0.0464  0.0612
 1133ERGO    R415827  11.990  18.287   6.320  0.0619 -0.1127 -0.0044
 1133ERGO    R515828  11.804  18.397   6.287  0.0594 -0.0974  0.0842
 1133ERGO    C115829  11.949  18.597   6.577  0.1523 -0.1797  0.0949
 1133ERGO    C215830  12.009  18.566   6.927 -0.1230 -0.0448 -0.1275
 1134ERGO   ROH15831  15.276   2.593  10.524  0.0257  0.0510 -0.0847
 1134ERGO    R115832  15.418   2.556  10.282 -0.0557  0.0112 -0.1280
 1134ERGO    R215833  15.357   2.354  10.104 -0.0207 -0.1160 -0.0066
 1134ERGO    R315834  15.340   2.559   9.926 -0.2145 -0.2078 -0.0960
 1134ERGO    R415835  15.461   2.339   9.774  0.0625 -0.1278  0.0208
 1134ERGO    R515836  15.540   2.541   9.795 -0.1706 -0.0328 -0.0470
 1134ERGO    C115837  15.506   2.524   9.416 -0.0712 -0.2209 -0.0472
 1134ERGO    C215838  15.634   2.550   9.098  0.0945 -0.1524 -0.0407
 1135ERGO   ROH15839   9.644   9.925   9.720 -0.1409  0.0312  0.1471
 1135ERGO    R115840   9.659   9.706   9.542 -0.0712  0.0401  0.1422
 1135ERGO    R215841   9.500   9.685   9.317 -0.0669 -0.0067  0.1438
 1135ERGO    R315842   9.739   9.656   9.191 -0.0585  0.0736  0.1401
 1135ERGO    R415843   9.544   9.528   9.013 -0.0308  0.0769  0.1053
 1135ERGO    R515844   9.727   9.438   9.091 -0.0129  0.0947  0.0864
 1135ERGO    C115845   9.794   9.408   8.717 -0.0017  0.2010  0.0794
 1135ERGO    C215846   9.666   9.446   8.423  0.3168 -0.3657  0.0817
 1136ERGO   ROH15847   2.531   8.690  10.146 -0.1312 -0.1065 -0.0009
 1136ERGO    R115848   2.673   8.736   9.905 -0.1227 -0.0202  0.0205
 1136ERGO    R215849   2.668   8.560   9.693 -0.0325  0.0062 -0.0036
 1136ERGO    R315850   2.590   8.780   9.554 -0.1009 -0.0045  0.0170
 1136ERGO    R415851   2.719   8.607   9.355  0.0246  0.0862  0.0157
 1136ERGO    R515852   2.767   8.815   9.396 -0.0795  0.1025  0.0633
 1136ERGO    C115853   2.675   8.841   9.026 -0.0064  0.1226  0.0464
 1136ERGO    C215854   2.538   8.706   8.764  0.0814  0.1288 -0.2022
 1137ERGO   ROH15855   2.777   1.521   9.659 -0.2778 -0.2136  0.1339
 1137ERGO    R115856   2.693   1.726   9.484 -0.1409 -0.1612  0.1270
 1137ERGO    R215857   2.842   1.805   9.264 -0.0627 -0.2318  0.1505
 1137ERGO    R315858   2.611   1.754   9.130 -0.0697 -0.1066  0.1154
 1137ERGO    R415859   2.781   1.889   8.934  0.0236 -0.1871  0.1463
 1137ERGO    R515860   2.579   1.946   8.991  0.0469 -0.0863  0.1193
 1137ERGO    C115861   2.529   1.890   8.617  0.0673 -0.0436  0.1109
 1137ERGO    C215862   2.641   1.911   8.335  0.1259 -0.0180 -0.0150
 1138ERGO   ROH15863  14.357   7.636   6.564 -0.1787 -0.1716  0.0682
 1138ERGO    R115864  14.465   7.592   6.822 -0.1221 -0.2424  0.0330
 1138ERGO    R215865  14.311   7.604   7.051 -0.0442 -0.1618  0.0834
 1138ERGO    R315866  14.412   7.355   7.093 -0.1735 -0.2224  0.0399
 1138ERGO    R415867  14.369   7.464   7.362 -0.0720 -0.2325  0.0569
 1138ERGO    R515868  14.554   7.380   7.284 -0.1308 -0.3246  0.0202
 1138ERGO    C115869  14.497   7.149   7.582 -0.2096 -0.3306  0.0006
 1138ERGO    C215870  14.516   6.803   7.697  0.2065 -0.1196  0.0433
 1139ERGO   ROH15871   7.629   8.272   9.748  0.2268  0.0821 -0.1107
 1139ERGO    R115872   7.494   8.262   9.500  0.1356 -0.0553 -0.0575
 1139ERGO    R215873   7.584   8.396   9.276 -0.0830  0.0303 -0.0995
 1139ERGO    R315874   7.569   8.150   9.162  0.1125  0.0103 -0.0843
 1139ERGO    R415875   7.469   8.334   8.956 -0.0743 -0.0848 -0.0800
 1139ERGO    R515876   7.367   8.157   9.033  0.0880 -0.1694 -0.0570
 1139ERGO    C115877   7.388   8.066   8.663  0.1144 -0.1707 -0.0543
 1139ERGO    C215878   7.310   7.814   8.353 -0.1544 -0.2560 -0.0606
 1140ERGO   ROH15879   7.912  16.604   6.199  0.0175  0.1279  0.0885
 1140ERGO    R115880   8.070  16.511   6.414 -0.0675  0.0716  0.1274
 1140ERGO    R215881   8.343  16.554   6.428 -0.0375 -0.1165  0.1409
 1140ERGO    R315882   8.281  16.660   6.670  0.0140 -0.0100  0.1081
 1140ERGO    R415883   8.572  16.689   6.648  0.0439 -0.2535  0.1411
 1140ERGO    R515884   8.463  16.594   6.811 -0.0581 -0.1279  0.1483
 1140ERGO    C115885   8.648  16.866   7.004  0.1394 -0.2332  0.1104
 1140ERGO    C215886   8.799  16.993   7.265 -0.0308  0.0029 -0.0285
 1141ERGO   ROH15887  16.275   6.443   6.937 -0.0377  0.2059  0.0945
 1141ERGO    R115888  16.016   6.367   7.019 -0.0380 -0.0742 -0.1467
 1141ERGO    R215889  15.951   6.107   7.085  0.2577 -0.1046  0.0602
 1141ERGO    R315890  15.866   6.220   7.317 -0.1911  0.0426 -0.1667
 1141ERGO    R415891  15.872   5.932   7.372  0.4105  0.1245  0.2455
 1141ERGO    R515892  15.702   6.066   7.401  0.0791 -0.2057 -0.0904
 1141ERGO    C115893  15.745   5.936   7.757  0.0780  0.3961  0.1403
 1141ERGO    C215894  15.921   5.830   7.945  0.3212  0.1816 -0.2379
 1142ERGO   ROH15895   5.037  14.845   9.422 -0.1259  0.1041  0.0590
 1142ERGO    R115896   4.894  14.971   9.213 -0.0847 -0.0782 -0.0804
 1142ERGO    R215897   5.018  15.122   9.018 -0.0788  0.0221  0.0070
 1142ERGO    R315898   4.887  14.954   8.850  0.2383 -0.1397 -0.0880
 1142ERGO    R415899   4.955  15.186   8.684 -0.2910  0.1530  0.0697
 1142ERGO    R515900   4.757  15.099   8.710 -0.1108 -0.2976  0.0553
 1142ERGO    C115901   4.795  15.066   8.332 -0.1170  0.0772  0.0170
 1142ERGO    C215902   4.743  15.160   8.053 -0.0449 -0.0106 -0.0487
 1143ERGO   ROH15903   9.263   7.936   9.768 -0.2111  0.0643  0.0293
 1143ERGO    R115904   9.200   8.079   9.532 -0.2231 -0.0098 -0.0105
 1143ERGO    R215905   9.391   8.218   9.387 -0.2661  0.0861  0.0386
 1143ERGO    R315906   9.298   8.066   9.182 -0.1012  0.0041  0.0204
 1143ERGO    R415907   9.482   8.256   9.056 -0.1402  0.0925  0.0718
 1143ERGO    R515908   9.275   8.219   8.999 -0.1052 -0.0264 -0.0118
 1143ERGO    C115909   9.448   8.135   8.670  0.0879  0.0192  0.0739
 1143ERGO    C215910   9.357   8.208   8.249 -0.0330  0.0335 -0.0278
 1144ERGO   ROH15911   1.611  12.551   6.149  0.0443 -0.0863 -0.0820
 1144ERGO    R115912   1.574  12.374   6.367 -0.0783  0.0269 -0.0117
 1144ERGO    R215913   1.712  12.401   6.605 -0.1115  0.0653 -0.0069
 1144ERGO    R315914   1.463  12.400   6.712 -0.1287  0.2247 -0.0388
 1144ERGO    R415915   1.639  12.331   6.935 -0.1758  0.2045  0.0104
 1144ERGO    R515916   1.465  12.219   6.868 -0.2307  0.2650  0.0208
 1144ERGO    C115917   1.362  12.290   7.228 -0.2294  0.4353 -0.0094
 1144ERGO    C215918   1.165  12.207   7.569 -0.2975  0.4341  0.1170
 1145ERGO   ROH15919  10.757  13.602   9.504  0.1688 -0.0624  0.0459
 1145ERGO    R115920  10.909  13.619   9.266  0.0972 -0.0221  0.0019
 1145ERGO    R215921  10.963  13.398   9.108  0.0329  0.0066 -0.0646
 1145ERGO    R315922  10.854  13.552   8.912 -0.0176  0.0586  0.0044
 1145ERGO    R415923  11.046  13.379   8.773  0.1376  0.2791 -0.0560
 1145ERGO    R515924  11.037  13.597   8.764 -0.0079  0.2790  0.0813
 1145ERGO    C115925  10.993  13.513   8.394  0.1511  0.4866  0.0139
 1145ERGO    C215926  11.033  13.527   8.004 -0.2048  0.4337  0.1330
 1146ERGO   ROH15927   9.914  15.509   9.677  0.1370 -0.0387  0.0927
 1146ERGO    R115928  10.007  15.587   9.422  0.0856  0.0355  0.0957
 1146ERGO    R215929  10.101  15.406   9.235  0.1409  0.0965  0.0576
 1146ERGO    R315930   9.915  15.523   9.075  0.0788  0.0498  0.0963
 1146ERGO    R415931  10.110  15.406   8.890 -0.0044  0.0017  0.0537
 1146ERGO    R515932  10.041  15.613   8.893 -0.0008 -0.0027  0.0201
 1146ERGO    C115933   9.940  15.515   8.539 -0.1473 -0.0974  0.0879
 1146ERGO    C215934   9.901  15.660   8.258  0.1046  0.6226 -0.3930
 1147ERGO   ROH15935  17.160  15.487   6.594 -0.0735 -0.0782 -0.0614
 1147ERGO    R115936  17.088  15.627   6.829 -0.0725  0.0465 -0.1346
 1147ERGO    R215937  17.179  15.554   7.080 -0.3152 -0.0104 -0.0596
 1147ERGO    R315938  17.261  15.813   7.090 -0.0327 -0.0970 -0.0589
 1147ERGO    R415939  17.253  15.726   7.370 -0.2675 -0.0412 -0.0530
 1147ERGO    R515940  17.155  15.901   7.286 -0.0311  0.0546 -0.1279
 1147ERGO    C115941  17.374  16.069   7.549  0.0252 -0.1405 -0.0483
 1147ERGO    C215942  17.643  16.125   7.826 -0.3053 -0.1359  0.2755
 1148ERGO   ROH15943  14.991   7.165  10.380 -0.3711  0.1498 -0.1825
 1148ERGO    R115944  15.184   7.144  10.174 -0.1910  0.1444 -0.0156
 1148ERGO    R215945  15.182   6.938   9.989  0.0177  0.0973  0.0371
 1148ERGO    R315946  15.182   7.143   9.810  0.1181  0.0481 -0.0208
 1148ERGO    R415947  15.271   6.911   9.656 -0.1782 -0.0914 -0.0018
 1148ERGO    R515948  15.373   7.102   9.672  0.0140 -0.1772 -0.1083
 1148ERGO    C115949  15.323   7.087   9.294 -0.1979 -0.2475 -0.0789
 1148ERGO    C215950  15.299   6.988   8.951  0.1497 -0.0780 -0.1555
 1149ERGO   ROH15951   7.864   9.298   9.576  0.0098  0.0019  0.0176
 1149ERGO    R115952   7.806   9.210   9.313  0.1206 -0.0368  0.0047
 1149ERGO    R215953   7.645   9.354   9.141 -0.0135 -0.1836  0.0018
 1149ERGO    R315954   7.859   9.334   8.975  0.0248  0.0484  0.0207
 1149ERGO    R415955   7.628   9.344   8.796  0.0203 -0.2887  0.0032
 1149ERGO    R515956   7.784   9.192   8.797  0.2146 -0.0916  0.0498
 1149ERGO    C115957   7.820   9.320   8.439  0.0760 -0.1321  0.0218
 1149ERGO    C215958   7.799   9.403   8.093  0.2899  0.0505 -0.0323
 1150ERGO   ROH15959   2.820   3.642   9.785 -0.0702  0.1843  0.0448
 1150ERGO    R115960   2.805   3.726   9.515 -0.0158  0.1843  0.0413
 1150ERGO    R215961   3.002   3.670   9.330  0.0648  0.2603  0.1007
 1150ERGO    R315962   2.795   3.566   9.189  0.1465  0.1863  0.0352
 1150ERGO    R415963   2.950   3.716   8.991  0.0702  0.3685  0.1147
 1150ERGO    R515964   2.738   3.737   9.032  0.0530  0.2149  0.1013
 1150ERGO    C115965   2.725   3.645   8.662  0.1501  0.3620  0.0612
 1150ERGO    C215966   2.597   3.635   8.347 -0.1001 -0.1170  0.1777
 1151ERGO   ROH15967   7.167   3.252   9.069  0.0280  0.0440  0.0225
 1151ERGO    R115968   6.937   3.247   8.903  0.1333  0.0162 -0.1249
 1151ERGO    R215969   6.718   3.411   8.948 -0.0234 -0.1987 -0.1041
 1151ERGO    R315970   6.761   3.483   8.690  0.0794  0.0793 -0.0129
 1151ERGO    R415971   6.484   3.562   8.744 -0.0127 -0.1686 -0.0943
 1151ERGO    R515972   6.553   3.437   8.580  0.1736  0.0348 -0.1777
 1151ERGO    C115973   6.388   3.719   8.383  0.0901  0.1099 -0.0030
 1151ERGO    C215974   6.145   3.936   8.330  0.0343 -0.0444  0.0447
 1152ERGO   ROH15975   9.085   9.477   6.140 -0.0161 -0.1745  0.0289
 1152ERGO    R115976   9.159   9.553   6.403  0.0953 -0.0640 -0.0328
 1152ERGO    R215977   9.020   9.471   6.627  0.0880  0.1657  0.0536
 1152ERGO    R315978   9.265   9.384   6.707  0.0486  0.0479  0.0449
 1152ERGO    R415979   9.083   9.307   6.925  0.0300  0.1719  0.0686
 1152ERGO    R515980   9.267   9.424   6.944  0.0907  0.0767  0.0376
 1152ERGO    C115981   9.350   9.131   7.174 -0.0407  0.0649  0.0691
 1152ERGO    C215982   9.202   9.011   7.419 -0.0810  0.1695 -0.0654
 1153ERGO   ROH15983   4.845   0.604   6.108 -0.3560  0.2513  0.0340
 1153ERGO    R115984   4.923   0.410   6.298 -0.3534  0.1680 -0.0511
 1153ERGO    R215985   5.048   0.476   6.537 -0.2458  0.0558 -0.0736
 1153ERGO    R315986   4.844   0.332   6.645 -0.2567  0.0929 -0.0458
 1153ERGO    R415987   5.019   0.396   6.871 -0.2844  0.1728 -0.0488
 1153ERGO    R515988   4.949   0.198   6.813 -0.2762  0.1527  0.0134
 1153ERGO    C115989   4.811   0.214   7.168 -0.3171  0.2758 -0.0082
 1153ERGO    C215990   4.658   0.159   7.500  0.1208  0.2210  0.0725
 1154ERGO   ROH15991  15.552   3.338   6.894 -0.0132  0.1550  0.0506
 1154ERGO    R115992  15.407   3.303   7.134  0.0842  0.1220  0.1059
 1154ERGO    R215993  15.463   3.444   7.364 -0.0439  0.3470  0.0057
 1154ERGO    R315994  15.199   3.509   7.351 -0.1336  0.0006  0.0150
 1154ERGO    R415995  15.266   3.526   7.636 -0.1252  0.1745 -0.0008
 1154ERGO    R515996  15.104   3.410   7.547  0.0145 -0.0637  0.0536
 1154ERGO    C115997  14.903   3.634   7.781 -0.2568 -0.2510  0.0044
 1154ERGO    C215998  14.798   3.679   8.129 -0.0038 -0.2258  0.1307
 1155ERGO   ROH15999  12.275  16.852   6.331  0.0281  0.3476 -0.0107
 1155ERGO    R116000  12.149  16.921   6.575 -0.0092  0.0800  0.0497
 1155ERGO    R216001  12.157  16.758   6.797  0.2265 -0.0245 -0.0292
 1155ERGO    R316002  12.253  16.982   6.918 -0.0122  0.0340  0.0582
 1155ERGO    R416003  12.219  16.788   7.136  0.2154 -0.0939 -0.0213
 1155ERGO    R516004  12.138  16.990   7.128 -0.0086 -0.1795  0.0690
 1155ERGO    C116005  12.346  17.015   7.447 -0.0150 -0.0792  0.0654
 1155ERGO    C216006  12.477  16.832   7.648  0.2741  0.0456  0.0670
 1156ERGO   ROH16007   0.063  13.174  10.031 -0.0501 -0.0820 -0.0078
 1156ERGO    R116008  -0.008  13.036   9.794  0.1094 -0.0306 -0.0858
 1156ERGO    R216009  -0.253  13.069   9.671  0.0775 -0.2341 -0.0699
 1156ERGO    R316010  -0.100  13.127   9.454  0.0186  0.0556 -0.0404
 1156ERGO    R416011  -0.329  12.979   9.346  0.3206 -0.4217 -0.0781
 1156ERGO    R516012  -0.119  12.933   9.315  0.4336 -0.0070 -0.0270
 1156ERGO    C116013  -0.229  12.980   8.953  0.4068 -0.2592 -0.0551
 1156ERGO    C216014  -0.235  12.836   8.657 -0.1252  0.2161 -0.0076
 1157ERGO   ROH16015   9.813  15.100   9.502 -0.0442  0.1485  0.0121
 1157ERGO    R116016   9.825  15.068   9.221  0.0388  0.0770  0.0230
 1157ERGO    R216017   9.606  14.993   9.070  0.0723  0.0751 -0.0281
 1157ERGO    R316018   9.665  15.219   8.931  0.1535  0.0321 -0.0636
 1157ERGO    R416019   9.566  15.030   8.729 -0.0222  0.0775 -0.0169
 1157ERGO    R516020   9.755  15.139   8.724  0.0371 -0.0313 -0.0889
 1157ERGO    C116021   9.599  15.264   8.399 -0.0008  0.0384 -0.0437
 1157ERGO    C216022   9.643  15.344   7.985 -0.2998 -0.3650 -0.2306
 1158ERGO   ROH16023  12.865   9.290   6.458  0.0480 -0.1999  0.0897
 1158ERGO    R116024  12.862   9.313   6.740 -0.0790  0.1204  0.0672
 1158ERGO    R216025  12.654   9.432   6.877 -0.2950  0.0030 -0.1415
 1158ERGO    R316026  12.650   9.196   7.013 -0.0194  0.1432  0.1217
 1158ERGO    R416027  12.527   9.390   7.196 -0.3518  0.1789 -0.1400
 1158ERGO    R516028  12.695   9.257   7.240 -0.1859  0.4565  0.0728
 1158ERGO    C116029  12.449   9.143   7.509 -0.1260  0.4129  0.1081
 1158ERGO    C216030  12.420   8.982   7.817 -0.0068  0.0058 -0.0037
 1159ERGO   ROH16031   6.590   3.192   6.449  0.0418  0.1983 -0.1377
 1159ERGO    R116032   6.690   3.342   6.667  0.1069  0.0044 -0.0336
 1159ERGO    R216033   6.535   3.520   6.810  0.2332  0.1085 -0.0319
 1159ERGO    R316034   6.618   3.373   7.023 -0.0114 -0.0638 -0.0500
 1159ERGO    R416035   6.444   3.579   7.138  0.0394 -0.0041 -0.0631
 1159ERGO    R516036   6.648   3.534   7.198 -0.0261 -0.1723  0.0581
 1159ERGO    C116037   6.469   3.475   7.529 -0.3030 -0.2314 -0.0983
 1159ERGO    C216038   6.432   3.308   7.761 -0.0816 -0.0819 -0.3613
 1160ERGO   ROH16039  14.082  16.416   9.644 -0.2493  0.0371 -0.0718
 1160ERGO    R116040  14.063  16.316   9.380 -0.0894  0.0447 -0.0876
 1160ERGO    R216041  14.044  16.482   9.159 -0.1426  0.0503 -0.0811
 1160ERGO    R316042  14.259  16.340   9.074 -0.0072  0.2187 -0.0226
 1160ERGO    R416043  14.136  16.442   8.829 -0.2933 -0.2514 -0.0889
 1160ERGO    R516044  14.185  16.234   8.873  0.0033 -0.1385  0.1527
 1160ERGO    C116045  14.392  16.285   8.556 -0.2540 -0.2688 -0.0385
 1160ERGO    C216046  14.445  16.227   8.162 -0.3276 -0.1613  0.0691
 1161ERGO   ROH16047   8.329  16.102   9.719 -0.0077  0.2415 -0.0591
 1161ERGO    R116048   8.338  15.899   9.521  0.2196  0.1968 -0.0042
 1161ERGO    R216049   8.120  15.835   9.364  0.2519 -0.1724  0.0978
 1161ERGO    R316050   8.295  15.879   9.160  0.1107  0.0315  0.0161
 1161ERGO    R416051   8.098  15.694   9.049  0.2153 -0.1192  0.0752
 1161ERGO    R516052   8.314  15.668   9.051  0.2429  0.0713 -0.0423
 1161ERGO    C116053   8.250  15.653   8.675  0.0614  0.1031 -0.0146
 1161ERGO    C216054   8.366  15.650   8.269  0.1970  0.2336  0.1882
 1162ERGO   ROH16055  18.241   1.142   6.907 -0.1146 -0.0880  0.1203
 1162ERGO    R116056  18.445   1.209   7.091 -0.0685  0.0505  0.0204
 1162ERGO    R216057  18.537   1.468   7.124 -0.2238  0.1138 -0.0281
 1162ERGO    R316058  18.477   1.421   7.385 -0.0673  0.0757  0.0018
 1162ERGO    R416059  18.617   1.678   7.387  0.0739 -0.0010 -0.0232
 1162ERGO    R516060  18.666   1.503   7.506  0.0622 -0.0608 -0.1065
 1162ERGO    C116061  18.607   1.757   7.784  0.3943 -0.1036  0.0077
 1162ERGO    C216062  18.582   1.954   8.004  0.1164 -0.0736  0.1400
 1163ERGO   ROH16063  16.982   2.330  10.241 -0.1059 -0.0202 -0.0426
 1163ERGO    R116064  16.933   2.412   9.975  0.0576 -0.0205 -0.0737
 1163ERGO    R216065  17.120   2.547   9.823  0.1639 -0.0566  0.0296
 1163ERGO    R316066  17.074   2.346   9.646  0.2318 -0.0525  0.0059
 1163ERGO    R416067  17.165   2.571   9.481 -0.0279  0.0638  0.0108
 1163ERGO    R516068  16.982   2.455   9.454  0.0459 -0.0759  0.0780
 1163ERGO    C116069  17.148   2.396   9.116 -0.0758  0.1376 -0.0222
 1163ERGO    C216070  17.146   2.426   8.749 -0.2104 -0.3761 -0.2973
 1164ERGO   ROH16071   4.941  15.635   6.006  0.1157 -0.0977  0.0444
 1164ERGO    R116072   4.981  15.635   6.287  0.2738 -0.1012  0.0237
 1164ERGO    R216073   4.832  15.477   6.457  0.0622  0.2172  0.1485
 1164ERGO    R316074   5.076  15.391   6.540 -0.0432 -0.2284  0.0238
 1164ERGO    R416075   4.900  15.348   6.771  0.0202  0.2053  0.1525
 1164ERGO    R516076   5.088  15.459   6.769  0.2391 -0.1595 -0.0109
 1164ERGO    C116077   5.169  15.193   7.031 -0.1033 -0.2199  0.0378
 1164ERGO    C216078   5.360  15.103   7.417  0.5488 -0.3928  0.1657
 1165ERGO   ROH16079  14.904  16.622  10.119 -0.0576 -0.0428  0.0507
 1165ERGO    R116080  15.057  16.628   9.882 -0.1401 -0.2675 -0.0120
 1165ERGO    R216081  14.996  16.473   9.661 -0.4199 -0.2302  0.0268
 1165ERGO    R316082  15.001  16.713   9.532 -0.1780 -0.2478  0.0015
 1165ERGO    R416083  15.037  16.514   9.320 -0.3220 -0.2852  0.0325
 1165ERGO    R516084  15.166  16.685   9.361 -0.1781 -0.4046  0.0353
 1165ERGO    C116085  15.066  16.762   9.001 -0.0379 -0.3337  0.0121
 1165ERGO    C216086  15.208  16.735   8.621  0.2979 -0.1463  0.1902
 1166ERGO   ROH16087   5.322   4.936   9.730 -0.0713  0.0425  0.0229
 1166ERGO    R116088   5.331   4.918   9.448  0.0108 -0.3425  0.0445
 1166ERGO    R216089   5.180   4.737   9.306 -0.4016 -0.1475  0.2165
 1166ERGO    R316090   5.097   4.959   9.172  0.2250 -0.0857 -0.1032
 1166ERGO    R416091   5.008   4.734   9.006 -0.3747 -0.0872  0.2007
 1166ERGO    R516092   5.129   4.904   8.941  0.1113 -0.4963 -0.0271
 1166ERGO    C116093   4.830   4.941   8.706  0.2292  0.0060 -0.1088
 1166ERGO    C216094   4.493   4.790   8.479  0.3129 -0.1126 -0.0864
 1167ERGO   ROH16095  16.023  17.954   6.663 -0.1864  0.1342  0.0706
 1167ERGO    R116096  16.050  17.861   6.929  0.0114 -0.0707 -0.0176
 1167ERGO    R216097  15.878  17.937   7.131  0.2876 -0.0513  0.2175
 1167ERGO    R316098  15.849  17.668   7.163  0.0834 -0.0504  0.0609
 1167ERGO    R416099  15.793  17.781   7.428  0.3670 -0.1765  0.1755
 1167ERGO    R516100  15.937  17.625   7.382  0.2022 -0.2698 -0.0294
 1167ERGO    C116101  15.717  17.439   7.631  0.2216 -0.2483  0.0040
 1167ERGO    C216102  15.547  17.330   7.882  0.1885  0.5334  0.1910
 1168ERGO   ROH16103   4.134   7.042   9.933  0.0433  0.3668 -0.0603
 1168ERGO    R116104   4.012   6.870   9.744  0.2036  0.1844 -0.0024
 1168ERGO    R216105   3.754   6.908   9.651  0.1497 -0.1036 -0.0029
 1168ERGO    R316106   3.875   6.901   9.408  0.1511 -0.0497 -0.0021
 1168ERGO    R416107   3.593   6.857   9.350  0.1775 -0.1133 -0.0149
 1168ERGO    R516108   3.759   6.731   9.288  0.2024 -0.0605 -0.0242
 1168ERGO    C116109   3.612   6.820   8.947  0.1948 -0.0683 -0.0210
 1168ERGO    C216110   3.682   6.894   8.642  0.0790  0.2775 -0.1634
 1169ERGO   ROH16111   8.010  13.314   6.291 -0.0166 -0.0654 -0.0232
 1169ERGO    R116112   8.065  13.566   6.408  0.1775 -0.0736 -0.0946
 1169ERGO    R216113   7.939  13.654   6.637  0.0500  0.1943 -0.2658
 1169ERGO    R316114   8.194  13.688   6.725  0.0079 -0.0771 -0.0219
 1169ERGO    R416115   8.032  13.869   6.891  0.0504  0.2345 -0.2997
 1169ERGO    R516116   8.209  13.923   6.774  0.2490 -0.0587 -0.1541
 1169ERGO    C116117   8.326  14.026   7.122  0.0111  0.0032 -0.0903
 1169ERGO    C216118   8.389  14.162   7.506  0.1094 -0.1332  0.0899
 1170ERGO   ROH16119  16.484  11.954  10.190  0.1775 -0.3331 -0.1577
 1170ERGO    R116120  16.504  12.120   9.961  0.0857 -0.2628 -0.1158
 1170ERGO    R216121  16.736  12.139   9.811  0.0557 -0.1427 -0.1470
 1170ERGO    R316122  16.570  12.073   9.606  0.0465 -0.1422 -0.1399
 1170ERGO    R416123  16.813  12.172   9.476  0.0259 -0.0965 -0.1494
 1170ERGO    R516124  16.610  12.241   9.440  0.0125 -0.1183 -0.1251
 1170ERGO    C116125  16.703  12.128   9.088  0.0000 -0.0693 -0.1440
 1170ERGO    C216126  16.719  12.050   8.703 -0.0947 -0.0412  0.0671
 1171ERGO   ROH16127   4.906   1.294   6.611 -0.0552 -0.1550 -0.1192
 1171ERGO    R116128   4.667   1.354   6.750 -0.0023 -0.0578 -0.0692
 1171ERGO    R216129   4.477   1.163   6.810 -0.0589  0.0158 -0.0136
 1171ERGO    R316130   4.511   1.255   7.064  0.0313  0.0210 -0.0271
 1171ERGO    R416131   4.221   1.224   7.033  0.0115  0.1195  0.0395
 1171ERGO    R516132   4.326   1.404   7.097  0.0895  0.0880  0.0041
 1171ERGO    C116133   4.103   1.347   7.401  0.1371  0.1847  0.0577
 1171ERGO    C216134   3.841   1.187   7.658  0.1592  0.0422  0.1495
 1172ERGO   ROH16135   9.670   8.579   6.367 -0.0983 -0.1164  0.0824
 1172ERGO    R116136   9.795   8.565   6.621 -0.0089 -0.0680  0.0414
 1172ERGO    R216137  10.069   8.572   6.653 -0.0046  0.2296 -0.0370
 1172ERGO    R316138  10.012   8.778   6.821 -0.1888  0.1078  0.0542
 1172ERGO    R416139  10.265   8.669   6.920 -0.1310  0.2355  0.0549
 1172ERGO    R516140  10.084   8.701   7.036 -0.1819  0.0494  0.0325
 1172ERGO    C116141  10.326   8.920   7.233 -0.3775  0.1246  0.1941
 1172ERGO    C216142  10.474   9.052   7.501 -0.2983  0.2355  0.2579
 1173ERGO   ROH16143   2.541  12.649   9.817 -0.0074 -0.2417 -0.0309
 1173ERGO    R116144   2.677  12.603   9.573 -0.0491 -0.1091 -0.0798
 1173ERGO    R216145   2.699  12.351   9.459  0.1206 -0.0833 -0.1076
 1173ERGO    R316146   2.591  12.476   9.243 -0.0544 -0.1518 -0.0618
 1173ERGO    R416147   2.755  12.263   9.130 -0.0491 -0.1066 -0.1315
 1173ERGO    R516148   2.765  12.474   9.079 -0.1542 -0.1119 -0.1677
 1173ERGO    C116149   2.687  12.329   8.735 -0.3123 -0.1845 -0.1024
 1173ERGO    C216150   2.600  12.295   8.424  0.1288  0.1219  0.1597
 1174ERGO   ROH16151  15.451   7.982  10.428  0.2146  0.0971 -0.1088
 1174ERGO    R116152  15.268   7.961  10.214  0.1726  0.0248 -0.0653
 1174ERGO    R216153  15.254   8.149  10.011  0.0465  0.0211 -0.0553
 1174ERGO    R316154  15.287   7.931   9.851  0.0967  0.0400 -0.0720
 1174ERGO    R416155  15.246   8.154   9.665  0.1625  0.0741 -0.0580
 1174ERGO    R516156  15.134   7.967   9.670  0.1546  0.0713 -0.1195
 1174ERGO    C116157  15.272   7.952   9.315  0.2772  0.1227 -0.0753
 1174ERGO    C216158  15.318   7.924   8.946 -0.2014  0.0093  0.0166
 1175ERGO   ROH16159  14.655  14.386   9.563 -0.3426 -0.0846 -0.2261
 1175ERGO    R116160  14.750  14.490   9.317 -0.2301 -0.1065 -0.1917
 1175ERGO    R216161  14.900  14.341   9.140 -0.2002 -0.1394 -0.1347
 1175ERGO    R316162  14.707  14.415   8.964 -0.1180 -0.0960 -0.2085
 1175ERGO    R416163  14.921  14.305   8.797 -0.0527 -0.0926 -0.1318
 1175ERGO    R516164  14.828  14.501   8.776 -0.0263 -0.0792 -0.1444
 1175ERGO    C116165  14.753  14.355   8.432  0.1104 -0.0246 -0.1994
 1175ERGO    C216166  14.768  14.221   8.094 -0.1754  0.2595 -0.2067
 1176ERGO   ROH16167  13.778  14.666   9.468  0.1087  0.0640 -0.0036
 1176ERGO    R116168  13.751  14.465   9.270 -0.0944  0.0135  0.0719
 1176ERGO    R216169  13.555  14.472   9.076 -0.0200  0.2024 -0.0025
 1176ERGO    R316170  13.766  14.448   8.906  0.0149 -0.1561  0.0839
 1176ERGO    R416171  13.529  14.415   8.736  0.0195  0.4114 -0.0418
 1176ERGO    R516172  13.699  14.278   8.751 -0.2662  0.0505 -0.0249
 1176ERGO    C116173  13.713  14.359   8.379  0.0752  0.1966  0.0163
 1176ERGO    C216174  13.803  14.356   7.927 -0.0078 -0.4484 -0.2515
 1177ERGO   ROH16175  12.620  13.098   6.107  0.0371  0.0932  0.1119
 1177ERGO    R116176  12.637  13.093   6.390  0.0835 -0.0258  0.1083
 1177ERGO    R216177  12.456  13.225   6.551  0.2827  0.1586  0.1871
 1177ERGO    R316178  12.427  12.979   6.665 -0.0186  0.1523  0.1059
 1177ERGO    R416179  12.381  13.170   6.884  0.1359  0.1431  0.1516
 1177ERGO    R516180  12.523  13.004   6.883 -0.0447 -0.0180  0.1391
 1177ERGO    C116181  12.310  12.908   7.185 -0.2323  0.1280  0.0547
 1177ERGO    C216182  12.333  13.008   7.476 -0.1876  0.0476  0.0733
 1178ERGO   ROH16183   6.021  13.601   9.585  0.1891 -0.1161 -0.0677
 1178ERGO    R116184   6.073  13.419   9.375 -0.1190 -0.2132 -0.0667
 1178ERGO    R216185   5.876  13.334   9.200 -0.2700  0.1346 -0.0899
 1178ERGO    R316186   6.052  13.421   9.011 -0.0897 -0.1643 -0.0654
 1178ERGO    R416187   5.833  13.300   8.859 -0.2368  0.1668 -0.0959
 1178ERGO    R516188   6.045  13.253   8.841 -0.3115 -0.1682 -0.0450
 1178ERGO    C116189   5.971  13.363   8.483 -0.0481 -0.0951 -0.0763
 1178ERGO    C216190   5.967  13.248   8.177 -0.0257  0.0582 -0.1277
 1179ERGO   ROH16191   0.813   4.589   6.305 -0.0262 -0.1072 -0.0771
 1179ERGO    R116192   0.981   4.460   6.493 -0.1417 -0.0724  0.0528
 1179ERGO    R216193   1.257   4.482   6.486 -0.1192 -0.3015  0.0472
 1179ERGO    R316194   1.225   4.562   6.743 -0.0752 -0.0352 -0.0273
 1179ERGO    R416195   1.487   4.430   6.738 -0.1594 -0.2041  0.1037
 1179ERGO    R516196   1.321   4.385   6.873 -0.1900  0.0278  0.1446
 1179ERGO    C116197   1.591   4.475   7.128 -0.1416  0.1027  0.0667
 1179ERGO    C216198   1.789   4.477   7.370 -0.2035  0.1373 -0.0593
 1180ERGO   ROH16199   0.747   0.608   9.969 -0.1138 -0.1976  0.0710
 1180ERGO    R116200   0.804   0.619   9.692 -0.1231  0.1749  0.0791
 1180ERGO    R216201   0.783   0.399   9.526  0.4644  0.2335 -0.1014
 1180ERGO    R316202   0.621   0.564   9.382  0.0288 -0.0615  0.0303
 1180ERGO    R416203   0.743   0.386   9.183  0.4176  0.3374 -0.0998
 1180ERGO    R516204   0.743   0.604   9.180 -0.1072  0.3503  0.0234
 1180ERGO    C116205   0.568   0.532   8.848 -0.0186  0.1210  0.0247
 1180ERGO    C216206   0.703   0.643   8.484  0.1648  0.2064 -0.0260
 1181ERGO   ROH16207  17.890  17.987   6.335 -0.2236  0.1369  0.1306
 1181ERGO    R116208  17.840  17.853   6.579 -0.2953  0.1718  0.1353
 1181ERGO    R216209  18.039  17.806   6.766 -0.2566 -0.1676  0.0184
 1181ERGO    R316210  17.866  17.933   6.934  0.0273  0.0795  0.1348
 1181ERGO    R416211  17.960  17.700   7.085 -0.3813 -0.1875 -0.0180
 1181ERGO    R516212  17.753  17.755   7.047 -0.2904  0.2354  0.0671
 1181ERGO    C116213  17.752  17.757   7.429 -0.1876  0.0329  0.0701
 1181ERGO    C216214  17.624  17.845   7.726  0.1239  0.0128  0.1843
 1182ERGO   ROH16215   8.850   8.285   9.288 -0.2680 -0.0883 -0.0781
 1182ERGO    R116216   8.855   8.338   9.009 -0.2458 -0.0835 -0.0760
 1182ERGO    R216217   8.903   8.141   8.821 -0.1124 -0.0553 -0.0663
 1182ERGO    R316218   8.668   8.229   8.716 -0.1384 -0.1749 -0.1126
 1182ERGO    R416219   8.839   8.176   8.484 -0.0928 -0.1853 -0.0848
 1182ERGO    R516220   8.734   8.362   8.528 -0.1679 -0.2069 -0.1496
 1182ERGO    C116221   8.581   8.280   8.189 -0.1057 -0.3731 -0.1393
 1182ERGO    C216222   8.318   8.072   7.973 -0.2362 -0.2117  0.0320
 1183ERGO   ROH16223  12.047   1.571   9.791 -0.2327  0.0656 -0.0897
 1183ERGO    R116224  12.222   1.542   9.570 -0.0879  0.2292  0.0016
 1183ERGO    R216225  12.162   1.383   9.352  0.2706 -0.0073  0.0687
 1183ERGO    R316226  12.210   1.611   9.213 -0.0579 -0.0015 -0.0464
 1183ERGO    R416227  12.212   1.400   9.010  0.1915 -0.1012  0.0515
 1183ERGO    R516228  12.369   1.547   9.045  0.0046  0.1297 -0.0406
 1183ERGO    C116229  12.287   1.625   8.681 -0.1628 -0.1505 -0.0665
 1183ERGO    C216230  12.412   1.785   8.412  0.0177 -0.3814  0.1218
 1184ERGO   ROH16231   2.360   6.113   6.870  0.0622 -0.1558 -0.1256
 1184ERGO    R116232   2.130   6.273   6.830  0.1048 -0.1389 -0.3072
 1184ERGO    R216233   1.913   6.188   6.681  0.0590 -0.2758 -0.1605
 1184ERGO    R316234   1.774   6.249   6.906  0.1081  0.0719 -0.2212
 1184ERGO    R416235   1.576   6.260   6.690  0.0083 -0.5007 -0.1739
 1184ERGO    R516236   1.618   6.417   6.835 -0.0425 -0.1750 -0.4979
 1184ERGO    C116237   1.248   6.360   6.906  0.0249 -0.3053 -0.2386
 1184ERGO    C216238   0.997   6.392   6.818  0.1671 -0.1329  0.0578
 1185ERGO   ROH16239   8.809  11.332   9.630  0.0887  0.1165 -0.0573
 1185ERGO    R116240   8.945  11.210   9.414  0.0108  0.0716 -0.0814
 1185ERGO    R216241   8.893  10.951   9.332 -0.0667  0.0775 -0.0526
 1185ERGO    R316242   8.855  11.068   9.091 -0.0968  0.0706 -0.0511
 1185ERGO    R416243   8.889  10.784   9.030 -0.1806  0.0590 -0.0412
 1185ERGO    R516244   9.000  10.950   8.942 -0.1617  0.0260 -0.0791
 1185ERGO    C116245   8.850  10.798   8.626 -0.2753  0.0419 -0.0335
 1185ERGO    C216246   8.963  10.748   8.286  0.0287  0.0237  0.2736
 1186ERGO   ROH16247   8.222  12.143   9.603 -0.0474  0.1076  0.0114
 1186ERGO    R116248   8.252  12.135   9.321 -0.0399  0.0967  0.0140
 1186ERGO    R216249   8.297  11.900   9.183  0.0131  0.1025  0.0337
 1186ERGO    R316250   8.079  11.979   9.041  0.0010  0.0437  0.0158
 1186ERGO    R416251   8.194  11.760   8.884 -0.0748 -0.1129  0.1603
 1186ERGO    R516252   8.148  11.961   8.812 -0.0437 -0.1510  0.0122
 1186ERGO    C116253   7.931  11.754   8.576 -0.1374 -0.2934  0.2171
 1186ERGO    C216254   7.814  11.723   8.256  0.0325  0.1224 -0.1031
 1187ERGO   ROH16255   0.588  12.258   6.389 -0.1872  0.1547 -0.0884
 1187ERGO    R116256   0.445  12.354   6.614 -0.1803  0.2820 -0.1364
 1187ERGO    R216257   0.529  12.311   6.874 -0.3866  0.0653 -0.0976
 1187ERGO    R316258   0.508  12.581   6.891 -0.0047  0.0944 -0.0218
 1187ERGO    R416259   0.468  12.486   7.165 -0.3957  0.0569 -0.0949
 1187ERGO    R516260   0.336  12.617   7.053 -0.1004  0.2932 -0.1693
 1187ERGO    C116261   0.413  12.842   7.351 -0.0425  0.0792 -0.0221
 1187ERGO    C216262   0.408  13.037   7.533 -0.2293 -0.1157  0.0849
 1188ERGO   ROH16263   3.071   4.905   6.327  0.1847 -0.0561  0.0253
 1188ERGO    R116264   3.254   4.875   6.541  0.1353  0.0246  0.0799
 1188ERGO    R216265   3.209   4.981   6.792  0.0127  0.0034  0.0686
 1188ERGO    R316266   3.252   4.725   6.872  0.1029  0.0211  0.0776
 1188ERGO    R416267   3.343   4.889   7.097  0.0685  0.0590  0.0613
 1188ERGO    R516268   3.457   4.734   6.996  0.1096  0.0921  0.0599
 1188ERGO    C116269   3.460   4.595   7.350  0.1857  0.1079  0.0655
 1188ERGO    C216270   3.291   4.630   7.644  0.1560 -0.0808  0.2240
 1189ERGO   ROH16271   5.878   2.032   9.639  0.2355 -0.0088  0.1315
 1189ERGO    R116272   5.736   2.129   9.414  0.1296  0.0065  0.2041
 1189ERGO    R216273   5.856   2.174   9.169  0.0134  0.0104  0.1439
 1189ERGO    R316274   5.659   2.010   9.079 -0.0386  0.0212  0.2375
 1189ERGO    R416275   5.783   2.117   8.836 -0.0513 -0.1131  0.1785
 1189ERGO    R516276   5.572   2.122   8.887 -0.0394 -0.0411  0.2047
 1189ERGO    C116277   5.556   1.930   8.557 -0.1377 -0.1748  0.2867
 1189ERGO    C216278   5.698   1.867   8.291 -0.3905 -0.0575  0.0069
 1190ERGO   ROH16279  11.444  15.793   5.925 -0.0505  0.1379  0.1084
 1190ERGO    R116280  11.514  15.648   6.159  0.0165  0.0408  0.0288
 1190ERGO    R216281  11.748  15.695   6.298  0.0229  0.0323  0.0200
 1190ERGO    R316282  11.578  15.726   6.508  0.0419 -0.1139  0.0594
 1190ERGO    R416283  11.847  15.724   6.628  0.0569 -0.1504  0.0267
 1190ERGO    R516284  11.678  15.597   6.684  0.0790 -0.2064 -0.0281
 1190ERGO    C116285  11.745  15.770   7.017  0.0945 -0.3940  0.0676
 1190ERGO    C216286  11.774  15.715   7.348  0.0060  0.0310 -0.3072
 1191ERGO   ROH16287  13.686  14.471   6.252  0.2404  0.0617  0.0925
 1191ERGO    R116288  13.567  14.264   6.404  0.3071 -0.0281  0.0274
 1191ERGO    R216289  13.677  14.171   6.640  0.2402  0.0605  0.1066
 1191ERGO    R316290  13.430  14.227   6.739  0.1349 -0.1158 -0.0546
 1191ERGO    R416291  13.576  14.112   6.965  0.0479 -0.0092  0.0338
 1191ERGO    R516292  13.383  14.046   6.888  0.1535 -0.1401 -0.0921
 1191ERGO    C116293  13.286  14.130   7.247 -0.1630 -0.2153 -0.1600
 1191ERGO    C216294  13.156  14.045   7.441 -0.2124 -0.1665  0.0236
 1192ERGO   ROH16295  14.334   9.602  10.195 -0.0023 -0.0756  0.1639
 1192ERGO    R116296  14.510   9.530   9.985  0.0565  0.3273  0.0685
 1192ERGO    R216297  14.463   9.314   9.819  0.4920  0.1681  0.1445
 1192ERGO    R316298  14.490   9.500   9.623 -0.0985  0.2144  0.0848
 1192ERGO    R416299  14.531   9.242   9.488  0.4775  0.2782  0.1157
 1192ERGO    R516300  14.666   9.414   9.484  0.0483  0.6312 -0.0038
 1192ERGO    C116301  14.597   9.375   9.111 -0.0855  0.3857  0.0426
 1192ERGO    C216302  14.618   9.328   8.741 -0.0250  0.1207  0.2218
 1193ERGO   ROH16303  10.235   0.327   9.674 -0.0484 -0.1948  0.0922
 1193ERGO    R116304  10.127   0.279   9.416 -0.1133  0.0392  0.0749
 1193ERGO    R216305  10.076   0.483   9.237  0.2735  0.1654  0.0997
 1193ERGO    R316306  10.231   0.333   9.072  0.0204 -0.0981  0.0934
 1193ERGO    R416307  10.121   0.543   8.899  0.4961  0.1902  0.1319
 1193ERGO    R516308  10.110   0.328   8.865  0.0677  0.2175  0.0558
 1193ERGO    C116309  10.293   0.437   8.548  0.3881 -0.0428  0.1448
 1193ERGO    C216310  10.417   0.632   8.233  0.0299 -0.0962 -0.0943
 1194ERGO   ROH16311   1.266  14.052   9.931 -0.4047 -0.2921  0.0344
 1194ERGO    R116312   1.398  13.917   9.720 -0.1446 -0.1256  0.0858
 1194ERGO    R216313   1.263  13.760   9.537  0.1142 -0.2012 -0.0431
 1194ERGO    R316314   1.385  13.921   9.356  0.0934 -0.0488  0.0765
 1194ERGO    R416315   1.245  13.721   9.194  0.1755  0.0080 -0.0713
 1194ERGO    R516316   1.456  13.773   9.182  0.1636  0.0797 -0.0080
 1194ERGO    C116317   1.349  13.850   8.824  0.1916  0.2727  0.0245
 1194ERGO    C216318   1.374  13.885   8.532 -0.1931 -0.0684 -0.0184
 1195ERGO   ROH16319  10.536  10.258   9.814  0.1265 -0.0096 -0.0114
 1195ERGO    R116320  10.608  10.225   9.543  0.0890  0.0104 -0.0247
 1195ERGO    R216321  10.721   9.992   9.446  0.1385  0.0391 -0.0457
 1195ERGO    R316322  10.514  10.002   9.270  0.1024 -0.0164 -0.0060
 1195ERGO    R416323  10.748   9.936   9.106  0.0794  0.0323 -0.0490
 1195ERGO    R516324  10.609  10.101   9.073  0.0370 -0.0041 -0.0285
 1195ERGO    C116325  10.570   9.914   8.743  0.0110 -0.0237 -0.0136
 1195ERGO    C216326  10.597   9.802   8.425 -0.2722 -0.1680 -0.0398
 1196ERGO   ROH16327  13.785  18.089   9.800  0.0066 -0.0968 -0.0345
 1196ERGO    R116328  13.766  18.228   9.555 -0.2035 -0.1887 -0.0722
 1196ERGO    R216329  13.985  18.272   9.391 -0.2758  0.0561 -0.1033
 1196ERGO    R316330  13.827  18.155   9.203 -0.1399 -0.2066 -0.0583
 1196ERGO    R416331  14.015  18.319   9.050 -0.3651  0.0089 -0.1185
 1196ERGO    R516332  13.798  18.324   9.036 -0.3790 -0.2840 -0.1016
 1196ERGO    C116333  13.885  18.236   8.675 -0.2896 -0.2656 -0.0851
 1196ERGO    C216334  13.930  18.208   8.376  0.0106 -0.0239 -0.1790
 1197ERGO   ROH16335   8.945   4.794   6.079 -0.0384 -0.0374  0.0680
 1197ERGO    R116336   8.851   4.708   6.332  0.1074 -0.0466  0.1203
 1197ERGO    R216337   8.967   4.790   6.569  0.0255  0.2279  0.0723
 1197ERGO    R316338   8.713   4.865   6.629 -0.0741 -0.0897  0.0588
 1197ERGO    R416339   8.852   4.862   6.887 -0.0070  0.3628  0.0301
 1197ERGO    R516340   8.667   4.758   6.839  0.1337  0.0412  0.1716
 1197ERGO    C116341   8.546   4.974   7.129 -0.1193  0.1433 -0.0072
 1197ERGO    C216342   8.395   5.008   7.425 -0.1353  0.1680  0.0510
 1198ERGO   ROH16343  10.619   8.235  10.280  0.1139  0.2737 -0.1723
 1198ERGO    R116344  10.576   8.097  10.036  0.0334  0.1389 -0.0828
 1198ERGO    R216345  10.367   8.157   9.867  0.0850  0.1690 -0.1326
 1198ERGO    R316346  10.565   8.182   9.683  0.1120 -0.0917 -0.1435
 1198ERGO    R416347  10.328   8.107   9.527  0.0228  0.1066 -0.1166
 1198ERGO    R516348  10.522   8.007   9.525 -0.0760 -0.0987 -0.0904
 1198ERGO    C116349  10.491   8.102   9.156  0.0119 -0.1743 -0.1176
 1198ERGO    C216350  10.496   8.017   8.824  0.2355  0.3205  0.1418
 1199ERGO   ROH16351   7.551  11.392   9.514  0.1571 -0.0383  0.0229
 1199ERGO    R116352   7.560  11.242   9.274  0.0746  0.1120 -0.0751
 1199ERGO    R216353   7.422  11.006   9.240  0.2642  0.0011 -0.0816
 1199ERGO    R316354   7.322  11.132   9.021 -0.0606  0.0398  0.0816
 1199ERGO    R416355   7.325  10.848   8.949  0.1937  0.0862 -0.1053
 1199ERGO    R516356   7.415  11.012   8.836 -0.0795  0.2624 -0.0775
 1199ERGO    C116357   7.176  10.874   8.573 -0.1522  0.1722  0.0340
 1199ERGO    C216358   7.063  10.646   8.365  0.1285  0.4810 -0.0235
 1200ERGO   ROH16359  12.440   6.488   6.487 -0.1374 -0.3403  0.3328
 1200ERGO    R116360  12.350   6.688   6.667 -0.1482 -0.2483  0.2262
 1200ERGO    R216361  12.351   6.653   6.941  0.0520 -0.0234  0.2597
 1200ERGO    R316362  12.494   6.884   6.937 -0.0939  0.0680 -0.0259
 1200ERGO    R416363  12.368   6.879   7.202 -0.0094  0.2696  0.0161
 1200ERGO    R516364  12.358   7.041   7.056 -0.1550  0.1101 -0.1528
 1200ERGO    C116365  12.514   7.227   7.351 -0.1823  0.5260 -0.3938
 1200ERGO    C216366  12.748   7.272   7.640  0.0187 -0.3657  0.0077
 1201ERGO   ROH16367  11.512   9.736  10.081  0.0476  0.1056 -0.1106
 1201ERGO    R116368  11.642   9.578   9.886  0.0595  0.0345 -0.0456
 1201ERGO    R216369  11.524   9.511   9.645  0.0855 -0.0259 -0.0428
 1201ERGO    R316370  11.749   9.620   9.540  0.1108 -0.0779 -0.0434
 1201ERGO    R416371  11.657   9.429   9.337 -0.0375  0.0857 -0.1268
 1201ERGO    R516372  11.856   9.438   9.427 -0.0092 -0.0643 -0.1775
 1201ERGO    C116373  11.947   9.485   9.059 -0.0854  0.1019 -0.1765
 1201ERGO    C216374  11.876   9.400   8.793 -0.1940  0.1612 -0.2147
 1202ERGO   ROH16375   9.815  10.922   9.697  0.0475  0.1022  0.0024
 1202ERGO    R116376   9.885  11.054   9.456  0.1235 -0.0762 -0.0746
 1202ERGO    R216377  10.055  10.942   9.269 -0.1147 -0.3818 -0.1159
 1202ERGO    R316378   9.848  10.989   9.100 -0.1295 -0.1500 -0.0376
 1202ERGO    R416379  10.069  10.908   8.926 -0.1935 -0.0893 -0.1516
 1202ERGO    R516380   9.950  11.089   8.908 -0.1253 -0.0223  0.0285
 1202ERGO    C116381   9.883  10.931   8.567 -0.2533  0.2988 -0.0989
 1202ERGO    C216382  10.013  10.727   8.287  0.1125  0.1310 -0.0598
 1203ERGO   ROH16383  17.958   3.658   6.345  0.0306  0.1216  0.0086
 1203ERGO    R116384  17.973   3.821   6.576  0.1472  0.1414 -0.0134
 1203ERGO    R216385  17.923   3.726   6.830 -0.0575  0.2412 -0.0177
 1203ERGO    R316386  18.169   3.829   6.882  0.0510 -0.0440  0.0549
 1203ERGO    R416387  18.051   3.780   7.146 -0.0806  0.0662  0.0233
 1203ERGO    R516388  18.136   3.968   7.074  0.1558 -0.0194  0.0589
 1203ERGO    C116389  18.357   3.908   7.379  0.0081 -0.3034  0.1153
 1203ERGO    C216390  18.282   3.807   7.793 -0.2240 -0.1208 -0.1352
 1204ERGO   ROH16391   1.080  16.201   9.985 -0.2297 -0.0424  0.0041
 1204ERGO    R116392   1.007  16.236   9.713 -0.0479  0.1370 -0.0244
 1204ERGO    R216393   1.139  16.410   9.544  0.3640 -0.0876  0.0563
 1204ERGO    R316394   1.165  16.189   9.389  0.0080 -0.1210  0.0371
 1204ERGO    R416395   1.166  16.412   9.200  0.2552 -0.1023  0.0477
 1204ERGO    R516396   1.036  16.237   9.193  0.0072  0.0712  0.0804
 1204ERGO    C116397   1.205  16.205   8.853 -0.1423 -0.1423  0.0247
 1204ERGO    C216398   1.161  16.094   8.538  0.0297  0.0540 -0.0804
 1205ERGO   ROH16399   8.443  14.422   9.458 -0.0433 -0.1533 -0.0205
 1205ERGO    R116400   8.371  14.343   9.196 -0.0648 -0.0836 -0.0362
 1205ERGO    R216401   8.341  14.523   8.989 -0.0668 -0.0287  0.0102
 1205ERGO    R316402   8.520  14.361   8.864 -0.0834 -0.0093 -0.0405
 1205ERGO    R416403   8.341  14.453   8.651  0.0634  0.2571 -0.0517
 1205ERGO    R516404   8.391  14.246   8.699 -0.0589  0.1910 -0.2022
 1205ERGO    C116405   8.510  14.260   8.336  0.1235  0.4416 -0.1354
 1205ERGO    C216406   8.652  14.117   7.948 -0.2158 -0.0661 -0.1575
 1206ERGO   ROH16407  10.103   4.503   9.667  0.0740 -0.1545 -0.0337
 1206ERGO    R116408  10.169   4.385   9.418 -0.2921  0.1227 -0.2721
 1206ERGO    R216409  10.169   4.527   9.180  0.1994  0.6323  0.0164
 1206ERGO    R316410  10.423   4.433   9.162 -0.0849 -0.1883 -0.1330
 1206ERGO    R416411  10.364   4.537   8.895  0.3520  0.8752  0.1247
 1206ERGO    R516412  10.436   4.338   8.943 -0.3343  0.4346 -0.4483
 1206ERGO    C116413  10.716   4.454   8.712  0.1741  0.2463  0.0475
 1206ERGO    C216414  10.913   4.548   8.489 -0.0585 -0.2098 -0.0985
 1207ERGO   ROH16415  13.694   5.630   6.582 -0.2382 -0.1969 -0.0199
 1207ERGO    R116416  13.646   5.516   6.837 -0.0339 -0.2467 -0.0018
 1207ERGO    R216417  13.835   5.365   6.970  0.2224  0.0603 -0.0034
 1207ERGO    R316418  13.790   5.544   7.170 -0.0378  0.0165 -0.0202
 1207ERGO    R416419  13.908   5.311   7.304  0.3758  0.2275 -0.0086
 1207ERGO    R516420  13.721   5.409   7.356  0.2191 -0.0753  0.0119
 1207ERGO    C116421  13.908   5.448   7.685  0.2210  0.2839 -0.0274
 1207ERGO    C216422  13.857   5.315   7.954 -0.2942 -0.1983 -0.1908
 1208ERGO   ROH16423  10.485   2.789   6.282 -0.0485  0.2120  0.1716
 1208ERGO    R116424  10.418   2.633   6.509 -0.0153  0.1378  0.1323
 1208ERGO    R216425  10.608   2.547   6.691  0.0174  0.0610  0.0713
 1208ERGO    R316426  10.443   2.668   6.870  0.0587  0.0153  0.1384
 1208ERGO    R416427  10.640   2.527   7.035 -0.0278 -0.1852  0.0621
 1208ERGO    R516428  10.424   2.510   7.050 -0.0329 -0.0940  0.0296
 1208ERGO    C116429  10.505   2.629   7.403 -0.0154 -0.3715  0.1197
 1208ERGO    C216430  10.465   2.581   7.815  0.0544  0.2714  0.0596
 1209ERGO   ROH16431   3.671   1.694   9.678 -0.2337  0.1543 -0.0889
 1209ERGO    R116432   3.774   1.696   9.414 -0.0607  0.3119 -0.0221
 1209ERGO    R216433   3.654   1.556   9.207  0.1679  0.3050 -0.1458
 1209ERGO    R316434   3.656   1.799   9.086  0.0888  0.3463 -0.0673
 1209ERGO    R416435   3.657   1.608   8.866 -0.0851  0.4073 -0.1356
 1209ERGO    R516436   3.798   1.770   8.896 -0.0500  0.3947 -0.1854
 1209ERGO    C116437   3.661   1.866   8.553 -0.3068  0.5056 -0.0558
 1209ERGO    C216438   3.700   1.824   8.229  0.0930 -0.0259  0.0078
 1210ERGO   ROH16439  11.048   8.229   6.519 -0.0763 -0.0072 -0.0747
 1210ERGO    R116440  11.175   8.150   6.759 -0.0747 -0.0319 -0.0857
 1210ERGO    R216441  11.377   8.297   6.876 -0.0635 -0.0605 -0.0899
 1210ERGO    R316442  11.216   8.286   7.094 -0.0467 -0.0595 -0.0751
 1210ERGO    R416443  11.468   8.401   7.193 -0.0696  0.0790 -0.1314
 1210ERGO    R516444  11.364   8.226   7.273  0.0020  0.0528 -0.0675
 1210ERGO    C116445  11.369   8.450   7.583 -0.0575  0.1612 -0.1416
 1210ERGO    C216446  11.412   8.525   7.872 -0.2715  0.0904  0.4603
 1211ERGO   ROH16447   7.044   1.328   9.316 -0.3300 -0.2349  0.1164
 1211ERGO    R116448   7.072   1.319   9.034 -0.2012 -0.1037  0.1245
 1211ERGO    R216449   6.863   1.372   8.861 -0.1366 -0.0908  0.0573
 1211ERGO    R316450   7.038   1.552   8.757 -0.1439  0.0060  0.2069
 1211ERGO    R416451   6.940   1.402   8.526 -0.0010  0.0575  0.0998
 1211ERGO    R516452   7.148   1.433   8.581 -0.0293  0.1014  0.2073
 1211ERGO    C116453   7.149   1.588   8.233  0.0712  0.2348  0.2648
 1211ERGO    C216454   7.093   1.819   8.052 -0.0495  0.2854 -0.1071
 1212ERGO   ROH16455  10.002   5.006   9.664  0.2412  0.2020 -0.0361
 1212ERGO    R116456   9.992   4.912   9.397  0.4341  0.0005  0.0236
 1212ERGO    R216457   9.844   5.038   9.200  0.1773 -0.4209 -0.0712
 1212ERGO    R316458  10.081   5.041   9.068  0.1858 -0.0306 -0.0561
 1212ERGO    R416459   9.879   5.049   8.857  0.1976 -0.2310 -0.0634
 1212ERGO    R516460  10.043   4.907   8.874  0.3960 -0.0042 -0.1125
 1212ERGO    C116461  10.122   5.059   8.533  0.2174  0.2461 -0.0446
 1212ERGO    C216462  10.253   5.115   8.305  0.5575  0.1810  0.1707
 1213ERGO   ROH16463  11.605  12.995   6.058  0.0896  0.0325 -0.0469
 1213ERGO    R116464  11.487  12.891   6.294  0.0539  0.0476 -0.0577
 1213ERGO    R216465  11.616  12.712   6.460  0.0385  0.0763 -0.0124
 1213ERGO    R316466  11.559  12.897   6.650 -0.0134  0.0929 -0.0451
 1213ERGO    R416467  11.550  12.640   6.791  0.0506  0.1147 -0.0019
 1213ERGO    R516468  11.393  12.791   6.787  0.0118  0.0730 -0.0307
 1213ERGO    C116469  11.457  12.771   7.163  0.0088  0.1526 -0.0264
 1213ERGO    C216470  11.387  12.790   7.440  0.1719 -0.0092 -0.1214
 1214ERGO   ROH16471   4.260  14.322   9.989  0.0074 -0.0284 -0.2113
 1214ERGO    R116472   4.290  14.372   9.712  0.0147 -0.0168 -0.2092
 1214ERGO    R216473   4.452  14.218   9.550  0.0853  0.0382 -0.1981
 1214ERGO    R316474   4.225  14.192   9.402  0.1047 -0.0404 -0.2131
 1214ERGO    R416475   4.442  14.196   9.205  0.1047  0.0703 -0.2004
 1214ERGO    R516476   4.265  14.324   9.207  0.0549 -0.0060 -0.1961
 1214ERGO    C116477   4.223  14.158   8.866  0.1343  0.0152 -0.2156
 1214ERGO    C216478   4.259  14.090   8.526  0.0963 -0.2316 -0.0015
 1215ERGO   ROH16479   4.347  17.491  10.050  0.0777 -0.0000 -0.0244
 1215ERGO    R116480   4.371  17.364   9.798 -0.1631 -0.0519 -0.0235
 1215ERGO    R216481   4.157  17.333   9.626 -0.2562  0.2246  0.0370
 1215ERGO    R316482   4.322  17.456   9.449 -0.1349 -0.0089 -0.0157
 1215ERGO    R416483   4.069  17.424   9.304 -0.2002  0.2683  0.0341
 1215ERGO    R516484   4.266  17.359   9.237 -0.2885  0.0163  0.0131
 1215ERGO    C116485   4.174  17.593   8.951 -0.0538  0.0741 -0.0169
 1215ERGO    C216486   4.263  17.720   8.638 -0.0196 -0.2623  0.2583
 1216ERGO   ROH16487   2.098  14.730   9.837  0.1413  0.0303 -0.0342
 1216ERGO    R116488   1.960  14.686   9.594 -0.0016  0.0831  0.0352
 1216ERGO    R216489   1.906  14.889   9.414 -0.0191  0.1099  0.0589
 1216ERGO    R316490   2.031  14.722   9.239 -0.1646  0.0596  0.0023
 1216ERGO    R416491   1.907  14.928   9.071  0.0072  0.1906  0.0680
 1216ERGO    R516492   1.883  14.712   9.051 -0.1690  0.2266  0.0063
 1216ERGO    C116493   2.024  14.795   8.707 -0.1141  0.1906  0.0202
 1216ERGO    C216494   1.944  14.734   8.377 -0.0493 -0.1522  0.0375
 1217ERGO   ROH16495  13.401   4.383   7.114 -0.0515 -0.2961 -0.1628
 1217ERGO    R116496  13.162   4.497   7.214  0.0148 -0.0512 -0.2759
 1217ERGO    R216497  12.927   4.500   7.070 -0.0095 -0.1617 -0.2360
 1217ERGO    R316498  12.826   4.381   7.292 -0.0209  0.1973 -0.0395
 1217ERGO    R416499  12.633   4.592   7.225 -0.2579 -0.1881 -0.6737
 1217ERGO    R516500  12.731   4.562   7.418 -0.3599  0.3710 -0.5127
 1217ERGO    C116501  12.366   4.533   7.525 -0.4131  0.1335 -0.7439
 1217ERGO    C216502  12.053   4.616   7.623 -0.1968 -0.1230 -0.1941
 1218ERGO   ROH16503  17.415   3.407   7.483  0.2786 -0.4420 -0.1107
 1218ERGO    R116504  17.246   3.315   7.692  0.2059 -0.2539 -0.0850
 1218ERGO    R216505  16.989   3.223   7.646  0.1197 -0.0296 -0.0543
 1218ERGO    R316506  17.079   3.003   7.778 -0.0727 -0.0902 -0.0202
 1218ERGO    R416507  16.789   2.997   7.813 -0.0974  0.0682 -0.1778
 1218ERGO    R516508  16.938   2.988   7.971 -0.1865 -0.0262 -0.0966
 1218ERGO    C116509  16.756   2.658   8.034 -0.4042  0.0682 -0.2177
 1218ERGO    C216510  16.539   2.531   8.156  0.4663  0.0808 -0.0273
 1219ERGO   ROH16511  11.063  15.786   9.572  0.0448  0.2539 -0.0192
 1219ERGO    R116512  11.134  15.699   9.312  0.0556  0.0544  0.0490
 1219ERGO    R216513  10.978  15.525   9.166 -0.0263  0.0771  0.1077
 1219ERGO    R316514  10.992  15.721   8.978  0.1606 -0.0387 -0.0020
 1219ERGO    R416515  10.944  15.475   8.825 -0.2139 -0.0587  0.1444
 1219ERGO    R516516  11.106  15.618   8.794 -0.0381 -0.2833  0.0086
 1219ERGO    C116517  10.938  15.630   8.451 -0.1478 -0.2465  0.0627
 1219ERGO    C216518  11.002  15.801   8.231 -0.1108  0.0018 -0.0977
 1220ERGO   ROH16519   7.068  11.959   9.388  0.0262  0.1322  0.0687
 1220ERGO    R116520   7.159  12.085   9.151 -0.0732  0.1960  0.0631
 1220ERGO    R216521   7.301  11.950   8.957  0.1161  0.3194  0.1088
 1220ERGO    R316522   7.105  12.046   8.793  0.0317  0.0713  0.0611
 1220ERGO    R416523   7.338  12.007   8.618  0.1281  0.3819  0.1209
 1220ERGO    R516524   7.222  12.190   8.641 -0.1181  0.2297  0.0972
 1220ERGO    C116525   7.176  12.130   8.267  0.0558  0.1855  0.0831
 1220ERGO    C216526   7.182  12.301   7.984  0.1256  0.2328  0.1401
 1221ERGO   ROH16527   0.070  12.726  10.239 -0.0320 -0.0918 -0.0384
 1221ERGO    R116528   0.196  12.673   9.992  0.0238 -0.3224  0.0379
 1221ERGO    R216529   0.119  12.465   9.827 -0.2051 -0.2337  0.0317
 1221ERGO    R316530   0.098  12.662   9.641  0.1953 -0.2258 -0.0147
 1221ERGO    R416531   0.057  12.413   9.491 -0.4093 -0.1886  0.0612
 1221ERGO    R516532   0.201  12.570   9.446 -0.0557 -0.5197 -0.0179
 1221ERGO    C116533   0.000  12.568   9.121 -0.1523 -0.1548  0.0349
 1221ERGO    C216534   0.064  12.426   8.752 -0.0252  0.2940  0.0788
 1222ERGO   ROH16535   3.410  11.929   9.659  0.2250 -0.1164 -0.1142
 1222ERGO    R116536   3.537  11.940   9.407  0.2715 -0.0440 -0.0861
 1222ERGO    R216537   3.501  11.746   9.213  0.3477 -0.0074 -0.1229
 1222ERGO    R316538   3.433  11.959   9.059  0.3430  0.0029 -0.1088
 1222ERGO    R416539   3.479  11.739   8.869  0.3180 -0.0202 -0.1215
 1222ERGO    R516540   3.571  11.937   8.864  0.3344 -0.0131 -0.1251
 1222ERGO    C116541   3.402  11.935   8.523  0.2963 -0.0180 -0.1077
 1222ERGO    C216542   3.315  11.847   8.305 -0.0602 -0.0711  0.0659
 1223ERGO   ROH16543   1.461   0.146   9.215 -0.0905 -0.1290  0.0602
 1223ERGO    R116544   1.532   0.117   8.943 -0.1498  0.1172  0.0176
 1223ERGO    R216545   1.426  -0.081   8.781 -0.0913  0.1937 -0.0980
 1223ERGO    R316546   1.362   0.130   8.622 -0.2393  0.2799  0.0674
 1223ERGO    R416547   1.307  -0.106   8.458  0.3027  0.3421 -0.2625
 1223ERGO    R516548   1.433   0.063   8.403  0.1163  0.6130  0.0592
 1223ERGO    C116549   1.178   0.076   8.119  0.3932  0.5095 -0.2031
 1223ERGO    C216550   1.113   0.004   7.756  0.2200  0.3676 -0.0314
 1224ERGO   ROH16551  13.681   6.560   6.560  0.1089 -0.0902  0.0154
 1224ERGO    R116552  13.793   6.567   6.820  0.1334 -0.0461  0.0039
 1224ERGO    R216553  13.669   6.693   7.033  0.1165 -0.0756  0.0114
 1224ERGO    R316554  13.698   6.450   7.151  0.2024 -0.0622  0.0184
 1224ERGO    R416555  13.608   6.627   7.366 -0.0398 -0.1260 -0.0266
 1224ERGO    R516556  13.784   6.500   7.369  0.0423 -0.0135  0.0726
 1224ERGO    C116557  13.599   6.360   7.672 -0.0501 -0.1429 -0.0421
 1224ERGO    C216558  13.518   6.178   7.984  0.0636  0.1049 -0.1126
 1225ERGO   ROH16559   5.271   5.994   9.925 -0.0047  0.1915 -0.0594
 1225ERGO    R116560   5.346   5.923   9.661 -0.1498  0.0847 -0.0745
 1225ERGO    R216561   5.176   5.955   9.445 -0.1795  0.2454 -0.0399
 1225ERGO    R316562   5.386   6.094   9.343 -0.0540  0.0157 -0.0968
 1225ERGO    R416563   5.225   6.019   9.109 -0.0523 -0.0090 -0.0715
 1225ERGO    R516564   5.438   5.981   9.138 -0.0953 -0.1518 -0.0084
 1225ERGO    C116565   5.450   6.187   8.817  0.1395 -0.3727 -0.1434
 1225ERGO    C216566   5.599   6.229   8.598 -0.1605 -0.2524  0.0086
 1226ERGO   ROH16567   0.673  15.745   6.484 -0.2959  0.0653  0.0636
 1226ERGO    R116568   0.780  15.808   6.738 -0.1960 -0.0603  0.0539
 1226ERGO    R216569   0.788  16.067   6.835  0.0006 -0.0872  0.1069
 1226ERGO    R316570   0.657  15.957   7.047 -0.0261 -0.0412  0.1142
 1226ERGO    R416571   0.792  16.193   7.157 -0.0188 -0.0242  0.0824
 1226ERGO    R516572   0.805  15.988   7.232 -0.0378 -0.0143  0.1219
 1226ERGO    C116573   0.670  16.164   7.543 -0.0550  0.0556  0.0750
 1226ERGO    C216574   0.550  16.270   7.816  0.0458  0.0533 -0.0664
 1227ERGO   ROH16575  15.644   9.702   6.222  0.0729 -0.0092  0.1045
 1227ERGO    R116576  15.412   9.792   6.357  0.1824  0.2853  0.1025
 1227ERGO    R216577  15.282   9.639   6.547 -0.1399  0.3514 -0.0604
 1227ERGO    R316578  15.317   9.861   6.702  0.1967  0.1757  0.1292
 1227ERGO    R416579  15.158   9.678   6.867  0.0185  0.2251  0.0185
 1227ERGO    R516580  15.109   9.885   6.818  0.2631  0.3383  0.2202
 1227ERGO    C116581  15.117   9.908   7.199  0.4268 -0.0133  0.2425
 1227ERGO    C216582  15.100   9.848   7.611  0.2319  0.3614  0.0920
 1228ERGO   ROH16583   6.574  15.171   6.137 -0.0126  0.0538  0.2728
 1228ERGO    R116584   6.706  15.122   6.382  0.1135 -0.1111  0.1732
 1228ERGO    R216585   6.593  14.970   6.583  0.1472 -0.1044  0.1887
 1228ERGO    R316586   6.825  14.830   6.565  0.0509 -0.2475  0.0028
 1228ERGO    R416587   6.696  14.728   6.808  0.3298  0.0899  0.3193
 1228ERGO    R516588   6.899  14.807   6.792  0.3620 -0.0285 -0.0632
 1228ERGO    C116589   6.974  14.457   6.921  0.3457  0.0687  0.2209
 1228ERGO    C216590   7.024  14.204   7.079 -0.0317  0.0334 -0.0140
 1229ERGO   ROH16591  13.879   9.600   6.112 -0.0168  0.0117 -0.0856
 1229ERGO    R116592  13.809   9.592   6.386  0.0672 -0.0537 -0.0657
 1229ERGO    R216593  13.869   9.798   6.561  0.1645 -0.1165 -0.0238
 1229ERGO    R316594  13.602   9.789   6.612  0.1778 -0.0759  0.0561
 1229ERGO    R416595  13.715   9.944   6.834  0.2721 -0.1454  0.0535
 1229ERGO    R516596  13.587   9.768   6.850  0.2443 -0.1234  0.0552
 1229ERGO    C116597  13.375  10.021   7.040  0.3472 -0.1243  0.1737
 1229ERGO    C216598  13.032  10.036   7.044  0.0139 -0.0983  0.2663
 1230ERGO   ROH16599   6.366  10.193   9.564 -0.0245 -0.1688 -0.0372
 1230ERGO    R116600   6.380  10.026   9.336 -0.0064 -0.0234 -0.1446
 1230ERGO    R216601   6.188   9.837   9.277  0.1333 -0.1761 -0.1334
 1230ERGO    R316602   6.179   9.967   9.039 -0.1377 -0.0389 -0.0524
 1230ERGO    R416603   6.037   9.714   8.991  0.0646 -0.1383 -0.1130
 1230ERGO    R516604   6.204   9.793   8.876 -0.0815  0.0843 -0.1738
 1230ERGO    C116605   5.941   9.765   8.601 -0.2298  0.0126 -0.0251
 1230ERGO    C216606   5.877   9.724   8.343  0.0095  0.1719  0.2327
 1231ERGO   ROH16607   0.577  17.235   9.805  0.0855  0.1349  0.0082
 1231ERGO    R116608   0.560  17.300   9.530 -0.0232  0.0375 -0.0086
 1231ERGO    R216609   0.765  17.246   9.351 -0.0365  0.1037 -0.0406
 1231ERGO    R316610   0.567  17.119   9.214  0.0056 -0.0585  0.0460
 1231ERGO    R416611   0.729  17.246   9.007 -0.0532 -0.1165 -0.0409
 1231ERGO    R516612   0.515  17.266   9.034 -0.0621 -0.1854 -0.0417
 1231ERGO    C116613   0.523  17.127   8.679 -0.0233 -0.3970  0.0403
 1231ERGO    C216614   0.465  16.985   8.243  0.0153  0.0759  0.0788
 1232ERGO   ROH16615   6.850   8.906   6.358  0.0966 -0.0247 -0.0684
 1232ERGO    R116616   6.924   8.838   6.623  0.0250  0.0330 -0.0321
 1232ERGO    R216617   7.120   8.652   6.679 -0.0311 -0.0032  0.0619
 1232ERGO    R316618   7.226   8.856   6.825 -0.0105  0.0165  0.0223
 1232ERGO    R416619   7.343   8.613   6.940  0.0697  0.0376 -0.0180
 1232ERGO    R516620   7.236   8.769   7.048  0.0839  0.0215  0.0194
 1232ERGO    C116621   7.571   8.781   7.230  0.1478  0.0796 -0.1017
 1232ERGO    C216622   7.921   8.725   7.252 -0.2541 -0.2511 -0.1088
 1233ERGO   ROH16623  11.675   9.798   7.966  0.0489 -0.0638  0.2083
 1233ERGO    R116624  11.703   9.542   7.849 -0.1987 -0.0233  0.0501
 1233ERGO    R216625  11.670   9.497   7.578  0.1074  0.2472 -0.0404
 1233ERGO    R316626  11.918   9.388   7.598 -0.0852 -0.1659  0.2320
 1233ERGO    R416627  11.817   9.296   7.338  0.2209  0.4193 -0.1158
 1233ERGO    R516628  11.896   9.171   7.498 -0.2524  0.0245 -0.1676
 1233ERGO    C116629  12.135   9.077   7.217  0.1061  0.1317  0.0961
 1233ERGO    C216630  12.252   8.863   7.000 -0.1869  0.1826  0.2005
 1234ERGO   ROH16631   2.378   4.251   6.600 -0.1719 -0.0342  0.1144
 1234ERGO    R116632   2.550   4.172   6.810 -0.0467  0.0801  0.0572
 1234ERGO    R216633   2.555   3.913   6.909  0.0263  0.1281  0.1808
 1234ERGO    R316634   2.821   3.933   6.854 -0.0051  0.1200  0.0213
 1234ERGO    R416635   2.799   3.705   7.038  0.1084  0.1939  0.1320
 1234ERGO    R516636   2.928   3.879   7.062  0.1143  0.2124 -0.0144
 1234ERGO    C116637   3.191   3.603   7.062  0.1267  0.2245 -0.0461
 1234ERGO    C216638   3.446   3.562   7.324 -0.1067  0.1249 -0.2675
 1235ERGO   ROH16639  12.343  12.334   9.389  0.2224 -0.0737 -0.0843
 1235ERGO    R116640  12.376  12.170   9.160  0.0477 -0.1903 -0.0272
 1235ERGO    R216641  12.218  11.948   9.112 -0.2228 -0.0137  0.0282
 1235ERGO    R316642  12.173  12.072   8.875 -0.0426 -0.0337 -0.0182
 1235ERGO    R416643  12.210  11.790   8.805 -0.1976 -0.0734  0.0576
 1235ERGO    R516644  12.317  11.960   8.720 -0.0507 -0.1608  0.0653
 1235ERGO    C116645  12.163  11.814   8.403 -0.0138 -0.1269  0.0312
 1235ERGO    C216646  12.129  11.597   8.184 -0.0230 -0.2927 -0.2147
 1236ERGO   ROH16647  14.995  16.210   6.494 -0.0470 -0.0298 -0.1091
 1236ERGO    R116648  14.801  16.183   6.698  0.0659 -0.0401 -0.0014
 1236ERGO    R216649  14.816  16.321   6.937  0.1307  0.0473 -0.0532
 1236ERGO    R316650  14.566  16.401   6.869  0.0647 -0.0770  0.0430
 1236ERGO    R416651  14.590  16.468   7.154  0.0615 -0.2541  0.0837
 1236ERGO    R516652  14.433  16.349   7.062  0.1290 -0.2989  0.0290
 1236ERGO    C116653  14.223  16.628   7.216 -0.0410 -0.5460  0.2538
 1236ERGO    C216654  14.191  16.899   7.234 -0.0007  0.1472 -0.2121
 1237ERGO   ROH16655  17.367  15.745   9.964  0.0029  0.1011 -0.0516
 1237ERGO    R116656  17.236  15.741   9.713 -0.0095  0.3086 -0.0515
 1237ERGO    R216657  17.306  15.909   9.506  0.3886  0.0815 -0.1157
 1237ERGO    R316658  17.330  15.677   9.367 -0.1420 -0.0395 -0.0270
 1237ERGO    R416659  17.289  15.882   9.162  0.2197 -0.0352 -0.0990
 1237ERGO    R516660  17.174  15.699   9.187 -0.1607  0.2088  0.0171
 1237ERGO    C116661  17.302  15.648   8.831 -0.3766 -0.2170 -0.0061
 1237ERGO    C216662  17.530  15.763   8.505 -0.1658 -0.1046  0.0961
 1238ERGO   ROH16663   6.530  17.706  10.076 -0.2137 -0.0888 -0.0602
 1238ERGO    R116664   6.697  17.647   9.855  0.0043  0.1395  0.0380
 1238ERGO    R216665   6.628  17.461   9.662  0.4684 -0.1163  0.1069
 1238ERGO    R316666   6.672  17.668   9.492  0.1003 -0.1065  0.0140
 1238ERGO    R416667   6.622  17.438   9.317  0.4578 -0.2755  0.1165
 1238ERGO    R516668   6.794  17.571   9.311  0.2420  0.0155  0.0396
 1238ERGO    C116669   6.660  17.620   8.957  0.1061 -0.3595  0.0351
 1238ERGO    C216670   6.556  17.575   8.573 -0.1292  0.1483  0.0268
 1239ERGO   ROH16671   7.954  18.064   9.774 -0.2515  0.1497 -0.0157
 1239ERGO    R116672   7.874  18.126   9.510 -0.1355 -0.0402 -0.0971
 1239ERGO    R216673   8.052  18.211   9.317 -0.0845  0.0348 -0.0166
 1239ERGO    R316674   7.949  18.004   9.175  0.1957 -0.1237  0.0036
 1239ERGO    R416675   8.081  18.172   8.974 -0.2902  0.2058 -0.0556
 1239ERGO    R516676   7.874  18.103   8.970 -0.1685 -0.1937  0.0958
 1239ERGO    C116677   8.000  17.954   8.642 -0.1468  0.1567 -0.0593
 1239ERGO    C216678   8.010  17.902   8.313  0.2776 -0.1966 -0.2931
 1240ERGO   ROH16679  17.863   3.676  10.384  0.0240  0.0021 -0.0803
 1240ERGO    R116680  17.906   3.829  10.150  0.1215  0.0013 -0.0648
 1240ERGO    R216681  18.098   3.764   9.962  0.1274 -0.0651 -0.0449
 1240ERGO    R316682  17.888   3.774   9.790  0.1520  0.0285 -0.0686
 1240ERGO    R416683  18.124   3.768   9.617  0.1538 -0.1476 -0.0432
 1240ERGO    R516684  17.963   3.914   9.612  0.2475 -0.0558 -0.0886
 1240ERGO    C116685  17.941   3.779   9.256  0.1924 -0.1077 -0.0643
 1240ERGO    C216686  17.931   3.825   8.919 -0.0299  0.2397 -0.0073
 1241ERGO   ROH16687   9.009  17.239   9.624 -0.2161 -0.1928 -0.1830
 1241ERGO    R116688   9.072  17.083   9.396 -0.0242 -0.1217 -0.1810
 1241ERGO    R216689   8.907  17.068   9.175  0.0040 -0.3056 -0.1966
 1241ERGO    R316690   9.132  17.144   9.042 -0.0676 -0.0478 -0.1745
 1241ERGO    R416691   8.964  17.016   8.838  0.1161 -0.2642 -0.1837
 1241ERGO    R516692   9.171  16.967   8.886  0.1681 -0.0121 -0.1540
 1241ERGO    C116693   9.209  17.057   8.517  0.1144  0.0019 -0.1552
 1241ERGO    C216694   9.111  17.065   8.192 -0.2837 -0.2609 -0.0468
 1242ERGO   ROH16695  12.128  15.616   9.827 -0.0576 -0.1554  0.0090
 1242ERGO    R116696  12.149  15.545   9.553 -0.0657 -0.1156 -0.0021
 1242ERGO    R216697  12.019  15.684   9.353 -0.1590 -0.1514  0.0319
 1242ERGO    R316698  12.269  15.702   9.248 -0.1816 -0.0264 -0.0021
 1242ERGO    R416699  12.091  15.706   9.015 -0.2160 -0.0206  0.0276
 1242ERGO    R516700  12.259  15.571   9.047 -0.1620  0.0325 -0.0406
 1242ERGO    C116701  12.367  15.735   8.720 -0.2703  0.1730 -0.0069
 1242ERGO    C216702  12.477  15.846   8.414 -0.0883  0.0345 -0.1463
 1243ERGO   ROH16703  16.644  12.405   6.331  0.1497  0.1251 -0.1443
 1243ERGO    R116704  16.600  12.546   6.572  0.3833  0.0714 -0.0690
 1243ERGO    R216705  16.428  12.454   6.769  0.1629  0.2900 -0.1659
 1243ERGO    R316706  16.647  12.483   6.928  0.1930 -0.2358 -0.0920
 1243ERGO    R416707  16.429  12.416   7.112 -0.0837  0.3559 -0.1548
 1243ERGO    R516708  16.563  12.587   7.126  0.3674  0.0343 -0.1464
 1243ERGO    C116709  16.635  12.421   7.461 -0.1990 -0.0994 -0.0790
 1243ERGO    C216710  16.562  12.393   7.737  0.1624  0.1644  0.0744
 1244ERGO   ROH16711  16.954   0.435   6.834  0.2084  0.2994  0.0104
 1244ERGO    R116712  16.947   0.596   7.067  0.1006  0.1642  0.1031
 1244ERGO    R216713  16.884   0.495   7.317  0.1994 -0.0282  0.0550
 1244ERGO    R316714  17.121   0.607   7.386  0.1197  0.1188  0.0932
 1244ERGO    R416715  16.984   0.561   7.641  0.2064 -0.1878  0.0857
 1244ERGO    R516716  17.068   0.749   7.571  0.0359 -0.0638  0.2109
 1244ERGO    C116717  17.265   0.704   7.895  0.1354 -0.1426  0.1395
 1244ERGO    C216718  17.532   0.741   8.062  0.2731 -0.1168 -0.0385
 1245ERGO   ROH16719  13.672   2.606  10.181  0.0363 -0.0070  0.1001
 1245ERGO    R116720  13.800   2.719   9.955 -0.1091  0.0861  0.0626
 1245ERGO    R216721  13.974   2.575   9.795  0.0716  0.2552  0.1061
 1245ERGO    R316722  13.807   2.656   9.596 -0.0355 -0.0174  0.0809
 1245ERGO    R416723  14.052   2.573   9.459  0.2482  0.6356  0.1393
 1245ERGO    R516724  13.951   2.765   9.439 -0.2035  0.4224  0.2117
 1245ERGO    C116725  13.941   2.647   9.076  0.2506  0.6013  0.1351
 1245ERGO    C216726  13.990   2.488   8.771  0.1711  0.1331 -0.2355
 1246ERGO   ROH16727  17.601   8.381   6.728  0.3036 -0.0695  0.0740
 1246ERGO    R116728  17.378   8.379   6.901  0.2066 -0.1044 -0.0496
 1246ERGO    R216729  17.231   8.150   6.952  0.1342 -0.1015 -0.2297
 1246ERGO    R316730  17.285   8.212   7.211  0.0053 -0.2236 -0.1724
 1246ERGO    R416731  17.000   8.143   7.210 -0.0286 -0.0701 -0.3728
 1246ERGO    R516732  17.089   8.326   7.288  0.0201 -0.1468 -0.2527
 1246ERGO    C116733  16.917   8.197   7.603 -0.2445 -0.1664 -0.4023
 1246ERGO    C216734  16.659   8.191   7.762  0.0956 -0.2106  0.2830
 1247ERGO   ROH16735   2.754   0.428   7.121  0.0558 -0.0420  0.0093
 1247ERGO    R116736   2.583   0.227   7.221 -0.0167 -0.0009 -0.0281
 1247ERGO    R216737   2.327   0.188   7.125 -0.0258  0.0873 -0.0577
 1247ERGO    R316738   2.413  -0.067   7.087 -0.0934  0.0686 -0.0794
 1247ERGO    R416739   2.133  -0.094   7.169 -0.0544  0.1227  0.0391
 1247ERGO    R516740   2.305  -0.192   7.260 -0.0396  0.0969 -0.0315
 1247ERGO    C116741   2.101  -0.498   7.158 -0.1347  0.1256  0.0751
 1247ERGO    C216742   2.084  -0.788   7.301 -0.2605  0.1167 -0.2320
 1248ERGO   ROH16743   2.654  18.425   9.303  0.0046  0.3481 -0.1001
 1248ERGO    R116744   2.487  18.372   9.081  0.0779  0.1282 -0.1049
 1248ERGO    R216745   2.443  18.556   8.880 -0.1495  0.0701 -0.1122
 1248ERGO    R316746   2.525  18.352   8.720  0.1169  0.1661 -0.1029
 1248ERGO    R416747   2.402  18.546   8.537 -0.0533  0.0401 -0.1229
 1248ERGO    R516748   2.353  18.334   8.554  0.1765 -0.0171 -0.1463
 1248ERGO    C116749   2.455  18.348   8.187  0.2528  0.1128 -0.1204
 1248ERGO    C216750   2.322  18.353   7.890  0.1210 -0.2078  0.0119
 1249ERGO   ROH16751   7.463  10.497   9.343  0.1153  0.0941 -0.0516
 1249ERGO    R116752   7.520  10.366   9.099  0.1544 -0.0205  0.0177
 1249ERGO    R216753   7.323  10.259   8.938  0.1789 -0.1115  0.0416
 1249ERGO    R316754   7.439  10.415   8.748  0.1942 -0.1924 -0.0150
 1249ERGO    R416755   7.287  10.214   8.597 -0.0641 -0.0429  0.0566
 1249ERGO    R516756   7.498  10.261   8.574 -0.0414 -0.2213 -0.0684
 1249ERGO    C116757   7.375  10.334   8.220 -0.1913 -0.0791  0.0121
 1249ERGO    C216758   7.421  10.309   7.841  0.0263 -0.1212  0.1474
 1250ERGO   ROH16759   0.454   8.219   6.981  0.0069  0.1168 -0.1890
 1250ERGO    R116760   0.723   8.146   7.032 -0.0360  0.0602 -0.0360
 1250ERGO    R216761   0.841   8.177   7.279 -0.1935 -0.0416  0.0543
 1250ERGO    R316762   0.897   7.913   7.249 -0.2144 -0.0400  0.0011
 1250ERGO    R416763   1.064   8.000   7.475 -0.2344 -0.1085  0.0405
 1250ERGO    R516764   1.132   7.897   7.295 -0.2222 -0.0733  0.0262
 1250ERGO    C116765   1.247   7.649   7.561 -0.2778 -0.1460 -0.0175
 1250ERGO    C216766   1.486   7.336   7.679 -0.2302 -0.0401  0.1499
 1251ERGO   ROH16767   0.052  16.094  10.121 -0.1545 -0.0407 -0.0123
 1251ERGO    R116768  -0.101  15.968   9.918 -0.0827 -0.1230 -0.0185
 1251ERGO    R216769  -0.180  16.100   9.689 -0.1395 -0.1668 -0.0306
 1251ERGO    R316770  -0.059  15.891   9.565 -0.0243 -0.1075 -0.0143
 1251ERGO    R416771  -0.223  16.015   9.356 -0.0045 -0.1446 -0.0521
 1251ERGO    R516772  -0.225  15.805   9.416  0.0546 -0.1511 -0.0758
 1251ERGO    C116773  -0.133  15.769   9.047  0.1824 -0.0760 -0.0494
 1251ERGO    C216774   0.010  15.619   8.720  0.0222  0.1355  0.0822
 1252ERGO   ROH16775  14.164  11.893   5.953 -0.0788  0.1777 -0.0428
 1252ERGO    R116776  14.344  12.002   6.142  0.0340  0.1006 -0.1045
 1252ERGO    R216777  14.427  12.265   6.133 -0.0796  0.1426  0.0324
 1252ERGO    R316778  14.338  12.268   6.390  0.1301 -0.0953  0.1121
 1252ERGO    R416779  14.473  12.527   6.355 -0.4674  0.2229  0.0247
 1252ERGO    R516780  14.511  12.380   6.512 -0.0038  0.2773 -0.0248
 1252ERGO    C116781  14.416  12.682   6.725 -0.4964  0.0462  0.0951
 1252ERGO    C216782  14.325  12.924   7.014 -0.1731 -0.3425  0.1667
 1253ERGO   ROH16783   6.475   7.952   9.997  0.1481 -0.1177 -0.0221
 1253ERGO    R116784   6.421   7.860   9.735  0.0329 -0.0805 -0.0116
 1253ERGO    R216785   6.181   7.908   9.608 -0.0249 -0.0639  0.1013
 1253ERGO    R316786   6.341   8.010   9.413 -0.1107 -0.0343  0.0454
 1253ERGO    R416787   6.076   7.985   9.287 -0.1502 -0.0647  0.1409
 1253ERGO    R516788   6.265   7.904   9.212 -0.1681 -0.0354  0.0688
 1253ERGO    C116789   6.166   8.127   8.918 -0.3036 -0.0375  0.1115
 1253ERGO    C216790   5.955   8.172   8.640  0.2269  0.2389  0.4173
 1254ERGO   ROH16791  15.496  11.525   6.031  0.1431  0.0479  0.0848
 1254ERGO    R116792  15.386  11.423   6.271  0.0098  0.1297  0.0598
 1254ERGO    R216793  15.523  11.246   6.434 -0.1871 -0.0288  0.0565
 1254ERGO    R316794  15.471  11.431   6.625 -0.0231  0.0035  0.0710
 1254ERGO    R416795  15.577  11.200   6.772 -0.0214 -0.0194  0.0319
 1254ERGO    R516796  15.389  11.304   6.811  0.0335  0.0458  0.1250
 1254ERGO    C116797  15.560  11.348   7.149  0.2291  0.0164  0.0313
 1254ERGO    C216798  15.498  11.422   7.481  0.0167  0.0892  0.1138
 1255ERGO   ROH16799  13.402  17.123   9.302 -0.0904 -0.1546  0.0935
 1255ERGO    R116800  13.325  17.251   9.061  0.1422  0.0535  0.1272
 1255ERGO    R216801  13.495  17.275   8.845  0.1691 -0.2646  0.1122
 1255ERGO    R316802  13.290  17.157   8.711 -0.1049  0.1868  0.1133
 1255ERGO    R416803  13.464  17.267   8.501  0.3047 -0.4257  0.1015
 1255ERGO    R516804  13.250  17.303   8.525  0.3731  0.1765 -0.0140
 1255ERGO    C116805  13.253  17.152   8.175  0.1265 -0.0959  0.0964
 1255ERGO    C216806  13.067  17.034   7.886 -0.2547 -0.2747 -0.0756
 1256ERGO   ROH16807   0.313  11.655  10.243 -0.2267  0.1688 -0.2612
 1256ERGO    R116808   0.476  11.543  10.041 -0.0537  0.2519 -0.1704
 1256ERGO    R216809   0.373  11.393   9.832  0.1672 -0.0593 -0.0681
 1256ERGO    R316810   0.508  11.573   9.679 -0.0885  0.0304 -0.1914
 1256ERGO    R416811   0.382  11.392   9.487  0.0907 -0.2111 -0.0700
 1256ERGO    R516812   0.593  11.444   9.496  0.0257  0.0504 -0.1468
 1256ERGO    C116813   0.513  11.560   9.142 -0.1940 -0.2154 -0.1871
 1256ERGO    C216814   0.511  11.442   8.813 -0.0990  0.0560 -0.4231
 1257ERGO   ROH16815  10.225   2.101   9.471  0.1785  0.2198  0.0148
 1257ERGO    R116816  10.160   2.058   9.198  0.1442  0.1344  0.0361
 1257ERGO    R216817  10.297   2.181   8.991  0.1184  0.0714 -0.0208
 1257ERGO    R316818  10.330   1.926   8.905  0.1088  0.0434  0.0571
 1257ERGO    R416819  10.326   2.087   8.660  0.1578 -0.0332  0.0121
 1257ERGO    R516820  10.201   1.914   8.703  0.1385 -0.0075  0.0435
 1257ERGO    C116821  10.374   1.792   8.386  0.1715 -0.1203  0.1042
 1257ERGO    C216822  10.453   1.791   8.141 -0.0311 -0.3698  0.2294
 1258ERGO   ROH16823   5.692   3.984  10.058 -0.2494  0.0473 -0.1182
 1258ERGO    R116824   5.637   3.987   9.781 -0.0942  0.0258 -0.1490
 1258ERGO    R216825   5.832   4.033   9.591  0.0457 -0.1728 -0.0507
 1258ERGO    R316826   5.744   3.798   9.488 -0.0825 -0.1261 -0.0492
 1258ERGO    R416827   5.899   3.920   9.271  0.1879 -0.3093  0.0253
 1258ERGO    R516828   5.693   3.848   9.259  0.1279 -0.1375 -0.1037
 1258ERGO    C116829   5.855   3.633   8.989  0.1504 -0.3450  0.0710
 1258ERGO    C216830   5.944   3.534   8.651 -0.1886 -0.0060  0.0546
 1259ERGO   ROH16831  15.584  17.505  10.037  0.1791 -0.0974 -0.0745
 1259ERGO    R116832  15.523  17.566   9.768  0.1081 -0.1123 -0.0628
 1259ERGO    R216833  15.664  17.754   9.622 -0.0221 -0.0105 -0.0682
 1259ERGO    R316834  15.694  17.548   9.447  0.0823  0.0178 -0.0827
 1259ERGO    R416835  15.654  17.784   9.278 -0.1451 -0.0149 -0.0648
 1259ERGO    R516836  15.541  17.598   9.270 -0.0044 -0.0971 -0.0366
 1259ERGO    C116837  15.676  17.609   8.913 -0.1185  0.0090 -0.0763
 1259ERGO    C216838  15.813  17.813   8.691  0.0568  0.1503  0.1580
 1260ERGO   ROH16839  14.186  16.598   5.886  0.3224  0.1567  0.0312
 1260ERGO    R116840  14.222  16.578   6.166  0.2550  0.0919  0.0353
 1260ERGO    R216841  14.013  16.605   6.345  0.2452  0.2460 -0.0009
 1260ERGO    R316842  14.100  16.364   6.433  0.0249  0.1603 -0.0114
 1260ERGO    R416843  13.986  16.493   6.671  0.0364  0.2105 -0.0288
 1260ERGO    R516844  14.186  16.408   6.652 -0.0198  0.0566  0.0296
 1260ERGO    C116845  14.052  16.201   6.943 -0.2919  0.1095 -0.0549
 1260ERGO    C216846  13.943  16.067   7.213 -0.0132  0.1081 -0.2832
 1261ERGO   ROH16847   6.387   7.667   6.540  0.0178  0.0514 -0.0747
 1261ERGO    R116848   6.554   7.815   6.714  0.0011  0.0073 -0.0210
 1261ERGO    R216849   6.631   7.720   6.962  0.0384 -0.0881 -0.0683
 1261ERGO    R316850   6.881   7.771   6.868  0.0215  0.0040 -0.0647
 1261ERGO    R416851   6.914   7.750   7.158  0.0587 -0.2005 -0.0807
 1261ERGO    R516852   6.978   7.915   7.032  0.0267 -0.1026  0.0280
 1261ERGO    C116853   7.313   7.814   7.183  0.0546 -0.1795 -0.0844
 1261ERGO    C216854   7.601   7.791   7.512  0.0772 -0.0040  0.0015
 1262ERGO   ROH16855   8.391   7.572   9.807 -0.1297 -0.0127  0.0174
 1262ERGO    R116856   8.398   7.388   9.592  0.0963 -0.0177  0.0275
 1262ERGO    R216857   8.228   7.405   9.375 -0.0423 -0.3337  0.1056
 1262ERGO    R316858   8.460   7.403   9.234 -0.0969  0.0708 -0.0033
 1262ERGO    R416859   8.261   7.292   9.051 -0.0028 -0.2345  0.0744
 1262ERGO    R516860   8.450   7.200   9.107  0.1791  0.0682 -0.0261
 1262ERGO    C116861   8.498   7.223   8.729 -0.0309  0.2030 -0.0460
 1262ERGO    C216862   8.424   7.294   8.379 -0.2686  0.1635 -0.0046
 1263ERGO   ROH16863   2.565   0.889   9.247  0.1977 -0.0201  0.0085
 1263ERGO    R116864   2.578   0.989   8.983  0.2113 -0.0322  0.0041
 1263ERGO    R216865   2.667   0.837   8.770  0.0604 -0.0984 -0.0146
 1263ERGO    R316866   2.428   0.908   8.661  0.0848  0.0671  0.0372
 1263ERGO    R416867   2.615   0.904   8.435  0.0234 -0.1170 -0.0122
 1263ERGO    R516868   2.485   1.069   8.493  0.1654 -0.0054 -0.0059
 1263ERGO    C116869   2.360   1.009   8.138  0.0248  0.0275  0.0378
 1263ERGO    C216870   2.180   0.794   7.867  0.1171  0.1452  0.0814
 1264ERGO   ROH16871  11.836   3.346   6.296  0.2840  0.1172 -0.0148
 1264ERGO    R116872  11.691   3.180   6.473  0.1097  0.1837 -0.0921
 1264ERGO    R216873  11.792   2.940   6.568 -0.1423  0.0266 -0.2092
 1264ERGO    R316874  11.737   3.050   6.810 -0.0178 -0.0291 -0.1550
 1264ERGO    R416875  11.693   2.763   6.848  0.0570 -0.0422 -0.1812
 1264ERGO    R516876  11.552   2.922   6.893  0.0551 -0.0771 -0.0670
 1264ERGO    C116877  11.584   2.763   7.238  0.2899 -0.1346 -0.1140
 1264ERGO    C216878  11.451   2.475   7.446  0.1987 -0.3209 -0.0143
 1265ERGO   ROH16879   0.211   8.572  10.418 -0.1173 -0.0810  0.1225
 1265ERGO    R116880   0.298   8.516  10.155 -0.0892 -0.1074  0.1379
 1265ERGO    R216881   0.275   8.266  10.040 -0.1634 -0.0941  0.1287
 1265ERGO    R316882   0.146   8.403   9.845 -0.0734 -0.0409  0.1052
 1265ERGO    R416883   0.319   8.216   9.701 -0.2054 -0.1938  0.1367
 1265ERGO    R516884   0.310   8.432   9.673 -0.0550 -0.1899  0.0945
 1265ERGO    C116885   0.224   8.317   9.320 -0.1453 -0.2020  0.1193
 1265ERGO    C216886   0.216   8.267   8.993 -0.1078  0.3100 -0.1926
 1266ERGO   ROH16887   6.809   9.035   9.760  0.0464 -0.1331 -0.1104
 1266ERGO    R116888   6.821   9.104   9.486 -0.0429  0.0769 -0.0627
 1266ERGO    R216889   6.915   8.930   9.293  0.0689  0.2902 -0.2013
 1266ERGO    R316890   6.675   8.982   9.176  0.0125  0.1880 -0.1336
 1266ERGO    R416891   6.847   8.892   8.956 -0.0986 -0.0295 -0.1359
 1266ERGO    R516892   6.731   9.077   8.963 -0.0870 -0.0157 -0.2553
 1266ERGO    C116893   6.582   8.918   8.650 -0.2491 -0.3114 -0.0342
 1266ERGO    C216894   6.501   8.807   8.290  0.0320 -0.1757 -0.2776
 1267ERGO   ROH16895  14.716  15.281   9.689 -0.1242  0.2129  0.0816
 1267ERGO    R116896  14.696  15.362   9.418 -0.0627  0.1928  0.0702
 1267ERGO    R216897  14.876  15.536   9.301  0.0163  0.1172  0.0722
 1267ERGO    R316898  14.901  15.336   9.119 -0.0351  0.0872  0.0990
 1267ERGO    R416899  14.847  15.575   8.959  0.2063  0.1064  0.0543
 1267ERGO    R516900  14.738  15.388   8.951  0.0819  0.1839  0.0171
 1267ERGO    C116901  14.854  15.410   8.588  0.2688  0.0720  0.0691
 1267ERGO    C216902  14.890  15.322   8.295 -0.0497 -0.1327  0.3689
 1268ERGO   ROH16903  11.311   5.252   9.946 -0.0135  0.0326 -0.0298
 1268ERGO    R116904  11.463   5.216   9.710  0.0945 -0.0014  0.0435
 1268ERGO    R216905  11.363   5.084   9.488  0.2336 -0.1296  0.0541
 1268ERGO    R316906  11.435   5.313   9.360  0.1923 -0.1509 -0.0067
 1268ERGO    R416907  11.428   5.109   9.150  0.2271 -0.2083  0.0473
 1268ERGO    R516908  11.594   5.242   9.196  0.2037 -0.1664  0.0113
 1268ERGO    C116909  11.532   5.338   8.832  0.1844 -0.2742 -0.0137
 1268ERGO    C216910  11.507   5.423   8.540 -0.1282  0.1038 -0.1150
 1269ERGO   ROH16911   6.997  11.832   6.620  0.1661 -0.1097  0.0102
 1269ERGO    R116912   7.199  11.863   6.816  0.0401 -0.2645  0.1678
 1269ERGO    R216913   7.237  12.099   6.954  0.3528 -0.1631 -0.0801
 1269ERGO    R316914   7.212  11.939   7.172 -0.1692  0.1322  0.0977
 1269ERGO    R416915   7.393  12.154   7.257  0.4261 -0.2613 -0.0997
 1269ERGO    R516916   7.431  11.939   7.270 -0.1792 -0.3744  0.1512
 1269ERGO    C116917   7.461  12.035   7.638 -0.0212 -0.0412  0.0559
 1269ERGO    C216918   7.626  11.996   7.915 -0.2389 -0.0122  0.2283
 1270ERGO   ROH16919  14.581   0.634  10.163 -0.0373  0.0145  0.1466
 1270ERGO    R116920  14.734   0.568   9.934  0.0836  0.0230  0.2243
 1270ERGO    R216921  14.620   0.517   9.688  0.1942 -0.2009  0.2146
 1270ERGO    R316922  14.792   0.711   9.604  0.0570 -0.0980  0.1679
 1270ERGO    R416923  14.742   0.547   9.366  0.0961 -0.1228  0.1841
 1270ERGO    R516924  14.937   0.599   9.450  0.0849 -0.0069  0.1312
 1270ERGO    C116925  14.975   0.746   9.100 -0.0897  0.0192  0.1224
 1270ERGO    C216926  15.061   0.764   8.732 -0.5050  0.0342  0.1648
 1271ERGO   ROH16927  18.258  15.407   6.348  0.2692 -0.0096 -0.0649
 1271ERGO    R116928  18.143  15.343   6.598  0.1198  0.0846 -0.1080
 1271ERGO    R216929  18.255  15.158   6.770 -0.1081 -0.0232 -0.0733
 1271ERGO    R316930  18.242  15.363   6.948  0.0124 -0.0173 -0.0705
 1271ERGO    R416931  18.181  15.124   7.106 -0.1216  0.0124 -0.0725
 1271ERGO    R516932  18.061  15.305   7.093 -0.0195  0.0829 -0.0680
 1271ERGO    C116933  18.127  15.297   7.468 -0.0164  0.0385 -0.0694
 1271ERGO    C216934  17.976  15.262   7.831 -0.2182 -0.2400  0.0184
 1272ERGO   ROH16935   1.309   2.930   6.026  0.1211  0.0636 -0.0226
 1272ERGO    R116936   1.352   2.972   6.303  0.0866  0.0712 -0.0180
 1272ERGO    R216937   1.389   2.763   6.481  0.1151  0.0775 -0.0151
 1272ERGO    R316938   1.616   2.899   6.543  0.0800  0.1260  0.0059
 1272ERGO    R416939   1.503   2.818   6.802  0.0212  0.1858  0.0001
 1272ERGO    R516940   1.560   3.020   6.742  0.0101  0.1762 -0.0439
 1272ERGO    C116941   1.784   2.977   7.048 -0.0665  0.2944  0.0287
 1272ERGO    C216942   1.859   3.176   7.317 -0.1894 -0.2051 -0.4884
 1273ERGO   ROH16943   5.517  11.168   6.448  0.0441 -0.0917  0.0594
 1273ERGO    R116944   5.344  11.141   6.670 -0.0213 -0.1027  0.0069
 1273ERGO    R216945   5.426  11.188   6.930 -0.0903 -0.1445  0.0351
 1273ERGO    R316946   5.215  11.359   6.932 -0.0743 -0.1239 -0.0008
 1273ERGO    R416947   5.191  11.208   7.182 -0.0735 -0.0537  0.0441
 1273ERGO    R516948   5.037  11.233   7.030 -0.0806 -0.0817  0.0449
 1273ERGO    C116949   4.856  11.381   7.331 -0.0488  0.0185  0.0156
 1273ERGO    C216950   4.581  11.565   7.516 -0.4750 -0.2884 -0.2183
 1274ERGO   ROH16951  12.906   1.995  10.003  0.1321  0.0350  0.0897
 1274ERGO    R116952  12.957   2.145   9.768  0.0857 -0.0008  0.0570
 1274ERGO    R216953  13.172   2.093   9.602  0.0148 -0.0672 -0.0110
 1274ERGO    R316954  12.980   2.078   9.411 -0.0534 -0.0406  0.0544
 1274ERGO    R416955  13.230   2.113   9.262 -0.1145  0.1105 -0.0239
 1274ERGO    R516956  13.050   2.235   9.244 -0.1640  0.0627  0.1004
 1274ERGO    C116957  13.083   2.111   8.884 -0.2539  0.2390  0.0299
 1274ERGO    C216958  13.230   2.117   8.638 -0.3806 -0.0736 -0.1500
 1275ERGO   ROH16959  11.992  17.963   9.659 -0.1346  0.0558  0.0582
 1275ERGO    R116960  11.887  17.930   9.398 -0.0253 -0.0117  0.0226
 1275ERGO    R216961  11.793  18.141   9.247 -0.0576 -0.0654 -0.0292
 1275ERGO    R316962  11.968  18.046   9.063  0.0486 -0.0087  0.0409
 1275ERGO    R416963  11.764  18.184   8.905  0.0378 -0.1164 -0.0443
 1275ERGO    R516964  11.831  17.978   8.879  0.1391 -0.0916  0.0015
 1275ERGO    C116965  11.913  18.118   8.534  0.1930 -0.0930  0.0129
 1275ERGO    C216966  11.941  18.134   8.221  0.1559 -0.3502 -0.3968
 1276ERGO   ROH16967  14.254   0.568   6.615 -0.1147 -0.0617 -0.1232
 1276ERGO    R116968  14.295   0.500   6.887 -0.0610 -0.0578 -0.1307
 1276ERGO    R216969  14.155   0.620   7.093  0.0087 -0.0290 -0.1046
 1276ERGO    R316970  14.094   0.363   7.158 -0.0168 -0.0165 -0.0755
 1276ERGO    R416971  13.998   0.521   7.385  0.2032  0.0032  0.0133
 1276ERGO    R516972  14.132   0.350   7.393  0.1633 -0.0397 -0.1020
 1276ERGO    C116973  13.849   0.222   7.615  0.2926  0.0336  0.1094
 1276ERGO    C216974  13.938  -0.034   7.869 -0.0147 -0.0155  0.0705
 1277ERGO   ROH16975   6.013  17.927   6.134 -0.4325 -0.0420  0.1329
 1277ERGO    R116976   5.995  17.887   6.414 -0.2365 -0.1732  0.1290
 1277ERGO    R216977   6.164  17.716   6.551  0.0445 -0.0290 -0.0238
 1277ERGO    R316978   6.211  17.937   6.702 -0.1393 -0.0270  0.0307
 1277ERGO    R416979   6.258  17.712   6.883 -0.0391 -0.0241 -0.0007
 1277ERGO    R516980   6.124  17.881   6.918 -0.1566 -0.1202 -0.0034
 1277ERGO    C116981   6.355  17.917   7.219 -0.2603 -0.0193  0.0639
 1277ERGO    C216982   6.621  17.823   7.520 -0.0426 -0.0789  0.2438
 1278ERGO   ROH16983  18.421   2.875   8.596  0.1901 -0.0506 -0.1385
 1278ERGO    R116984  18.434   2.977   8.860 -0.1472 -0.1747 -0.0705
 1278ERGO    R216985  18.295   2.863   9.070  0.0650 -0.6569 -0.1857
 1278ERGO    R316986  18.541   2.855   9.186  0.0623 -0.1103 -0.1121
 1278ERGO    R416987  18.353   2.840   9.410 -0.0061 -0.8228 -0.1833
 1278ERGO    R516988  18.516   2.982   9.387 -0.3601 -0.3505  0.0049
 1278ERGO    C116989  18.617   2.818   9.716 -0.0501 -0.4062 -0.1127
 1278ERGO    C216990  18.478   2.850  10.111 -0.1186  0.1156  0.0368
 1279ERGO   ROH16991   3.519   0.023   6.248  0.0595 -0.0729  0.1453
 1279ERGO    R116992   3.700   0.092   6.454  0.0573 -0.1767  0.1825
 1279ERGO    R216993   3.657   0.304   6.625  0.2250 -0.0453  0.0640
 1279ERGO    R316994   3.692   0.115   6.817 -0.0599  0.0049  0.1703
 1279ERGO    R416995   3.755   0.369   6.950  0.3734 -0.0076  0.0123
 1279ERGO    R516996   3.882   0.192   6.942  0.0870 -0.2265  0.0984
 1279ERGO    C116997   3.845   0.230   7.320  0.1923  0.0614  0.0819
 1279ERGO    C216998   3.705   0.136   7.598 -0.0015  0.0281 -0.1801
 1280ERGO   ROH16999  17.615  10.132  10.252  0.1670 -0.0417  0.0477
 1280ERGO    R117000  17.574  10.250   9.998  0.0671 -0.0007  0.0809
 1280ERGO    R217001  17.777  10.278   9.811  0.0265  0.1345  0.0435
 1280ERGO    R317002  17.602  10.146   9.650  0.0532  0.0875  0.0558
 1280ERGO    R417003  17.799  10.260   9.467  0.0153  0.0953  0.0457
 1280ERGO    R517004  17.583  10.284   9.456  0.0214  0.0526  0.0433
 1280ERGO    C117005  17.649  10.125   9.115  0.0338  0.0285  0.0586
 1280ERGO    C217006  17.550  10.045   8.831 -0.3291  0.1519 -0.0527
 1281ERGO   ROH17007   1.666  12.413   9.989 -0.1248 -0.1715  0.0633
 1281ERGO    R117008   1.570  12.415   9.722 -0.1624 -0.3535  0.0756
 1281ERGO    R217009   1.688  12.564   9.523 -0.5193 -0.0542  0.0843
 1281ERGO    R317010   1.699  12.325   9.394  0.0081 -0.0216  0.0462
 1281ERGO    R417011   1.672  12.524   9.180 -0.6385 -0.0363  0.0868
 1281ERGO    R517012   1.545  12.348   9.212 -0.1833 -0.3773  0.1474
 1281ERGO    C117013   1.673  12.276   8.859 -0.2129  0.0045  0.0524
 1281ERGO    C217014   1.721  12.215   8.538 -0.1753  0.0332  0.0873
 1282ERGO   ROH17015   3.671  17.037   6.443  0.1888  0.3493  0.0664
 1282ERGO    R117016   3.725  16.799   6.586 -0.1096  0.2396  0.0051
 1282ERGO    R217017   3.981  16.705   6.627 -0.2254 -0.1694 -0.1331
 1282ERGO    R317018   3.906  16.707   6.889 -0.0977 -0.0826 -0.0968
 1282ERGO    R417019   4.119  16.506   6.874 -0.2446 -0.2303 -0.1725
 1282ERGO    R517020   3.918  16.478   6.956 -0.2237 -0.0813 -0.0723
 1282ERGO    C117021   4.127  16.392   7.263 -0.1359 -0.1846 -0.1614
 1282ERGO    C217022   4.493  16.451   7.556  0.0339  0.0950 -0.2173
 1283ERGO   ROH17023   6.437   2.875   6.200  0.0290  0.2207 -0.0832
 1283ERGO    R117024   6.468   2.773   6.462  0.0110  0.2477 -0.0713
 1283ERGO    R217025   6.672   2.600   6.531 -0.1378  0.0653 -0.1002
 1283ERGO    R317026   6.721   2.786   6.723  0.1070  0.0565 -0.1498
 1283ERGO    R417027   6.875   2.551   6.807 -0.2052 -0.1461 -0.0861
 1283ERGO    R517028   6.730   2.661   6.927 -0.0692  0.0877 -0.1154
 1283ERGO    C117029   7.038   2.698   7.148 -0.0145 -0.2774 -0.1246
 1283ERGO    C217030   7.389   2.526   7.306  0.0032 -0.1448  0.0212
 1284ERGO   ROH17031  13.134  11.654   9.590 -0.0727 -0.1775  0.0212
 1284ERGO    R117032  13.190  11.734   9.325 -0.0400 -0.0877  0.0548
 1284ERGO    R217033  13.343  11.581   9.152 -0.0135 -0.0268  0.0232
 1284ERGO    R317034  13.125  11.605   8.991  0.0064  0.0213  0.0035
 1284ERGO    R417035  13.354  11.634   8.811  0.0255  0.0686  0.0391
 1284ERGO    R517036  13.187  11.772   8.832  0.0261  0.0644  0.0575
 1284ERGO    C117037  13.157  11.688   8.461  0.0670  0.1695  0.0298
 1284ERGO    C217038  13.131  11.859   8.163  0.2342  0.1242  0.0517
 1285ERGO   ROH17039   3.323  13.253   9.847 -0.0414 -0.1183 -0.0261
 1285ERGO    R117040   3.175  13.274   9.607 -0.0123 -0.1778 -0.0490
 1285ERGO    R217041   3.234  13.461   9.411 -0.1484 -0.0548  0.0281
 1285ERGO    R317042   3.243  13.241   9.251  0.0926  0.0070 -0.0478
 1285ERGO    R417043   3.206  13.467   9.067 -0.0885  0.0407  0.0244
 1285ERGO    R517044   3.083  13.288   9.078  0.0790 -0.0844 -0.0616
 1285ERGO    C117045   3.199  13.265   8.716  0.1725  0.1543 -0.0489
 1285ERGO    C217046   3.227  13.282   8.450 -0.1566 -0.0135  0.2837
 1286ERGO   ROH17047  13.190   7.379   6.355 -0.1112  0.0361 -0.0139
 1286ERGO    R117048  13.259   7.459   6.617 -0.0071  0.1374 -0.0713
 1286ERGO    R217049  13.320   7.721   6.682 -0.1228  0.1912 -0.1675
 1286ERGO    R317050  13.125   7.686   6.869  0.0014  0.1167 -0.0497
 1286ERGO    R417051  13.273   7.923   6.958  0.1177  0.0124  0.0090
 1286ERGO    R517052  13.231   7.744   7.076  0.1581 -0.0523 -0.0833
 1286ERGO    C117053  13.063   8.008   7.294  0.3746 -0.1617  0.2223
 1286ERGO    C217054  12.781   8.213   7.343 -0.0413  0.2449 -0.3998
 1287ERGO   ROH17055   7.631   5.633   6.226 -0.0419  0.1247  0.0115
 1287ERGO    R117056   7.547   5.447   6.423 -0.1418  0.1458 -0.0108
 1287ERGO    R217057   7.685   5.408   6.660 -0.0171 -0.1353 -0.1254
 1287ERGO    R317058   7.442   5.459   6.771  0.1248  0.1325  0.0728
 1287ERGO    R417059   7.614   5.386   6.997  0.1566 -0.3815 -0.1025
 1287ERGO    R517060   7.422   5.297   6.946 -0.0214 -0.0271 -0.0871
 1287ERGO    C117061   7.345   5.421   7.298  0.3909 -0.2735  0.0969
 1287ERGO    C217062   7.416   5.401   7.543  0.0434  0.4670  0.0014
 1288ERGO   ROH17063  13.556  14.145   9.627 -0.1190 -0.0309 -0.0440
 1288ERGO    R117064  13.428  14.016   9.411 -0.1381 -0.0547 -0.0189
 1288ERGO    R217065  13.318  14.154   9.199 -0.1120 -0.0802 -0.0502
 1288ERGO    R317066  13.477  13.991   9.051 -0.1369 -0.1382 -0.0130
 1288ERGO    R417067  13.261  14.071   8.868 -0.0647 -0.0587 -0.0636
 1288ERGO    R517068  13.324  13.867   8.914 -0.1503 -0.0817 -0.0492
 1288ERGO    C117069  13.377  13.869   8.537 -0.0606 -0.1007 -0.0364
 1288ERGO    C217070  13.563  13.839   8.208  0.0998 -0.1194  0.0126
 1289ERGO   ROH17071   6.175  15.255   9.628  0.2134  0.0239  0.0835
 1289ERGO    R117072   6.086  15.338   9.373  0.1715  0.1015  0.1227
 1289ERGO    R217073   6.239  15.309   9.145  0.0940  0.0773  0.0717
 1289ERGO    R317074   6.018  15.180   9.052  0.0149  0.1800  0.1167
 1289ERGO    R417075   6.158  15.272   8.811  0.0931 -0.0299  0.0836
 1289ERGO    R517076   5.950  15.310   8.862  0.1152  0.1342  0.0499
 1289ERGO    C117077   5.904  15.130   8.529  0.0183  0.0042  0.1328
 1289ERGO    C217078   5.790  15.210   8.193 -0.0213 -0.0899  0.3468
 1290ERGO   ROH17079  11.506  10.611   9.521 -0.0693 -0.3307  0.0618
 1290ERGO    R117080  11.429  10.622   9.249 -0.0390 -0.1395  0.0603
 1290ERGO    R217081  11.612  10.618   9.042 -0.0224 -0.1026  0.0774
 1290ERGO    R317082  11.461  10.409   8.956 -0.1088  0.0138 -0.0613
 1290ERGO    R417083  11.581  10.520   8.712  0.2715 -0.1231  0.0524
 1290ERGO    R517084  11.369  10.484   8.748  0.1927  0.0666 -0.1835
 1290ERGO    C117085  11.421  10.266   8.439  0.3615 -0.0257 -0.0924
 1290ERGO    C217086  11.366  10.342   8.051 -0.0815  0.0376  0.0028
 1291ERGO   ROH17087  18.236   7.014   6.785 -0.0408  0.1621 -0.0624
 1291ERGO    R117088  18.206   6.948   7.059 -0.0379 -0.0394 -0.1106
 1291ERGO    R217089  18.073   7.111   7.238  0.1457 -0.0721  0.0507
 1291ERGO    R317090  17.929   6.886   7.287 -0.0422  0.0110 -0.0995
 1291ERGO    R417091  17.902   7.044   7.531  0.3416 -0.2440  0.1295
 1291ERGO    R517092  17.969   6.838   7.517  0.1234 -0.3077 -0.1840
 1291ERGO    C117093  17.667   6.794   7.747  0.2792 -0.2662  0.0344
 1291ERGO    C217094  17.415   6.539   7.915 -0.0906 -0.1197  0.0285
 1292ERGO   ROH17095  13.490   0.008   9.897  0.0381  0.0507  0.0558
 1292ERGO    R117096  13.498   0.186   9.677  0.0549  0.0002  0.0145
 1292ERGO    R217097  13.728   0.230   9.530  0.0974  0.0505  0.0888
 1292ERGO    R317098  13.569   0.162   9.321  0.1997 -0.0645  0.0479
 1292ERGO    R417099  13.782   0.324   9.202  0.0813  0.1220  0.1070
 1292ERGO    R517100  13.567   0.356   9.181  0.0623 -0.0574  0.0643
 1292ERGO    C117101  13.664   0.315   8.814  0.1677  0.0557  0.0794
 1292ERGO    C217102  13.650   0.363   8.510 -0.1638  0.1856  0.1941
 1293ERGO   ROH17103   6.705  15.223   9.596 -0.2072  0.2305  0.1070
 1293ERGO    R117104   6.648  15.228   9.319 -0.1728  0.1346  0.0975
 1293ERGO    R217105   6.647  15.462   9.172 -0.1270  0.0813  0.0097
 1293ERGO    R317106   6.824  15.326   9.015 -0.1237  0.0015  0.0825
 1293ERGO    R417107   6.624  15.431   8.828 -0.1451 -0.1359  0.0292
 1293ERGO    R517108   6.687  15.224   8.847 -0.1231 -0.1174  0.1546
 1293ERGO    C117109   6.776  15.286   8.481 -0.1525 -0.3372  0.1088
 1293ERGO    C217110   6.734  15.421   8.174 -0.2236 -0.1863  0.0869
 1294ERGO   ROH17111  12.651   8.140  10.133 -0.0249  0.2779 -0.1173
 1294ERGO    R117112  12.617   8.001   9.888 -0.1986  0.2592 -0.0847
 1294ERGO    R217113  12.503   8.119   9.665  0.0208  0.3782 -0.1401
 1294ERGO    R317114  12.733   8.037   9.545 -0.0775 -0.0160 -0.0741
 1294ERGO    R417115  12.542   8.066   9.325  0.0456  0.3580 -0.1338
 1294ERGO    R517116  12.661   7.890   9.371 -0.2814  0.1354 -0.1185
 1294ERGO    C117117  12.780   7.959   9.016 -0.0322 -0.0238 -0.0680
 1294ERGO    C217118  12.722   8.110   8.819  0.0411  0.0822  0.1317
 1295ERGO   ROH17119   8.752   3.548   9.367  0.3015  0.2588 -0.2138
 1295ERGO    R117120   8.855   3.589   9.107  0.1858  0.1234 -0.2817
 1295ERGO    R217121   8.870   3.386   8.919  0.1571  0.0135 -0.1610
 1295ERGO    R317122   8.731   3.561   8.766  0.0552 -0.1158 -0.2189
 1295ERGO    R417123   8.879   3.396   8.574  0.4234  0.1102 -0.1536
 1295ERGO    R517124   8.879   3.614   8.585  0.1424  0.1173 -0.0888
 1295ERGO    C117125   8.753   3.567   8.229  0.4827  0.0452 -0.2036
 1295ERGO    C217126   8.650   3.666   8.000 -0.3108 -0.3487 -0.3708
 1296ERGO   ROH17127   0.303  10.255  10.378  0.1404  0.1730  0.0153
 1296ERGO    R117128   0.203  10.176  10.125  0.1065  0.0833  0.0570
 1296ERGO    R217129   0.157  10.356   9.921 -0.0473  0.0267  0.0468
 1296ERGO    R317130   0.318  10.188   9.780 -0.0037  0.0901  0.0183
 1296ERGO    R417131   0.152  10.318   9.577 -0.0464  0.0906  0.0389
 1296ERGO    R517132   0.178  10.104   9.605  0.0088  0.0859  0.0040
 1296ERGO    C117133   0.299  10.137   9.245 -0.0049  0.1874  0.0077
 1296ERGO    C217134   0.119  10.139   8.878 -0.3210 -0.0381  0.3847
 1297ERGO   ROH17135   2.090  10.435   9.890 -0.0016  0.0122 -0.0552
 1297ERGO    R117136   2.188  10.472   9.627  0.0263 -0.0600 -0.0548
 1297ERGO    R217137   2.141  10.290   9.424 -0.0198 -0.0751 -0.0274
 1297ERGO    R317138   2.043  10.509   9.295  0.0597 -0.0645 -0.0708
 1297ERGO    R417139   2.111  10.319   9.081  0.1750 -0.0623 -0.0447
 1297ERGO    R517140   2.178  10.526   9.098  0.1745 -0.0622  0.0040
 1297ERGO    C117141   2.002  10.541   8.760  0.3632 -0.0450 -0.0955
 1297ERGO    C217142   1.895  10.516   8.472 -0.0357  0.0384  0.1353
 1298ERGO   ROH17143  15.198  13.380   9.597 -0.1814  0.3067  0.0128
 1298ERGO    R117144  15.244  13.500   9.345 -0.2226  0.2957  0.0000
 1298ERGO    R217145  15.455  13.427   9.182 -0.1037  0.4590  0.0762
 1298ERGO    R317146  15.257  13.390   8.999 -0.0182  0.2304  0.0279
 1298ERGO    R417147  15.494  13.455   8.840  0.0158  0.1827  0.0650
 1298ERGO    R517148  15.300  13.554   8.830 -0.0163  0.1028 -0.0957
 1298ERGO    C117149  15.332  13.436   8.468  0.1656 -0.1928  0.0130
 1298ERGO    C217150  15.479  13.390   8.140 -0.1267  0.0566  0.0584
 1299ERGO   ROH17151  13.054   6.991  10.333  0.0066 -0.1222  0.0568
 1299ERGO    R117152  12.977   7.023  10.063 -0.0704 -0.0626  0.0848
 1299ERGO    R217153  13.107   7.195   9.891 -0.2126  0.0939  0.1215
 1299ERGO    R317154  13.129   6.972   9.736 -0.1015  0.1651  0.0348
 1299ERGO    R417155  13.174   7.197   9.552  0.0063  0.2373  0.1640
 1299ERGO    R517156  13.028   7.036   9.528  0.0338  0.2446 -0.0020
 1299ERGO    C117157  13.233   6.989   9.209  0.2383  0.3875  0.1074
 1299ERGO    C217158  13.205   7.084   8.859  0.0624 -0.0713 -0.2546
 1300ERGO   ROH17159   4.483   8.396   6.457  0.3390  0.0767  0.0761
 1300ERGO    R117160   4.610   8.409   6.709 -0.0201  0.0877  0.2623
 1300ERGO    R217161   4.468   8.425   6.946 -0.3733 -0.2654  0.0895
 1300ERGO    R317162   4.616   8.206   7.012 -0.1576 -0.1075  0.1362
 1300ERGO    R417163   4.486   8.287   7.263 -0.3588 -0.2751  0.0839
 1300ERGO    R517164   4.700   8.256   7.231 -0.3092 -0.0340  0.1768
 1300ERGO    C117165   4.636   8.002   7.509 -0.1479 -0.1325  0.1246
 1300ERGO    C217166   4.619   7.862   7.750 -0.0523  0.0920  0.1935
 1301ERGO   ROH17167  17.652   1.816   6.509 -0.2301  0.1706 -0.3137
 1301ERGO    R117168  17.643   1.836   6.791 -0.1436  0.0986 -0.3052
 1301ERGO    R217169  17.432   1.954   6.925 -0.1100  0.0527 -0.2090
 1301ERGO    R317170  17.425   1.717   7.057 -0.0541  0.0180 -0.2681
 1301ERGO    R417171  17.281   1.902   7.232 -0.0317 -0.0445 -0.1863
 1301ERGO    R517172  17.449   1.776   7.288 -0.0061 -0.0408 -0.2586
 1301ERGO    C117173  17.186   1.649   7.534  0.0663 -0.1335 -0.2285
 1301ERGO    C217174  16.994   1.711   7.901  0.1025  0.0985  0.2117
 1302ERGO   ROH17175  16.672  11.162   6.118  0.2339 -0.2286 -0.1028
 1302ERGO    R117176  16.556  11.142   6.376  0.2087 -0.0013 -0.0906
 1302ERGO    R217177  16.478  10.900   6.486 -0.1967  0.1236 -0.0436
 1302ERGO    R317178  16.639  10.979   6.690 -0.0382 -0.1048 -0.0828
 1302ERGO    R417179  16.426  10.828   6.820 -0.1767  0.1825 -0.0307
 1302ERGO    R517180  16.490  11.030   6.869  0.0987  0.0806 -0.0357
 1302ERGO    C117181  16.547  10.860   7.206 -0.0164  0.0025 -0.0600
 1302ERGO    C217182  16.455  10.632   7.327  0.1647 -0.2795 -0.2214
 1303ERGO   ROH17183   4.455   9.187   9.702  0.2554 -0.1671  0.0528
 1303ERGO    R117184   4.404   9.161   9.425  0.0950 -0.2154  0.0862
 1303ERGO    R217185   4.589   9.232   9.232 -0.1607  0.1284 -0.0422
 1303ERGO    R317186   4.548   8.977   9.146  0.2077  0.0636 -0.0435
 1303ERGO    R417187   4.527   9.142   8.904 -0.1774  0.0605 -0.0209
 1303ERGO    R517188   4.380   8.999   8.976  0.0853 -0.1894  0.0398
 1303ERGO    C117189   4.453   8.851   8.632  0.1587 -0.0400 -0.0096
 1303ERGO    C217190   4.517   8.718   8.229 -0.0354  0.1708  0.1116
 1304ERGO   ROH17191   3.800  13.366   9.720  0.0493  0.1985 -0.1471
 1304ERGO    R117192   3.657  13.293   9.487  0.0449 -0.1490 -0.0386
 1304ERGO    R217193   3.639  13.457   9.265 -0.4646 -0.2145 -0.0455
 1304ERGO    R317194   3.734  13.238   9.136 -0.0753 -0.0325 -0.0876
 1304ERGO    R417195   3.625  13.408   8.924 -0.2579 -0.0962 -0.0739
 1304ERGO    R517196   3.576  13.199   8.960  0.0383 -0.2015 -0.1678
 1304ERGO    C117197   3.707  13.173   8.603  0.2279  0.1435 -0.1300
 1304ERGO    C217198   3.774  13.167   8.312 -0.0524 -0.1267  0.3867
 1305W        W17199   5.248  11.262  11.156 -0.6476  0.1413  0.0337
 1306W        W17200   3.382   7.634   1.169 -0.0252  0.0196  0.0758
 1307W        W17201   0.843  10.057   1.436  0.1724 -0.1436 -0.0509
 1308W        W17202   0.445  15.877   1.807 -0.2816 -0.1138  0.0664
 1309W        W17203  10.876  15.583  10.831  0.0151  0.0782 -0.0504
 1310W        W17204   6.058   2.451  15.686  0.2164 -0.0229 -0.1888
 1311W        W17205   7.186   3.600   3.058 -0.3166 -0.0004  0.1239
 1312W        W17206   3.750   6.369   1.648  0.2472 -0.0005 -0.0144
 1313W        W17207   9.188   1.537   3.324 -0.0448  0.1225 -0.4922
 1314W        W17208  10.872   4.514   3.218  0.1384 -0.4192  0.1789
 1315W        W17209   6.409   5.699   0.491 -0.1162 -0.1495  0.1786
 1316W        W17210   9.659   5.898  11.036  0.2585  0.1479 -0.2125
 1317W        W17211   5.396  17.417  12.041  0.2167  0.0015 -0.0764
 1318W        W17212   6.857   9.751   1.155 -0.2065  0.1062 -0.1687
 1319W        W17213   7.804  10.113  14.411 -0.0944  0.1537 -0.1814
 1320W        W17214  14.551   3.047  11.682  0.1696 -0.1606 -0.3437
 1321W        W17215  16.378   1.983   0.136 -0.2797 -0.1598  0.0921
 1322W        W17216  12.673   2.839   6.229 -0.0100  0.0077  0.2445
 1323W        W17217   3.496  17.124  15.795 -0.4706  0.0969  0.0422
 1324W        W17218   8.093   6.021  13.708 -0.0804  0.2253 -0.0716
 1325W        W17219  16.460  12.651   0.518 -0.3045  0.1887 -0.0885
 1326W        W17220  12.255   2.964   1.345  0.2096  0.1221  0.0103
 1327W        W17221   0.041  16.252   4.194  0.3441  0.0904  0.0972
 1328W        W17222  10.063   5.975  13.199  0.0990 -0.2320  0.0916
 1329W        W17223  10.250   7.408   4.258 -0.0707 -0.0130 -0.0105
 1330W        W17224  11.496  13.553  12.558 -0.3560  0.0955  0.0602
 1331W        W17225  10.931   4.200  11.806 -0.1358  0.2111 -0.1423
 1332W        W17226   4.092  16.592  16.139  0.2797 -0.0495  0.1556
 1333W        W17227   5.817   7.630  15.900 -0.4735  0.1448 -0.1626
 1334W        W17228  14.751   7.564   6.272 -0.1420  0.1923 -0.2087
 1335W        W17229  17.689  12.865   0.692  0.1434 -0.1206  0.0110
 1336W        W17230  12.182   1.668   2.472  0.1467 -0.1183  0.0905
 1337W        W17231  13.177   6.145  14.565  0.2947 -0.0663 -0.1039
 1338W        W17232   2.392  17.620  13.457 -0.2124 -0.0853 -0.3705
 1339W        W17233   5.162  16.879  14.757  0.0664 -0.3744  0.1513
 1340W        W17234   1.904  14.231   2.760  0.0677  0.0136  0.2770
 1341W        W17235   2.850   3.606   1.350 -0.1276  0.1013 -0.0936
 1342W        W17236   5.040   1.162   4.271 -0.0013 -0.0613 -0.1123
 1343W        W17237  12.199   4.366   3.036  0.0444 -0.0366 -0.1492
 1344W        W17238   1.135   9.925  11.889  0.1575 -0.0773  0.3542
 1345W        W17239   1.934   0.133  13.316 -0.1801 -0.2691 -0.1365
 1346W        W17240   4.558   5.257   5.780  0.0593 -0.1490 -0.0399
 1347W        W17241  15.732  16.337   1.011  0.0059  0.1800  0.0999
 1348W        W17242   1.863  10.460   2.329  0.2181 -0.1384 -0.1741
 1349W        W17243  15.430  17.995   0.925 -0.2384  0.2166  0.0301
 1350W        W17244   2.349   1.461   4.823  0.0062 -0.1536  0.2108
 1351W        W17245   4.154   9.342   5.491 -0.0068  0.3249  0.2510
 1352W        W17246   1.553  11.356   3.786  0.3067 -0.2794 -0.0490
 1353W        W17247   1.475  16.790  10.795 -0.2901  0.1022  0.2598
 1354W        W17248   2.906  18.199  13.017  0.2394  0.1356  0.1731
 1355W        W17249  10.224   5.408   2.016 -0.0189  0.1106 -0.1461
 1356W        W17250  13.939   4.524  13.279  0.0431 -0.0836 -0.0396
 1357W        W17251  16.529   1.542   6.709 -0.0947 -0.0070  0.2435
 1358W        W17252   2.814   4.555   3.317  0.3034  0.0640 -0.1370
 1359W        W17253  16.829   7.753  13.105  0.0726 -0.0525 -0.2656
 1360W        W17254   8.530   1.473   1.203  0.5196 -0.0654  0.3363
 1361W        W17255   2.159  17.496  10.857  0.2611 -0.4709 -0.2460
 1362W        W17256   4.658   2.531   0.444  0.0328 -0.2568  0.0945
 1363W        W17257   8.114   8.441   1.558 -0.0804 -0.2878  0.0332
 1364W        W17258   5.942   6.874  14.776  0.1509  0.3125  0.1012
 1365W        W17259  15.702  12.039   0.663  0.1032  0.1337  0.1118
 1366W        W17260  15.216  14.177   1.249 -0.0772  0.5239  0.0734
 1367W        W17261  10.246  11.066  10.017 -0.1706  0.2459 -0.3041
 1368W        W17262  14.940   7.846  14.003  0.2649  0.0856  0.0253
 1369W        W17263  10.862  16.617  14.596  0.1462 -0.5275 -0.1967
 1370W        W17264   6.109  16.126   3.829  0.1849 -0.1648  0.3060
 1371W        W17265   0.568   9.817   1.023 -0.3103  0.0132  0.0258
 1372W        W17266   2.904   3.618  15.371 -0.1622  0.0747 -0.1394
 1373W        W17267   5.710  17.581   2.309 -0.1374 -0.1425  0.4777
 1374W        W17268   2.858   9.539  13.281  0.0435  0.0921  0.0872
 1375W        W17269   0.672   3.891  13.414  0.2278 -0.1834  0.3118
 1376W        W17270  10.229  10.312   1.592 -0.0301  0.2285  0.2005
 1377W        W17271   8.360  12.288   0.617  0.1184  0.1018  0.0213
 1378W        W17272  15.218  14.392   4.920  0.0561  0.2079 -0.0137
 1379W        W17273   7.506  17.845  14.621 -0.0250 -0.1389  0.1793
 1380W        W17274  14.541   3.330   0.456 -0.3517 -0.1922 -0.3301
 1381W        W17275   5.448  14.774   1.401 -0.0749  0.1351 -0.2429
 1382W        W17276  12.185  10.567   4.552  0.1083 -0.2684 -0.0225
 1383W        W17277  11.339   3.117   0.483  0.0132 -0.0583 -0.1615
 1384W        W17278   1.288  16.951  13.940 -0.1602  0.1283  0.0948
 1385W        W17279  13.034   2.545   5.530  0.0721 -0.0173  0.1422
 1386W        W17280   4.182   2.819  13.009 -0.0671 -0.1951  0.2546
 1387W        W17281   5.972   6.489  10.347 -0.1668 -0.0274 -0.0389
 1388W        W17282   0.355  12.654  15.033 -0.0408 -0.0392  0.0202
 1389W        W17283   1.119  17.813  14.188  0.0475  0.0607 -0.1605
 1390W        W17284   0.940   7.161  12.549  0.0441  0.0627 -0.0069
 1391W        W17285  11.698  12.708  14.822 -0.2144 -0.1727  0.1654
 1392W        W17286  12.583   6.258   3.413  0.0453 -0.1338  0.3434
 1393W        W17287  17.677   8.987   1.159  0.1454  0.0919 -0.2770
 1394W        W17288   3.164   4.396   2.994  0.2444 -0.1296 -0.1433
 1395W        W17289   8.990  16.976   2.580  0.0257 -0.3086  0.0969
 1396W        W17290   6.804  13.112  13.267 -0.1159 -0.2510  0.0941
 1397W        W17291   8.828  10.979  13.700  0.1942 -0.0895  0.1753
 1398W        W17292   6.266  13.374   2.627 -0.1762  0.0892  0.3570
 1399W        W17293  13.847   1.902  14.758  0.0147  0.1112  0.4085
 1400W        W17294   4.101   0.421  11.792 -0.0134 -0.0932 -0.0575
 1401W        W17295  14.134   6.666   5.180 -0.1686 -0.1552  0.1827
 1402W        W17296   9.082   0.879   4.998 -0.3836 -0.1623 -0.3297
 1403W        W17297   5.978  14.949  13.670  0.3426  0.0380 -0.1790
 1404W        W17298  15.154  16.333   3.077  0.2019  0.1299  0.0047
 1405W        W17299  14.163   2.633  15.690 -0.0843 -0.3780 -0.0324
 1406W        W17300   2.968   2.072   2.753  0.0827  0.2541  0.0967
 1407W        W17301   8.748  12.505  11.886 -0.0272 -0.1730  0.2441
 1408W        W17302   0.802  15.532   5.352 -0.0239 -0.0340 -0.1970
 1409W        W17303   8.607   0.342  12.098 -0.0644 -0.1139 -0.1666
 1410W        W17304  13.827  16.213  15.710 -0.1419 -0.0559 -0.1407
 1411W        W17305   2.152   5.181  14.825 -0.0626  0.1252  0.1506
 1412W        W17306   1.054  14.702   5.755  0.0237  0.4698  0.3250
 1413W        W17307  17.327   0.984   1.145  0.0185 -0.1600  0.0804
 1414W        W17308  17.415   7.047   2.528  0.2912 -0.3993 -0.0270
 1415W        W17309   7.256   7.379  11.561 -0.0625  0.0128  0.1598
 1416W        W17310  17.525  12.525   5.041 -0.0904  0.1304 -0.0283
 1417W        W17311  12.554   3.943  13.951 -0.1666  0.0372 -0.2251
 1418W        W17312  14.816  17.718  11.697 -0.3098 -0.0459  0.0424
 1419W        W17313   9.334   6.066  13.786 -0.1030 -0.0295  0.2928
 1420W        W17314   0.954  14.163  12.269 -0.1272 -0.2162  0.0680
 1421W        W17315  16.111  16.501   0.149 -0.1547 -0.0918  0.0913
 1422W        W17316  13.968  11.756  14.753  0.0091  0.0747 -0.0873
 1423W        W17317  14.396  15.448   4.386  0.0012 -0.1852  0.0920
 1424W        W17318   6.523  11.177  15.378 -0.0456  0.1660  0.3606
 1425W        W17319   4.734  12.078   5.416  0.1212 -0.1459 -0.2388
 1426W        W17320   1.389   8.759   3.205 -0.4281  0.1715 -0.4088
 1427W        W17321  14.929   8.871   6.576  0.0139  0.0581  0.1182
 1428W        W17322   8.592   8.707   1.207 -0.2341 -0.2468  0.1444
 1429W        W17323   2.289  12.135  12.596  0.0446 -0.0937  0.0844
 1430W        W17324   4.532  10.753  12.077  0.3022  0.0426 -0.1639
 1431W        W17325  15.261   7.844   1.465  0.1855  0.0557  0.2043
 1432W        W17326   3.133   3.153   5.801  0.1141  0.0786 -0.0314
 1433W        W17327   6.690   3.617  13.937  0.0086 -0.3542 -0.0120
 1434W        W17328   9.825   4.005   2.135  0.2566 -0.0268 -0.2139
 1435W        W17329   6.362   9.796  14.924  0.2118 -0.1246 -0.5388
 1436W        W17330  12.765  17.186   3.197 -0.1433  0.0430  0.1199
 1437W        W17331   2.974  17.180  11.900 -0.1700  0.2269 -0.2083
 1438W        W17332  12.142  14.239  12.657  0.4013  0.0395 -0.0577
 1439W        W17333  18.192   2.100   3.122 -0.0138  0.1200  0.2827
 1440W        W17334  15.974   2.148   4.404 -0.2490 -0.0186 -0.2866
 1441W        W17335  13.219   8.441   3.177 -0.0869 -0.4521 -0.1195
 1442W        W17336  13.312  14.408   4.786 -0.2670  0.0237 -0.0077
 1443W        W17337   6.452   3.866   4.356 -0.1193  0.4373 -0.0939
 1444W        W17338   6.820  15.331   2.074  0.0679 -0.0408 -0.0910
 1445W        W17339   3.449   6.187   2.785  0.3695 -0.2042 -0.1836
 1446W        W17340   1.616  12.979  12.752  0.2524  0.0672  0.1215
 1447W        W17341  15.333   6.268   3.874  0.1742 -0.1856 -0.0098
 1448W        W17342  11.011  17.546  15.944 -0.2552  0.3324  0.3624
 1449W        W17343   8.319   2.833  10.436 -0.0933  0.0155 -0.0059
 1450W        W17344   0.746   1.972  15.904  0.2064  0.0288  0.0037
 1451W        W17345  12.855   4.277   3.805 -0.1000  0.0243  0.0174
 1452W        W17346   4.474   7.590   2.380 -0.2147  0.1462  0.0665
 1453W        W17347   4.118   2.639  15.355  0.0125 -0.0581  0.0501
 1454W        W17348  10.717   1.334  12.077  0.0293 -0.2728 -0.0676
 1455W        W17349   0.586   6.139  11.814  0.0371  0.1573  0.0826
 1456W        W17350  17.543  16.384   2.837  0.3207 -0.0424 -0.3198
 1457W        W17351  12.466  12.593   1.136  0.0881  0.1340  0.1916
 1458W        W17352   4.956  13.533   1.107 -0.1699  0.3190 -0.3053
 1459W        W17353   5.852   4.584  14.563  0.0434  0.3287 -0.0334
 1460W        W17354   1.674  13.893  12.952 -0.1599  0.0257 -0.0852
 1461W        W17355   4.590   8.188  14.086 -0.0805  0.2101 -0.2621
 1462W        W17356  16.524  14.205  13.741  0.0326 -0.3288 -0.1363
 1463W        W17357   3.914  13.822   3.832  0.1041  0.1241 -0.2166
 1464W        W17358   2.941  14.973  13.920  0.2343  0.0309  0.1099
 1465W        W17359   0.925   5.482   3.705 -0.0804 -0.1373  0.2618
 1466W        W17360  15.487   8.592   2.347 -0.0462  0.1256 -0.2640
 1467W        W17361   3.475  18.384   0.299 -0.1071 -0.1008  0.2296
 1468W        W17362  15.205   4.209  15.243  0.0199 -0.1626  0.1524
 1469W        W17363   5.795  12.735  15.167  0.2154  0.0809  0.1020
 1470W        W17364   1.835  17.630  12.794 -0.2550 -0.1300 -0.0567
 1471W        W17365   7.049  13.838   9.892 -0.2688 -0.3026  0.1113
 1472W        W17366   4.856  10.064   2.476  0.4478  0.2437 -0.0780
 1473W        W17367  14.363   9.232  15.932  0.3817  0.2232  0.1049
 1474W        W17368  16.701   8.214  13.791  0.0920 -0.0629 -0.0669
 1475W        W17369  15.208  16.107  12.007  0.0234  0.1483 -0.1119
 1476W        W17370  15.627   8.371  15.715 -0.1660 -0.2095 -0.0030
 1477W        W17371   4.005   5.804   0.979  0.1284  0.1636  0.3155
 1478W        W17372   2.494   2.426   4.645 -0.0592  0.1274  0.2209
 1479W        W17373  13.776   0.890   1.331 -0.1406  0.0038  0.0565
 1480W        W17374   7.990   2.285   3.048  0.2128 -0.1538  0.0061
 1481W        W17375  11.699  10.469   4.469  0.0730  0.1751  0.1473
 1482W        W17376  17.198  13.175  14.267 -0.1868 -0.1345 -0.2456
 1483W        W17377   2.111  10.868   1.581 -0.0969 -0.3321  0.4569
 1484W        W17378   2.082   4.547  15.789 -0.0752 -0.2286  0.1051
 1485W        W17379  13.209  10.395  11.094 -0.3279 -0.2153  0.0321
 1486W        W17380   2.880   4.080  12.379  0.2584 -0.0517  0.1484
 1487W        W17381   1.158  13.443   3.299 -0.1517 -0.3100 -0.1835
 1488W        W17382   9.921   3.012   4.937 -0.1144  0.4267 -0.0374
 1489W        W17383  13.211  15.564  14.741  0.1490 -0.0010 -0.0313
 1490W        W17384   3.850  17.591  11.472  0.1299  0.2922 -0.0212
 1491W        W17385   6.621   8.922   4.163  0.0022 -0.0194  0.0276
 1492W        W17386  13.609   0.584  14.808  0.1198  0.1710 -0.1829
 1493W        W17387  17.740   3.928  14.906 -0.1842 -0.0504 -0.3830
 1494W        W17388  11.356   4.006   0.475  0.1519 -0.0567  0.0741
 1495W        W17389  11.372   2.728   4.706  0.5883  0.2785 -0.2045
 1496W        W17390  10.331  10.555   1.040  0.0197 -0.2285 -0.3031
 1497W        W17391   6.585   6.164  15.718  0.0080  0.0698 -0.1409
 1498W        W17392   9.442   5.730  15.507 -0.3397 -0.1330 -0.2165
 1499W        W17393   9.929   6.622   2.162  0.1536 -0.0397 -0.3267
 1500W        W17394  14.921   1.209   4.926  0.0140  0.1478 -0.0745
 1501W        W17395   1.184  12.166   0.920  0.0793  0.1964  0.0218
 1502W        W17396   7.635   4.757   2.277 -0.2189 -0.1015 -0.0294
 1503W        W17397   9.194  11.746   3.720 -0.1398  0.1390 -0.0290
 1504W        W17398  15.279   9.034  12.368  0.2412  0.0544 -0.0494
 1505W        W17399  11.940   9.267   2.819 -0.1057  0.2477 -0.1485
 1506W        W17400   1.945   6.471   1.676  0.0595 -0.0826  0.4057
 1507W        W17401  15.961   8.405  16.129 -0.1448 -0.1402 -0.1828
 1508W        W17402   1.598  12.347   2.867 -0.1332 -0.0088  0.0128
 1509W        W17403   6.110   8.897   0.996 -0.4453  0.3932  0.0318
 1510W        W17404   7.327   8.717  11.716 -0.1854 -0.0856 -0.1377
 1511W        W17405   5.319   8.752   5.693 -0.0439  0.3148 -0.1578
 1512W        W17406   1.779  13.397  12.994 -0.4039  0.3622 -0.2320
 1513W        W17407  16.144   6.106   1.860  0.1835 -0.0428  0.0649
 1514W        W17408   2.230   0.193   2.267  0.0346  0.1370  0.2825
 1515W        W17409   1.872  17.816  13.733 -0.1120  0.0153 -0.1023
 1516W        W17410   6.240   7.197  11.575 -0.0449  0.2065  0.0909
 1517W        W17411   4.259   6.067  13.879 -0.1080 -0.0912 -0.0819
 1518W        W17412  18.072  13.541   0.125  0.2631  0.3059 -0.1550
 1519W        W17413   6.267  10.395  14.892  0.0348 -0.0773  0.0361
 1520W        W17414   3.295   6.476   1.762  0.1759  0.2446  0.1297
 1521W        W17415   6.820   0.335  15.302 -0.0499 -0.0339  0.1548
 1522W        W17416  17.620  14.062  14.514  0.1961 -0.1149  0.1139
 1523W        W17417   1.077   2.796  13.315  0.3716  0.1652 -0.1959
 1524W        W17418  14.056  11.008  15.511  0.1503 -0.0444 -0.0551
 1525W        W17419  17.640   7.506   5.659  0.0184  0.2475 -0.0796
 1526W        W17420  12.124  18.396   2.906 -0.1399 -0.0065 -0.0618
 1527W        W17421  14.145   0.051   4.826  0.0842  0.0687  0.0445
 1528W        W17422   8.765   2.605  14.863 -0.4899  0.0463  0.3872
 1529W        W17423  12.708  15.516   3.855 -0.0119  0.2861 -0.2096
 1530W        W17424  13.772  15.561  11.651  0.0337 -0.1277  0.1425
 1531W        W17425  17.611  14.836   2.590 -0.0599  0.2225 -0.0416
 1532W        W17426   1.082  13.012   2.183 -0.2748 -0.3433 -0.1905
 1533W        W17427   7.762   3.530  16.117  0.0483  0.0123  0.0449
 1534W        W17428  16.129   7.088  15.341  0.3044  0.0650 -0.1642
 1535W        W17429  14.280  17.204  13.171  0.2076  0.1158 -0.1085
 1536W        W17430  17.401   0.985   4.836 -0.0184 -0.1572 -0.1971
 1537W        W17431  10.436   0.988  12.899  0.2040  0.0314 -0.2149
 1538W        W17432   5.227  13.728  11.564  0.2225  0.1102 -0.0101
 1539W        W17433  11.088   0.730   3.018  0.0333 -0.4426  0.2585
 1540W        W17434  10.399  17.831   3.435  0.2190 -0.2153  0.0514
 1541W        W17435   0.698  17.977  11.862  0.0143 -0.0234  0.2271
 1542W        W17436  11.954   9.367   0.045 -0.2011 -0.2212  0.0255
 1543W        W17437  14.431   8.346  14.827  0.0067  0.3091 -0.2871
 1544W        W17438   5.426   6.552  11.707  0.1640 -0.3573 -0.0372
 1545W        W17439  10.150   2.497   2.698 -0.0265 -0.1358  0.2061
 1546W        W17440  15.838   4.544   5.271 -0.0918  0.3209  0.2237
 1547W        W17441   3.245   3.741  13.658  0.1288  0.0726 -0.1121
 1548W        W17442   3.564   2.661  11.290  0.1217  0.2369 -0.1409
 1549W        W17443  14.192  13.407  12.539  0.2011  0.0250  0.1018
 1550W        W17444   3.102   9.503   0.089 -0.1080  0.0307 -0.1675
 1551W        W17445   3.861   5.510  13.375 -0.0831 -0.0110 -0.4667
 1552W        W17446   7.893   1.508  14.750 -0.0379 -0.1339  0.0491
 1553W        W17447  11.321   5.969  11.809  0.3195  0.1699 -0.1159
 1554W        W17448  14.566   5.774   4.913  0.0616  0.1118 -0.2397
 1555W        W17449   1.115   4.558   4.154 -0.1052  0.3777  0.2424
 1556W        W17450   4.171  13.379   0.763 -0.1213 -0.2117  0.0856
 1557W        W17451   3.798  10.737  12.539  0.2518  0.0479 -0.2781
 1558W        W17452  16.964   2.570  13.162 -0.2579  0.3765 -0.0186
 1559W        W17453  18.389   4.524  12.570  0.1163  0.3095 -0.1517
 1560W        W17454  11.913   5.870   0.834  0.1328  0.2835 -0.1952
 1561W        W17455   5.060  10.857   0.743  0.3032  0.1129  0.0464
 1562W        W17456   5.580   6.744  11.160 -0.1609  0.2811 -0.3004
 1563W        W17457   4.893  11.029  12.247  0.0555 -0.0734 -0.1207
 1564W        W17458   3.115  14.512  13.695  0.0038 -0.0655  0.1729
 1565W        W17459  10.308  11.719   2.263  0.2583  0.0698 -0.0221
 1566W        W17460   8.211   4.094   2.943 -0.1349 -0.0229  0.1158
 1567W        W17461   9.028   3.635  13.515  0.0081 -0.2000 -0.0059
 1568W        W17462   4.308  18.438  11.956  0.1493 -0.2028 -0.0670
 1569W        W17463  15.216  16.128   0.864 -0.5615 -0.2088  0.2286
 1570W        W17464  16.733  18.002   2.672 -0.3315 -0.2253  0.0229
 1571W        W17465  10.934   5.723  12.134  0.2749  0.0400 -0.1801
 1572W        W17466   1.802   0.222   3.962 -0.2211  0.2066  0.2548
 1573W        W17467   7.374  11.334  15.480  0.0716 -0.3439 -0.0268
 1574W        W17468   9.533   4.058   2.586  0.0056 -0.0830  0.1962
 1575W        W17469   5.703  14.964  15.015  0.0713 -0.2184 -0.1171
 1576W        W17470  17.158   8.503  14.170 -0.1816  0.1434 -0.0508
 1577W        W17471   4.768   7.712   2.797  0.1039 -0.0875  0.0464
 1578W        W17472   5.594  13.081  13.748 -0.0960  0.0986  0.0187
 1579W        W17473   8.659   9.715   3.156  0.0802 -0.2145 -0.0719
 1580W        W17474   5.870  13.538  10.801  0.1193  0.0732 -0.0490
 1581W        W17475  10.036   6.222  12.247  0.1070  0.0365 -0.0002
 1582W        W17476  16.357  16.061   3.512 -0.0064 -0.0004 -0.0508
 1583W        W17477  16.808  16.233  14.992  0.0891  0.0776  0.1024
 1584W        W17478  17.285   8.074  14.435 -0.0309  0.4338  0.0297
 1585W        W17479   4.352   9.217  13.166 -0.0988  0.2219 -0.2123
 1586W        W17480  17.383   5.013   0.626 -0.2872 -0.0018 -0.0462
 1587W        W17481  14.853  16.317  15.404  0.0017 -0.3881  0.1008
 1588W        W17482  12.745   8.835   3.133  0.1149  0.3081 -0.2270
 1589W        W17483  12.805   2.360   4.560  0.0972  0.0193  0.1588
 1590W        W17484   4.163  12.411   0.233  0.3162  0.2840  0.1671
 1591W        W17485   7.189  15.921   1.659  0.1076 -0.2866  0.1230
 1592W        W17486  10.868   6.074  13.905  0.2009  0.2034 -0.1335
 1593W        W17487   9.226   3.760  13.104 -0.1728  0.2819 -0.0453
 1594W        W17488  13.247  12.146  13.526 -0.0590  0.3280  0.0935
 1595W        W17489   2.331  18.059   3.293 -0.0739  0.0044 -0.3664
 1596W        W17490   5.502   7.660   0.983  0.0597 -0.2897  0.0189
 1597W        W17491   9.158  16.295  15.829  0.0088  0.5167  0.2112
 1598W        W17492  16.611  17.104  12.575 -0.0079  0.2248  0.3624
 1599W        W17493  14.580  11.573  15.525 -0.1734 -0.2208 -0.2334
 1600W        W17494  15.724   8.302   5.418  0.1678 -0.0244  0.0922
 1601W        W17495  10.505   9.797  14.991  0.1803  0.1566  0.3304
 1602W        W17496   4.172   7.068   6.281  0.0170 -0.0508 -0.2260
 1603W        W17497   3.565   8.684  16.018 -0.1605 -0.2719 -0.0119
 1604W        W17498  11.622   3.531   2.616 -0.2132  0.1814 -0.0107
 1605W        W17499   9.415  13.690  16.018  0.0472 -0.0149 -0.1092
 1606W        W17500   3.206  14.851   0.395 -0.1463 -0.0092  0.1155
 1607W        W17501  12.864  11.009   2.017  0.0908 -0.0525  0.0777
 1608W        W17502   0.444  14.363  11.117 -0.3606  0.2861  0.2823
 1609W        W17503   5.303   3.956   2.897 -0.0365  0.1425 -0.0170
 1610W        W17504   9.671   1.609   4.627  0.0058 -0.2371 -0.2465
 1611W        W17505   9.244   1.940  12.325  0.2065 -0.0855 -0.3179
 1612W        W17506  16.197   0.647  12.130 -0.1431 -0.0550  0.1047
 1613W        W17507   7.873   0.493   1.456  0.0589 -0.0876  0.2121
 1614W        W17508  16.916  17.488   1.957  0.4275  0.0989  0.0865
 1615W        W17509  16.136   4.597   3.101 -0.0589  0.0865 -0.0347
 1616W        W17510   8.348  14.639  13.478 -0.2542  0.1164  0.0376
 1617W        W17511  12.892   0.259  14.422 -0.0681 -0.2965 -0.1163
 1618W        W17512   9.018   9.602   0.504 -0.3458 -0.0597 -0.4246
 1619W        W17513   9.016  13.254  11.058 -0.0754 -0.0994 -0.1708
 1620W        W17514   0.812   1.283  11.767  0.0250 -0.0352 -0.0008
 1621W        W17515   7.737   7.348   4.671 -0.2000 -0.2974 -0.1097
 1622W        W17516   0.220  12.551  14.496 -0.1896  0.0964 -0.0567
 1623W        W17517   9.027   2.145  10.969  0.0235 -0.1044 -0.2244
 1624W        W17518  10.201   3.068   1.294 -0.0129 -0.2232 -0.4384
 1625W        W17519   1.942  10.098   5.223  0.2978  0.2124 -0.1439
 1626W        W17520  16.591   0.360   1.243 -0.1411  0.1918  0.0988
 1627W        W17521   7.787   1.873   3.317 -0.1250 -0.1547 -0.2212
 1628W        W17522  14.211  15.917   4.281  0.0780  0.2254  0.0927
 1629W        W17523   7.858  18.018   0.264  0.0880  0.0040  0.0791
 1630W        W17524  14.465  12.914  10.607  0.2555 -0.0782  0.0398
 1631W        W17525  10.763   9.924   1.365  0.2080  0.0700 -0.4408
 1632W        W17526  10.131  15.998   0.115  0.0209  0.1316  0.0639
 1633W        W17527  15.321  10.471   2.215  0.2279 -0.1845 -0.0300
 1634W        W17528  16.687  14.965   1.101 -0.0742 -0.1157 -0.1119
 1635W        W17529  12.433  13.944  11.233  0.3552  0.1466 -0.3567
 1636W        W17530  16.665  15.886   1.818 -0.2749 -0.2305  0.0208
 1637W        W17531   9.825   0.133  11.448  0.0626  0.0813 -0.0170
 1638W        W17532   1.442   0.252   2.994 -0.0367  0.0032 -0.0349
 1639W        W17533  16.996  13.813  14.979 -0.0583  0.0142  0.2675
 1640W        W17534  10.210  13.748   0.290  0.0567 -0.0113  0.0300
 1641W        W17535   8.083   4.477  15.846 -0.1931 -0.0867  0.3976
 1642W        W17536  14.265  13.965  13.823  0.0189  0.3441  0.0799
 1643W        W17537  15.017  17.174   5.496 -0.0800 -0.2199 -0.4394
 1644W        W17538  11.193   9.876   4.571 -0.4627  0.1204  0.0513
 1645W        W17539  11.580  16.602   4.954  0.1035 -0.0503 -0.2345
 1646W        W17540  16.254   3.297  10.595  0.2293 -0.1534  0.1015
 1647W        W17541   5.627  12.031   3.185 -0.1503  0.2977  0.0439
 1648W        W17542   6.398   8.835  13.758 -0.3043 -0.5036  0.2265
 1649W        W17543  12.443  12.722  15.496  0.2354 -0.1996  0.0699
 1650W        W17544  14.783  16.967  12.326  0.1840 -0.0711 -0.1052
 1651W        W17545  18.467  14.321  15.878  0.1774 -0.3257 -0.1824
 1652W        W17546   3.776   1.213  11.808 -0.0121 -0.2803 -0.2384
 1653W        W17547   1.060   7.583  15.898  0.0749 -0.0679  0.0674
 1654W        W17548   3.864  15.177  12.457 -0.1610  0.0327 -0.1139
 1655W        W17549   5.844   2.883  12.877 -0.0231  0.1663  0.4448
 1656W        W17550  13.631  14.053  14.895  0.0545  0.0150  0.1032
 1657W        W17551   8.583   1.791   4.089 -0.0982  0.1302 -0.3123
 1658W        W17552   7.164  17.040   2.282  0.0428 -0.0588  0.3179
 1659W        W17553  11.738   4.138  12.971 -0.1728 -0.1010  0.1357
 1660W        W17554   1.250   5.141   0.547  0.2254 -0.1794  0.1206
 1661W        W17555   4.100   2.416   1.114 -0.0176 -0.0451  0.3632
 1662W        W17556   7.568  15.025   4.124  0.1825  0.0252  0.1666
 1663W        W17557   2.038   6.702   3.607  0.1343  0.0085 -0.0381
 1664W        W17558  10.225  17.252   5.145  0.0443 -0.0885 -0.2625
 1665W        W17559   1.901  17.054  13.949 -0.2738  0.1024 -0.1512
 1666W        W17560   8.233  14.014   0.537  0.0020  0.0986 -0.0951
 1667W        W17561   6.838   7.040   5.310 -0.0915 -0.4038  0.1283
 1668W        W17562   7.800  13.413   2.823 -0.3309 -0.0325 -0.0691
 1669W        W17563   9.401   9.340  11.412  0.0099  0.2617  0.2106
 1670W        W17564   8.153   8.940  11.274 -0.0265  0.2819 -0.0015
 1671W        W17565   5.960  17.553   4.421 -0.1421 -0.0552 -0.0369
 1672W        W17566   8.605   7.379  14.993  0.0534 -0.0774 -0.1387
 1673W        W17567  15.600   4.373   4.827  0.0748  0.0139  0.0742
 1674W        W17568  12.665  15.883   2.429 -0.0542 -0.2775 -0.2746
 1675W        W17569   6.121   4.781   1.663  0.2922 -0.1764 -0.0888
 1676W        W17570   2.921  13.718  12.986 -0.0467  0.2513  0.2579
 1677W        W17571   1.131  17.748   4.851 -0.1238  0.1682  0.0703
 1678W        W17572  17.746  10.380  12.287 -0.0607  0.2335 -0.2648
 1679W        W17573   6.619   4.946  12.138  0.0725  0.0912  0.3550
 1680W        W17574  12.761  14.759  13.380  0.0079 -0.3672 -0.0721
 1681W        W17575  15.936   3.136   1.831 -0.2049 -0.2527 -0.2459
 1682W        W17576   9.090  14.367   0.124 -0.2614 -0.0439  0.1270
 1683W        W17577   8.899   9.527   5.218  0.0633 -0.0907 -0.0521
 1684W        W17578  13.774  18.448   3.859 -0.1320 -0.1139 -0.3581
 1685W        W17579  12.863  14.557   0.757 -0.0574  0.0399  0.1199
 1686W        W17580  11.882  11.225  12.567 -0.2348 -0.0158 -0.1628
 1687W        W17581  14.772   5.587   2.198 -0.3308 -0.2232  0.1038
 1688W        W17582   4.842  18.098   0.151 -0.3088 -0.2340  0.0978
 1689W        W17583  15.764   5.819  13.394 -0.0494 -0.0373  0.1302
 1690W        W17584   5.673   5.677  12.253  0.0854 -0.0128 -0.0151
 1691W        W17585  10.225   1.083  13.774 -0.3631  0.3489 -0.2144
 1692W        W17586   3.249   5.862   3.816  0.6394 -0.2323  0.1657
 1693W        W17587   2.385   9.109  15.175 -0.0102  0.1527 -0.1742
 1694W        W17588   8.537  14.172  13.692 -0.1663 -0.1264 -0.0877
 1695W        W17589   1.847   2.330  11.667 -0.0211  0.1104 -0.2875
 1696W        W17590   8.858   7.945   2.566 -0.1448 -0.0429  0.0147
 1697W        W17591  16.227  13.604   2.179 -0.0860  0.3487 -0.0570
 1698W        W17592   0.241   2.415   5.592 -0.0214  0.1618  0.0258
 1699W        W17593   2.816   9.642   3.160  0.1142  0.2117 -0.4188
 1700W        W17594  17.275  11.511   0.522 -0.1345 -0.1047  0.0458
 1701W        W17595   1.155  17.084  14.789  0.2065 -0.0949 -0.0772
 1702W        W17596  17.618  15.963   0.232  0.1997 -0.2262  0.2649
 1703W        W17597   7.988   1.399   0.506  0.2634 -0.1857  0.4172
 1704W        W17598   3.530  14.403  14.195 -0.1327 -0.0551 -0.0755
 1705W        W17599  15.534   1.100  13.816 -0.0171 -0.4212  0.1639
 1706W        W17600   2.837  12.892   0.901  0.0611 -0.0179 -0.2597
 1707W        W17601   1.384  13.338   2.441 -0.0611  0.1546  0.0794
 1708W        W17602   3.068   4.607   5.293 -0.0120  0.0544 -0.0822
 1709W        W17603  17.038   9.018   1.689 -0.1257 -0.0293 -0.0113
 1710W        W17604  11.262   0.713  12.058  0.0289 -0.2057 -0.2696
 1711W        W17605   3.389   6.481   3.339 -0.0984 -0.0295  0.1915
 1712W        W17606   8.598  12.415  13.421  0.1910 -0.0097 -0.0973
 1713W        W17607  12.454   0.523  14.466 -0.1641  0.0265 -0.0887
 1714W        W17608   4.876   9.871   1.989  0.1605  0.0616 -0.1611
 1715W        W17609   6.326  14.064   0.499  0.3936 -0.0887 -0.1952
 1716W        W17610  14.847  12.920   5.022  0.1543 -0.0197  0.2300
 1717W        W17611  10.358   3.499   4.304 -0.0319 -0.0055 -0.4875
 1718W        W17612  14.134   9.502   2.783  0.4303 -0.1114 -0.1437
 1719W        W17613  14.060   7.804  13.840 -0.1462 -0.0596 -0.0829
 1720W        W17614  17.116   5.908  13.624 -0.2862  0.1966  0.1732
 1721W        W17615   6.559  14.308   5.310  0.1329 -0.0270 -0.1355
 1722W        W17616   9.233  10.359   1.573  0.2096  0.0929 -0.1770
 1723W        W17617   7.436   6.679  11.611  0.1095  0.1282  0.0053
 1724W        W17618   9.021  17.776  13.072  0.1830 -0.0724  0.0531
 1725W        W17619   4.161   1.751  15.268 -0.0513  0.2080  0.2530
 1726W        W17620   2.524   3.415  11.714 -0.0683 -0.0012 -0.1504
 1727W        W17621   7.385  11.812  15.222 -0.1149  0.3080  0.1370
 1728W        W17622  14.650   9.020  11.601  0.2174 -0.0903 -0.0405
 1729W        W17623   2.936   3.140   3.610  0.1180 -0.3326 -0.4748
 1730W        W17624   8.511   6.898  14.630 -0.4181  0.2725  0.1197
 1731W        W17625   1.064   1.495   3.375 -0.1150 -0.0829  0.2241
 1732W        W17626   1.636   0.690   3.201  0.0752 -0.0953  0.0002
 1733W        W17627   0.819   4.831   0.308 -0.3790 -0.0039  0.0123
 1734W        W17628   4.325  16.859  14.727 -0.0696  0.3307  0.0997
 1735W        W17629  12.353   7.409  12.793 -0.1560  0.0942  0.2347
 1736W        W17630   0.023   8.645  11.924 -0.3337 -0.4121 -0.0875
 1737W        W17631   9.411  16.572   0.026  0.0708 -0.1176 -0.1366
 1738W        W17632  10.290   5.926   2.060 -0.0581  0.1135 -0.3344
 1739W        W17633  16.285  14.588   1.161  0.2282 -0.3177 -0.1322
 1740W        W17634   3.000  10.398  14.527  0.0293 -0.2164 -0.2746
 1741W        W17635  13.830  17.199   2.344  0.0436  0.0863  0.1449
 1742W        W17636  11.418   2.045  11.309 -0.0202  0.1825 -0.0327
 1743W        W17637  13.880  14.753  14.632  0.0101 -0.2326 -0.1482
 1744W        W17638  18.412   7.032  15.541  0.0753  0.0077  0.0987
 1745W        W17639  16.573   6.081  15.004  0.3527  0.3713  0.0950
 1746W        W17640   0.104  18.286   2.338 -0.1048  0.3593  0.1306
 1747W        W17641  12.257   5.563   1.571 -0.1205 -0.1121 -0.1855
 1748W        W17642  17.500  11.750   2.139  0.0333  0.1213  0.0648
 1749W        W17643   0.630  12.682  10.562  0.0875 -0.2443  0.0225
 1750W        W17644   6.916  14.043   1.937 -0.0486 -0.0350 -0.2351
 1751W        W17645   3.948   4.859   4.214 -0.0115 -0.1419 -0.0978
 1752W        W17646  10.425   3.310   0.529 -0.1165 -0.0254  0.0653
 1753W        W17647   2.614   4.967   0.919 -0.1764 -0.1858  0.0765
 1754W        W17648   4.998   7.854  13.931  0.0883 -0.1439 -0.1236
 1755W        W17649  15.531  10.537  15.652  0.1512  0.0479  0.1929
 1756W        W17650  12.070  17.739   4.805 -0.0713 -0.0453 -0.2444
 1757W        W17651  11.207  10.373   0.797  0.2753 -0.0947 -0.0083
 1758W        W17652  16.623  16.695   4.753 -0.2304  0.1754  0.3253
 1759W        W17653   6.302  16.495   0.830  0.0629  0.1561 -0.3266
 1760W        W17654  17.516   1.741  10.496  0.0467 -0.2914  0.2484
 1761W        W17655   0.938   4.961   4.336  0.2273  0.2169  0.0748
 1762W        W17656  14.577  18.463   4.390  0.1834 -0.4091  0.3653
 1763W        W17657  15.601  15.979   3.069 -0.1695 -0.3542  0.0492
 1764W        W17658   4.470   6.427  12.017  0.1317 -0.2120 -0.1454
 1765W        W17659   2.226   4.640   1.592 -0.0448  0.2607 -0.1382
 1766W        W17660   9.169  11.930   4.326 -0.1646  0.0880  0.0560
 1767W        W17661  16.157   4.779   1.324  0.0001  0.0922  0.0423
 1768W        W17662  11.490   4.623  14.896 -0.2416 -0.0342  0.1660
 1769W        W17663   5.749   6.725   3.162 -0.3712 -0.0503 -0.0112
 1770W        W17664  13.005  13.952   1.403  0.0352 -0.0076 -0.3509
 1771W        W17665  15.351  12.869   3.305  0.0448  0.1079  0.0554
 1772W        W17666  12.611   7.138   5.127  0.0879 -0.2661  0.1241
 1773W        W17667  15.780  13.727   2.368 -0.0332  0.1722 -0.2815
 1774W        W17668  10.497   7.346   0.940 -0.0689 -0.0815  0.3218
 1775W        W17669   8.858   7.461   5.784  0.4557  0.0259 -0.0950
 1776W        W17670   3.910  10.356  14.995 -0.0062 -0.1974  0.2482
 1777W        W17671   3.249  12.559  15.275  0.0833 -0.1325 -0.1247
 1778W        W17672  12.974  11.592   3.639  0.4495  0.0082  0.0202
 1779W        W17673  17.945  13.221  15.019  0.0261 -0.1171  0.2271
 1780W        W17674   5.830   4.472  15.484  0.0617 -0.0367 -0.0662
 1781W        W17675   9.419  10.098   4.229 -0.0874  0.0222  0.1310
 1782W        W17676   7.890  17.535  14.346  0.1301  0.0079  0.1216
 1783W        W17677  17.696  11.292  12.602 -0.3784  0.4163  0.2434
 1784W        W17678   7.327  10.263  16.117 -0.1732 -0.1709  0.0431
 1785W        W17679   0.976  17.709  11.394  0.0363  0.0622 -0.1135
 1786W        W17680   4.701   8.532   2.275 -0.3148  0.1020  0.1044
 1787W        W17681  16.049  14.811   5.042  0.0718  0.0188  0.1255
 1788W        W17682   1.594  10.728   0.867 -0.1172  0.1283 -0.2036
 1789W        W17683  11.687   1.094  14.672 -0.2056  0.3818 -0.2920
 1790W        W17684  14.465  10.069   2.318  0.1866 -0.2927  0.3191
 1791W        W17685  13.804  17.949   4.525 -0.0127  0.3613 -0.2204
 1792W        W17686  17.500   4.137   4.520 -0.0664 -0.1823  0.1095
 1793W        W17687  17.521   1.870   5.084 -0.1832 -0.3390 -0.0861
 1794W        W17688  13.659   9.896   0.937 -0.1654 -0.0675 -0.1061
 1795W        W17689   7.721  17.166   3.067 -0.0765 -0.3048 -0.1446
 1796W        W17690  14.411   5.087   1.823 -0.0980  0.0445  0.4699
 1797W        W17691  14.951   2.735   4.536  0.3544 -0.0735  0.1196
 1798W        W17692   9.259   7.397  10.762  0.2943  0.2278  0.2097
 1799W        W17693   3.801   4.493   1.967  0.0544 -0.1226  0.1323
 1800W        W17694  15.492   3.540   0.274 -0.0584  0.0534  0.0706
 1801W        W17695  10.707  12.319  10.848  0.1333  0.1259 -0.1112
 1802W        W17696   9.684  10.103  11.432 -0.1105 -0.1646  0.0980
 1803W        W17697   8.445  13.892   0.991 -0.1336 -0.1172 -0.0115
 1804W        W17698  18.211   9.053   5.205  0.2113  0.1476  0.1762
 1805W        W17699   1.459   9.372   2.552 -0.0177  0.1080  0.3494
 1806W        W17700  16.573  16.589  11.846  0.0902 -0.0477  0.0958
 1807W        W17701   3.536   9.409   0.618 -0.4499 -0.0213 -0.3208
 1808W        W17702   1.901  11.424   1.828  0.0482 -0.1104 -0.1405
 1809W        W17703  16.534  10.858   5.820  0.1044  0.0874  0.0256
 1810W        W17704  15.642  10.089  13.006  0.0376 -0.0510  0.4865
 1811W        W17705   0.464  10.458  14.627  0.0095 -0.0339  0.0856
 1812W        W17706  11.788   7.864  15.051  0.2209  0.0244  0.2688
 1813W        W17707   8.726  16.788  12.495 -0.1543  0.0228 -0.2466
 1814W        W17708   3.466   8.782   3.809 -0.0816  0.0005  0.0594
 1815W        W17709   4.192   3.142  14.001 -0.0314  0.1770  0.2671
 1816W        W17710  16.419   9.164  11.823 -0.3917  0.1611  0.0094
 1817W        W17711   9.788  13.202   1.965  0.2259  0.1283 -0.2373
 1818W        W17712  16.991  14.489  12.410  0.3837  0.1251  0.0910
 1819W        W17713   0.660   9.919   3.735  0.1642  0.3794  0.0069
 1820W        W17714  12.423   0.396   3.624 -0.1272  0.0655  0.1959
 1821W        W17715   0.417  14.317  12.548 -0.0700 -0.2053  0.2715
 1822W        W17716   5.519  10.371  14.179  0.3979 -0.2575 -0.3590
 1823W        W17717   3.218  16.723   3.796  0.0214 -0.1613 -0.1704
 1824W        W17718  16.670  13.040  15.614 -0.0816 -0.0733 -0.0493
 1825W        W17719   8.009   0.968   1.677  0.2006 -0.1414 -0.1088
 1826W        W17720   6.072  12.055  14.816 -0.1423 -0.0931  0.1834
 1827W        W17721  16.983   6.480   3.365 -0.3357  0.1514 -0.0989
 1828W        W17722   5.655  12.471   1.533  0.0443  0.2456  0.1649
 1829W        W17723  13.680  15.738   3.537 -0.3040 -0.0283  0.1059
 1830W        W17724   3.096   8.458  12.182 -0.2497 -0.1445  0.0097
 1831W        W17725  10.596  12.180  13.209  0.2445 -0.3149 -0.1670
 1832W        W17726   0.315  12.132   3.641  0.1461  0.0794  0.1919
 1833W        W17727   5.653   7.795  14.437 -0.0060 -0.1799  0.0627
 1834W        W17728  13.740  11.312   1.522 -0.0473 -0.0854  0.3245
 1835W        W17729   6.694  10.936   0.276 -0.3772  0.3830  0.0801
 1836W        W17730  12.709  18.040  11.681  0.0842 -0.1497 -0.2810
 1837W        W17731  10.343  11.555  10.126 -0.2818 -0.0015 -0.0106
 1838W        W17732   1.137  11.223   2.317  0.1256 -0.1975 -0.2382
 1839W        W17733   6.787  11.223  12.495 -0.0981 -0.1177  0.1561
 1840W        W17734  17.449  14.957   1.167  0.1085  0.5138 -0.0259
 1841W        W17735  10.146   1.261   5.061 -0.2163  0.3739 -0.3257
 1842W        W17736  13.560  11.824  13.354 -0.4609  0.0970  0.1918
 1843W        W17737   5.351   3.879  14.018 -0.3580 -0.2828 -0.0474
 1844W        W17738  18.361   4.506   5.605 -0.0583 -0.0192  0.2216
 1845W        W17739  14.917  11.798   1.243  0.4023 -0.2325 -0.4915
 1846W        W17740  11.319   4.996  16.103  0.1261 -0.0828  0.0050
 1847W        W17741   1.158   0.377  15.574  0.2255 -0.1940 -0.3374
 1848W        W17742   4.825   6.941  12.083 -0.2414 -0.1193  0.1046
 1849W        W17743  11.227  17.243   0.988  0.1307 -0.3242 -0.0260
 1850W        W17744  13.161  13.195  13.562  0.0133 -0.3052 -0.3215
 1851W        W17745  12.172   8.169  15.043  0.1347 -0.0090  0.0600
 1852W        W17746   7.225   1.067   1.628  0.0529  0.0574 -0.1319
 1853W        W17747  12.085   2.227   5.179  0.0328 -0.0742 -0.3204
 1854W        W17748  17.009   8.294   1.105  0.2744 -0.1969 -0.0548
 1855W        W17749   2.329  12.082  15.293  0.1603 -0.0748 -0.1809
 1856W        W17750  14.819   9.197  12.062  0.2687  0.1782 -0.1772
 1857W        W17751  17.181   8.056  13.896  0.1779  0.3449 -0.0025
 1858W        W17752   3.555  16.451  11.088  0.2147  0.1752  0.1067
 1859W        W17753   8.359   9.474  13.804  0.1003 -0.1187  0.1603
 1860W        W17754  14.205   0.714  13.455 -0.2803  0.0688 -0.0607
 1861W        W17755  10.942   2.051  15.261  0.2458  0.1468 -0.0878
 1862W        W17756  15.307   5.794   2.668  0.2753 -0.0079  0.0098
 1863W        W17757  15.299  15.592   0.935  0.0322  0.1912  0.1673
 1864W        W17758   6.367   0.527   3.362 -0.2140  0.0344 -0.1363
 1865W        W17759  17.809  16.535   3.255  0.1268  0.0165 -0.0034
 1866W        W17760  10.610  17.420   3.147 -0.0171  0.0464  0.2212
 1867W        W17761   5.808  17.363  10.310  0.2572  0.1483 -0.0061
 1868W        W17762   0.711  17.348  12.183 -0.0413 -0.1833  0.4141
 1869W        W17763   8.526   7.168  13.680 -0.1154 -0.0070  0.0242
 1870W        W17764  15.300  10.312   1.292 -0.3710 -0.0370 -0.0655
 1871W        W17765   9.562   9.676   2.929 -0.1025  0.2692 -0.0093
 1872W        W17766   6.486   4.901  13.526 -0.4940 -0.4591 -0.1499
 1873W        W17767  13.432  14.199   0.046 -0.3592 -0.4579 -0.2699
 1874W        W17768  11.909  15.246   2.538 -0.0129 -0.1044  0.3023
 1875W        W17769  12.123   6.942  11.410  0.0188 -0.2100  0.3540
 1876W        W17770   6.511  18.113   5.448 -0.2105 -0.3443  0.1787
 1877W        W17771  18.151  14.686  14.431  0.0800  0.0011 -0.1638
 1878W        W17772  15.983   6.481  12.397 -0.0162  0.0957  0.1171
 1879W        W17773   0.077   8.310  14.803 -0.0123 -0.2285  0.2007
 1880W        W17774  14.995   8.578  12.314 -0.0352 -0.1163 -0.0398
 1881W        W17775  11.712   1.912   5.269 -0.0320  0.4299 -0.1955
 1882W        W17776  10.046  12.033  15.043 -0.0747  0.0427 -0.0872
 1883W        W17777  10.468  16.515  13.376 -0.1493 -0.3236  0.1095
 1884W        W17778  12.171   5.153  14.321 -0.0673  0.1447 -0.1145
 1885W        W17779  10.469  11.811   2.725 -0.0995  0.0349 -0.1276
 1886W        W17780  17.172  12.171   4.954 -0.2475  0.1545  0.0942
 1887W        W17781   9.841  11.624  14.857 -0.3683  0.0620  0.1625
 1888W        W17782  10.378  13.782  15.555 -0.2413 -0.1119 -0.0986
 1889W        W17783  13.516   6.347   3.969 -0.1757  0.0551  0.0237
 1890W        W17784  17.819   7.531   4.731 -0.0182  0.2286  0.0878
 1891W        W17785  13.552   8.910   2.001 -0.1435 -0.1829 -0.2490
 1892W        W17786   7.827   8.714  13.792  0.2978  0.1746 -0.1451
 1893W        W17787  18.356   0.445  13.871 -0.1474  0.0806 -0.1090
 1894W        W17788   9.485  12.082   3.331  0.2177 -0.0548  0.0358
 1895W        W17789   5.337   5.001   2.762 -0.1659 -0.0640  0.0497
 1896W        W17790  17.542   7.796   2.500  0.0411  0.0260 -0.2864
 1897W        W17791  16.769   7.690   4.043 -0.2682 -0.0764  0.0669
 1898W        W17792  13.988   2.082   6.494  0.1000  0.1371 -0.1732
 1899W        W17793  14.404   8.973  12.930  0.1670  0.3271  0.0783
 1900W        W17794  14.151  18.352  14.032 -0.1371  0.0270 -0.1841
 1901W        W17795   1.210   6.709   4.691  0.0994  0.1027  0.0827
 1902W        W17796   4.100  16.220   3.084 -0.0528 -0.1824  0.1162
 1903W        W17797  12.537   9.176   5.002 -0.0061  0.1982  0.0537
 1904W        W17798   6.323  17.927  12.149  0.0576 -0.0113 -0.0145
 1905W        W17799   8.603   8.939   4.530  0.0186 -0.1213 -0.2968
 1906W        W17800  14.746   7.466   3.734  0.0403 -0.3267  0.0702
 1907W        W17801  14.925   7.478   1.281  0.0069 -0.2331  0.3466
 1908W        W17802   3.534   6.970  13.754  0.3463  0.2116 -0.1531
 1909W        W17803  18.223   3.998   0.044 -0.1431  0.0139  0.0956
 1910W        W17804   8.992  12.270   1.360  0.0174  0.4333 -0.0744
 1911W        W17805  12.946  15.101   4.164  0.1004  0.2287 -0.2115
 1912W        W17806   1.532  12.215  15.861 -0.0141  0.2098  0.1124
 1913W        W17807  14.813  17.137   1.800  0.0602 -0.0061  0.0213
 1914W        W17808   0.644   7.981  15.724 -0.0953 -0.3969 -0.2194
 1915W        W17809  10.451   8.994   4.818  0.0296 -0.3375 -0.0059
 1916W        W17810   4.375   1.457  13.093 -0.1564 -0.0544  0.0854
 1917W        W17811   5.221   2.098  13.479  0.1770 -0.1335 -0.3316
 1918W        W17812   5.309  16.446   4.983  0.1645 -0.2567 -0.2972
 1919W        W17813  13.286  18.225   5.214  0.0954 -0.0856  0.2337
 1920W        W17814  15.944  18.350   2.247  0.0208  0.0442 -0.0352
 1921W        W17815   5.810   9.466  13.015 -0.2375  0.0871 -0.1620
 1922W        W17816  15.265   1.551   2.511  0.1229  0.0582  0.3847
 1923W        W17817   3.311   3.801   5.255  0.2233  0.1086 -0.0151
 1924W        W17818   5.554  16.052   4.325  0.1362 -0.2051  0.0769
 1925W        W17819  16.548  17.685   4.025 -0.1648 -0.2560  0.0646
 1926W        W17820   9.153  17.880   0.775 -0.0283 -0.0609  0.1363
 1927W        W17821  17.853   7.870   0.544 -0.1941  0.0408 -0.1193
 1928W        W17822   2.186  18.115   0.924  0.2014  0.3367 -0.0042
 1929W        W17823  12.382  14.954   6.199  0.1657 -0.1358 -0.0729
 1930W        W17824   4.671   6.607  12.437 -0.0608 -0.0824 -0.0762
 1931W        W17825   5.392   1.064  16.142  0.2320 -0.1403 -0.2178
 1932W        W17826  13.417   2.032   0.862  0.1576 -0.0268 -0.0454
 1933W        W17827  15.883   2.818  15.279  0.2083 -0.0748  0.4548
 1934W        W17828  13.607   0.425   2.659  0.0401 -0.2650  0.0909
 1935W        W17829   7.665  13.482   4.996 -0.0807  0.0784  0.1848
 1936W        W17830   6.568   8.915  12.380 -0.1253  0.0657  0.1287
 1937W        W17831   3.879   7.452  14.028 -0.1256 -0.2328 -0.0475
 1938W        W17832   2.945  16.799  13.312 -0.1433 -0.0488 -0.1136
 1939W        W17833   5.721   7.004  13.366  0.2058  0.0388  0.0753
 1940W        W17834   0.177   0.930   1.339 -0.1124  0.1340  0.2396
 1941W        W17835   5.657   0.546   4.086  0.1153  0.2439 -0.2429
 1942W        W17836  12.006   8.541  12.940 -0.0592 -0.1786 -0.1954
 1943W        W17837   7.274   5.299  10.996 -0.1907  0.0478 -0.3555
 1944W        W17838   4.431   5.098  14.341 -0.2335 -0.1235  0.0652
 1945W        W17839   9.460   7.765  11.069  0.1666 -0.0606  0.2795
 1946W        W17840   8.151  13.223  11.367  0.1141  0.0867  0.0745
 1947W        W17841  11.741   8.555   1.710 -0.1364 -0.0468 -0.0829
 1948W        W17842  17.465  10.717   1.787  0.5020 -0.2141 -0.0185
 1949W        W17843   0.737   0.645  15.565 -0.1650 -0.1955  0.0431
 1950W        W17844  15.162  17.357  11.683  0.0943  0.1888  0.0981
 1951W        W17845   0.231  13.683  13.709 -0.1808  0.0444  0.0691
 1952W        W17846  14.413   3.178   3.287  0.2230 -0.0237 -0.1089
 1953W        W17847  10.561   4.353  12.852 -0.0941  0.1687  0.3611
 1954W        W17848  10.377   3.436   1.020  0.1226 -0.0060  0.2042
 1955W        W17849   9.436  13.444   4.530  0.0268  0.0848  0.1059
 1956W        W17850   1.210   5.053  14.886  0.0340 -0.2501 -0.0441
 1957W        W17851  14.412   5.533  15.997  0.0751  0.2634  0.1769
 1958W        W17852   1.199   4.187  11.567  0.0899  0.3907  0.3620
 1959W        W17853   4.622  14.584   3.338  0.0377 -0.0548 -0.3542
 1960W        W17854   4.598  12.414  11.144  0.2351 -0.2506 -0.0677
 1961W        W17855   7.916   5.267   0.332  0.0137  0.2440  0.0508
 1962W        W17856  10.243  17.313   0.855  0.2313  0.1360 -0.1002
 1963W        W17857  14.452   5.535   5.384 -0.2596 -0.0399  0.0190
 1964W        W17858   2.385   0.261  10.703  0.3114  0.2619 -0.0726
 1965W        W17859   5.074   0.986   2.519  0.0826 -0.3834 -0.2186
 1966W        W17860  10.375  14.946   4.078 -0.0857  0.1143  0.2198
 1967W        W17861  13.691   7.099  13.109 -0.0914 -0.0110  0.0063
 1968W        W17862  15.935   1.752   2.869  0.1228 -0.2995  0.1075
 1969W        W17863  14.329  10.186  15.411 -0.0444 -0.2370 -0.2980
 1970W        W17864   5.015  14.904   1.198 -0.1209 -0.0244  0.1254
 1971W        W17865  17.718  14.753   5.964  0.4279 -0.0731 -0.1265
 1972W        W17866   6.665   1.942  12.356  0.0815 -0.1864  0.1490
 1973W        W17867   8.171  17.341   4.151 -0.0424 -0.0013 -0.0442
 1974W        W17868   4.357  13.028  11.894 -0.1025  0.1900  0.2184
 1975W        W17869  11.280   8.461  11.247  0.2813 -0.0599 -0.0497
 1976W        W17870  17.558   9.076  11.553 -0.1097  0.0158  0.3922
 1977W        W17871  14.671   0.388   2.590  0.1390  0.1481  0.1623
 1978W        W17872   7.001  13.816   4.573 -0.1112  0.0820 -0.1088
 1979W        W17873   6.741  14.628   4.309  0.0703  0.1848  0.0387
 1980W        W17874   4.955  10.216  14.013  0.0058  0.1313 -0.1531
 1981W        W17875  12.975   6.286  12.368 -0.1244  0.0370  0.1040
 1982W        W17876  10.263   9.349  11.219 -0.0620  0.0289 -0.1392
 1983W        W17877  11.915   0.923  10.886  0.1891 -0.0099  0.1177
 1984W        W17878  15.798  18.145   2.701  0.0696 -0.0782  0.2806
 1985W        W17879   4.346   9.803   0.868  0.2705 -0.0575  0.0869
 1986W        W17880  11.791  17.478  11.113  0.1948 -0.1048  0.2713
 1987W        W17881  17.579   2.007  15.442  0.0211  0.1448  0.2282
 1988W        W17882   9.786   5.331  12.291  0.1090  0.0437  0.3067
 1989W        W17883  16.950  13.291  14.744  0.1490 -0.0312  0.2285
 1990W        W17884   0.423   4.325  12.271  0.3383  0.0768  0.2546
 1991W        W17885   5.776  12.410   0.963  0.1159 -0.1558 -0.0804
 1992W        W17886  15.003   3.342   2.039  0.0772 -0.0125 -0.1042
 1993W        W17887   5.159   9.587  15.760  0.1812  0.1454 -0.2231
 1994W        W17888  15.213   8.243   1.740  0.0341 -0.0982  0.2173
 1995W        W17889   5.585   6.501  13.185 -0.0703 -0.4257  0.2759
 1996W        W17890   3.022   4.189   5.057  0.1593 -0.2043 -0.0119
 1997W        W17891   9.501   3.162  14.845  0.0509 -0.0832 -0.0006
 1998W        W17892  10.252   2.974  14.730  0.1959 -0.3259  0.0489
 1999W        W17893   6.193   9.225   5.065  0.0435 -0.0821  0.0918
 2000W        W17894  13.976  12.123   0.949 -0.1585  0.2138 -0.1149
 2001W        W17895   7.783   3.168  15.580 -0.0726  0.2155 -0.1939
 2002W        W17896  11.247  16.263   3.184  0.1151  0.1785  0.0066
 2003W        W17897   9.977   0.188  12.835  0.1098 -0.0540 -0.3095
 2004W        W17898  12.646  17.080   1.511  0.3553  0.3389 -0.3842
 2005W        W17899  15.998   1.992   3.913 -0.2007  0.1349  0.0384
 2006W        W17900   0.828  14.484   0.424 -0.0892 -0.1661  0.0545
 2007W        W17901   6.789  11.519  14.557 -0.2228  0.0452  0.1878
 2008W        W17902   8.580  16.069   3.813  0.0356  0.1858 -0.1879
 2009W        W17903   3.989  13.974   3.263 -0.1829 -0.1142  0.3729
 2010W        W17904   8.908  14.227   3.177 -0.0982  0.0507  0.0835
 2011W        W17905   9.505   9.213   1.708  0.2127 -0.2197 -0.4648
 2012W        W17906   6.741   5.508   6.148  0.1830  0.3452 -0.1484
 2013W        W17907   0.858   5.784   2.082  0.1160  0.1425  0.1694
 2014W        W17908  11.756   9.919   1.433 -0.1409 -0.1562 -0.2006
 2015W        W17909   1.376   4.408  11.040  0.2348  0.0599 -0.2193
 2016W        W17910   5.771   9.520   1.695  0.1565 -0.0308 -0.4766
 2017W        W17911   5.319  16.822  11.977 -0.0631 -0.2166 -0.0200
 2018W        W17912   4.040  11.289  14.155  0.1353  0.0731  0.0004
 2019W        W17913   4.801   3.600  10.073  0.1281  0.3242  0.4674
 2020W        W17914   6.419   3.310  11.625  0.1747  0.2141  0.2474
 2021W        W17915  14.216  16.908   5.049 -0.1120 -0.1493  0.3398
 2022W        W17916   8.657  16.136  15.713  0.1617 -0.2947  0.1986
 2023W        W17917  15.132   1.194   0.380 -0.1081 -0.1188  0.3715
 2024W        W17918   5.511   7.302  11.076 -0.2601  0.0753  0.3299
 2025W        W17919   6.569  15.167  14.702  0.1746  0.0931 -0.0608
 2026W        W17920  15.665  13.502  10.825  0.0802  0.1289  0.1963
 2027W        W17921  13.566   4.692   3.267 -0.3323  0.0360 -0.1036
 2028W        W17922  18.264  16.170   1.517 -0.1094 -0.0675 -0.1677
 2029W        W17923  14.208  17.701   1.076  0.1611 -0.2584  0.0975
 2030W        W17924  16.936  12.963   2.457  0.1993 -0.3640  0.0494
 2031W        W17925   4.473   8.412   5.188 -0.3261 -0.1498  0.0822
 2032W        W17926   8.137  15.058   3.732 -0.3338  0.0988 -0.1167
 2033W        W17927   2.248  18.013  12.200 -0.0833 -0.0205 -0.0509
 2034W        W17928   8.069   7.615  11.148 -0.1877  0.0627 -0.1314
 2035W        W17929  17.439  11.706  15.900 -0.1665  0.1724 -0.0387
 2036W        W17930   8.415  13.333  15.102  0.1935 -0.1581 -0.0150
 2037W        W17931   8.059  16.630   0.173  0.2693 -0.1577  0.1139
 2038W        W17932  17.437   9.939  15.277  0.1468 -0.0279  0.4302
 2039W        W17933   1.843   1.383   4.777  0.3807  0.0298  0.0003
 2040W        W17934   5.095  15.787   4.303 -0.1695 -0.1983 -0.0392
 2041W        W17935   1.598   8.389  14.736 -0.0341 -0.0479 -0.0047
 2042W        W17936  11.029  17.973   4.509 -0.1402  0.1498 -0.2722
 2043W        W17937   9.475   9.848   0.459 -0.2014 -0.3866  0.0707
 2044W        W17938   2.396   5.532  15.130 -0.1067  0.4037  0.0820
 2045W        W17939   5.315  15.004  15.297  0.0906  0.3797 -0.0637
 2046W        W17940   6.402  16.859  11.105  0.3263 -0.0546  0.1657
 2047W        W17941  12.238  14.971  14.099  0.1121 -0.1966 -0.0921
 2048W        W17942   0.546   4.433   3.590  0.2088  0.0243 -0.2124
 2049W        W17943  14.681   2.300   5.410 -0.6570  0.1501 -0.1202
 2050W        W17944   0.842  11.259   5.347  0.2485 -0.3335  0.0820
 2051W        W17945   4.949  17.942   3.589 -0.0472 -0.1263 -0.1762
 2052W        W17946   9.326   5.076  11.822 -0.1242 -0.0288 -0.0337
 2053W        W17947   4.752  12.237   0.889 -0.2722  0.0197 -0.2677
 2054W        W17948   4.773  11.940  13.906 -0.0390 -0.0598 -0.0172
 2055W        W17949   4.379   4.606  11.717 -0.4386 -0.2349 -0.1652
 2056W        W17950   4.027  12.999  15.567  0.1049  0.4386 -0.0405
 2057W        W17951  14.641  17.930   4.763  0.5137  0.0993  0.0196
 2058W        W17952  16.582  15.970   0.819 -0.0548  0.2222 -0.2012
 2059W        W17953  17.898   1.842  10.837  0.0256  0.0292 -0.3466
 2060W        W17954   4.244   4.731  15.378  0.0009  0.3385 -0.1546
 2061W        W17955   5.896  17.063  15.431 -0.2566  0.2550  0.1364
 2062W        W17956   5.011   7.964   1.141  0.3136  0.0359  0.3491
 2063W        W17957   5.011   1.682   3.323  0.1447 -0.0677 -0.3859
 2064W        W17958  11.670  18.103  14.704 -0.2066 -0.2217 -0.0871
 2065W        W17959  13.082  13.585  13.962 -0.2237  0.1511 -0.4382
 2066W        W17960  10.230   8.491  15.906  0.2865  0.1038 -0.0707
 2067W        W17961  11.934  17.263  12.485  0.1529  0.0232 -0.0520
 2068W        W17962   0.766   4.056   5.572 -0.2569 -0.2539  0.3040
 2069W        W17963   0.921  12.991   1.278 -0.2105  0.1270  0.1279
 2070W        W17964   6.506   7.438   5.335  0.1248  0.2246  0.0101
 2071W        W17965   5.077   0.289   1.622  0.0259 -0.1845  0.1757
 2072W        W17966   4.951   6.056  12.949  0.0371  0.1463  0.0646
 2073W        W17967  11.344  16.782   1.202  0.3887  0.2599 -0.0671
 2074W        W17968   1.058   5.949  14.344 -0.2995 -0.1110 -0.2528
 2075W        W17969   7.120  14.119  12.011 -0.1967 -0.0184  0.1173
 2076W        W17970  16.237   7.047  13.880  0.1614  0.0598 -0.1194
 2077W        W17971  10.403   6.943   4.516 -0.0501 -0.0265 -0.1341
 2078W        W17972  13.050  12.429   4.827 -0.2284 -0.1731  0.3320
 2079W        W17973   9.201  11.442   4.280  0.0730 -0.2706 -0.0922
 2080W        W17974  10.031   5.688  13.972  0.2606 -0.0785  0.0718
 2081W        W17975   4.648  10.395   5.140 -0.0219  0.3561  0.0528
 2082W        W17976   4.004  15.226  15.862  0.2767 -0.0092  0.2395
 2083W        W17977   0.967   9.213  12.578 -0.1549  0.0456 -0.3499
 2084W        W17978   2.284   3.662  16.038 -0.1992 -0.0304  0.0553
 2085W        W17979   1.916   6.938   4.185  0.0291  0.0191 -0.0769
 2086W        W17980   7.322   6.199  12.597 -0.1480  0.2561  0.2244
 2087W        W17981   6.933   2.605   5.547 -0.2532 -0.1123 -0.1921
 2088W        W17982   0.973  10.189  11.507  0.1010  0.0088 -0.0411
 2089W        W17983  12.800   2.366  15.643 -0.1160  0.0069 -0.2296
 2090W        W17984  16.507   6.364   0.947  0.2281  0.0584  0.0161
 2091W        W17985  16.579  10.064   3.429  0.2330  0.1296 -0.2545
 2092W        W17986   7.226  11.323   0.995 -0.0328  0.0827 -0.2407
 2093W        W17987  11.694   6.800  14.219  0.2318  0.0712  0.1505
 2094W        W17988   1.575  10.773  10.487 -0.3056 -0.1291 -0.0994
 2095W        W17989  11.093   7.620   5.062  0.0643 -0.1046 -0.0429
 2096W        W17990  17.953   4.401   1.695 -0.0693 -0.2773  0.3230
 2097W        W17991   7.651  11.666   4.292  0.2017 -0.2232  0.2366
 2098W        W17992  17.589   0.213  14.499 -0.0765  0.1046  0.0147
 2099W        W17993  10.601   7.796   1.816  0.0655  0.1087  0.0359
 2100W        W17994   6.326   1.477  12.162  0.2308 -0.3786 -0.3885
 2101W        W17995  17.527   5.119   2.114  0.0807  0.0653  0.0465
 2102W        W17996  16.577  12.571  15.783  0.3038 -0.0524  0.1602
 2103W        W17997   3.830  13.336   3.649  0.1044  0.1364 -0.3896
 2104W        W17998   0.264  11.959  12.205 -0.0296 -0.1758  0.0035
 2105W        W17999  17.542   2.304  14.356  0.0078  0.0668 -0.1771
 2106W        W18000   7.841  12.994   5.298  0.2524  0.0112 -0.3570
 2107W        W18001   9.762   7.578  14.071  0.2271 -0.1126  0.1579
 2108W        W18002  15.099   8.013  12.869 -0.2932 -0.0208 -0.0678
 2109W        W18003   7.059  14.964  10.955 -0.1910 -0.0531 -0.0487
 2110W        W18004   0.886   8.267   6.075  0.3249 -0.0053  0.1052
 2111W        W18005   9.544  12.936  14.169  0.0118 -0.0126 -0.1109
 2112W        W18006  14.364   4.006   5.736  0.3483 -0.1546 -0.1619
 2113W        W18007  14.437  17.378   5.176 -0.2151 -0.0369  0.1007
 2114W        W18008  12.290  18.211  15.303  0.3894 -0.1435 -0.1840
 2115W        W18009  13.593   1.751  11.614 -0.1503  0.2191 -0.0240
 2116W        W18010   9.349  15.538   2.533 -0.2110  0.1236  0.0656
 2117W        W18011   2.083  17.367   4.154  0.4797  0.0827  0.1432
 2118W        W18012   8.454   4.300  12.851  0.1848 -0.2509 -0.1372
 2119W        W18013  16.923  16.908  15.869  0.3709  0.0639  0.1948
 2120W        W18014   5.869   3.129   2.518  0.1767 -0.2266 -0.3192
 2121W        W18015   0.426  17.638   2.155 -0.3225  0.1165 -0.0225
 2122W        W18016   1.679   3.667  11.609  0.0778  0.0274 -0.0468
 2123W        W18017   0.447  10.504  11.747  0.2379  0.0350  0.2032
 2124W        W18018  14.730  11.735  12.020  0.1717 -0.0909  0.1896
 2125W        W18019  13.429   1.378   4.907  0.1475  0.2302  0.1023
 2126W        W18020  11.857  11.687   0.893  0.0196  0.0131  0.1384
 2127W        W18021  16.748   7.234   2.294  0.2458 -0.1652 -0.0059
 2128W        W18022  15.182   2.868   6.174  0.1581 -0.3032  0.0132
 2129W        W18023  15.429   6.617   5.315  0.4301 -0.1408  0.0555
 2130W        W18024   8.920  10.841   1.706  0.3237 -0.5650  0.0266
 2131W        W18025  13.536  17.685  15.783 -0.1254  0.1680  0.1079
 2132W        W18026   1.580  13.865   4.081  0.1263 -0.2145 -0.2272
 2133W        W18027   3.565  18.394   3.514  0.0671  0.0667  0.2828
 2134W        W18028  17.215  10.081   1.142 -0.1280  0.0053 -0.1983
 2135W        W18029   0.754   6.576   1.014  0.1351  0.0288 -0.2098
 2136W        W18030   0.687   5.527  13.909  0.0659  0.0260  0.0678
 2137W        W18031   9.365   3.163  14.254 -0.1869 -0.0540  0.0239
 2138W        W18032   5.384   9.961   3.041 -0.0805  0.1285  0.0939
 2139W        W18033  11.909  11.971  13.626 -0.1181 -0.0045  0.0362
 2140W        W18034  11.442   4.298  13.930 -0.0738  0.0261 -0.0078
 2141W        W18035   8.055  15.643  13.338 -0.1486 -0.1779  0.1938
 2142W        W18036   2.324   8.040  15.849 -0.4423 -0.3178 -0.0351
 2143W        W18037  16.730   9.728   2.426 -0.0118 -0.0629 -0.1086
 2144W        W18038   7.666  11.540   3.661 -0.2468  0.4116  0.2199
 2145W        W18039  11.829   1.229  13.204  0.0643  0.0227 -0.3440
 2146W        W18040  13.370   0.314  11.449  0.1961 -0.2059 -0.0651
 2147W        W18041  17.300  10.276  16.090 -0.4501 -0.0815 -0.0063
 2148W        W18042  16.458  10.366  13.028  0.1135  0.0805  0.0543
 2149W        W18043   5.729   3.190  11.338  0.0874 -0.0200  0.1923
 2150W        W18044  17.095   3.265  15.857  0.1194 -0.0560  0.1630
 2151W        W18045  11.281  11.760  14.276 -0.0144 -0.1066 -0.4317
 2152W        W18046   0.348   5.761  12.055  0.1499 -0.5404 -0.2290
 2153W        W18047   0.099   9.807   1.857 -0.1114  0.2449  0.2263
 2154W        W18048   1.661   9.169   4.742  0.1025  0.0593 -0.1394
 2155W        W18049   0.477  13.037   3.053 -0.0591 -0.0945 -0.1256
 2156W        W18050  14.983  12.426  13.281  0.1809  0.0781 -0.1634
 2157W        W18051  12.924   3.601  14.002 -0.2702 -0.0083  0.0158
 2158W        W18052   8.855   3.515   0.141 -0.2477  0.2020 -0.3761
 2159W        W18053   8.499  15.516   3.658 -0.2901  0.2322 -0.1387
 2160W        W18054  10.208  10.138  12.132  0.2179 -0.1096  0.0570
 2161W        W18055   5.455  17.369   1.489 -0.2185  0.1883  0.0798
 2162W        W18056  11.917  16.294  12.261 -0.1998 -0.0846 -0.1692
 2163W        W18057   3.286  14.388   3.911 -0.1275  0.0192  0.2952
 2164W        W18058   7.379  15.350   2.884 -0.0841 -0.2014 -0.1133
 2165W        W18059   1.007   1.100  13.459 -0.0080 -0.2627  0.1240
 2166W        W18060  15.279  11.835  13.450  0.0499  0.1329  0.0838
 2167W        W18061   0.825  18.233   0.133 -0.0313 -0.3654 -0.0186
 2168W        W18062   9.694   9.340   5.873  0.3771 -0.1816  0.1331
 2169W        W18063   2.173  14.586  12.396  0.1373  0.2456  0.3896
 2170W        W18064   1.535   6.329   2.126 -0.0526 -0.0301 -0.2749
 2171W        W18065   5.413  17.303  15.469  0.2032 -0.0641  0.1275
 2172W        W18066   2.181  12.396  13.045 -0.3752  0.1145 -0.0758
 2173W        W18067  10.698   5.587   1.986 -0.0106  0.0722  0.2935
 2174W        W18068   5.943   5.666  11.202 -0.0129 -0.2183  0.1230
 2175W        W18069   4.109  16.523  13.563  0.3789 -0.1653  0.0794
 2176W        W18070   8.822   1.830   3.201  0.1820  0.2780  0.0706
 2177W        W18071  15.731  13.386   5.225  0.2151 -0.1655 -0.0345
 2178W        W18072   8.264   9.074   5.724  0.0341  0.1823 -0.0778
 2179W        W18073  11.510   5.568   0.001  0.0498  0.0125  0.2889
 2180W        W18074  11.612   5.765   3.911 -0.3700 -0.0722 -0.1441
 2181W        W18075  14.486   5.778  13.867  0.0071 -0.0433 -0.4995
 2182W        W18076  18.405   7.502   2.593 -0.1098  0.1040 -0.4222
 2183W        W18077  10.859   1.869   1.342 -0.3799 -0.1235 -0.2262
 2184W        W18078   9.304  15.041  14.532  0.2187 -0.2881  0.1308
 2185W        W18079  12.378  15.624   1.337 -0.0477 -0.2426 -0.0421
 2186W        W18080   0.134  16.199   0.623 -0.5878  0.1687  0.0279
 2187W        W18081   5.408  14.521  14.967  0.3200  0.1822  0.0213
 2188W        W18082  12.900  14.267   5.807 -0.0445  0.2236  0.1977
 2189W        W18083  14.894   6.805   3.224  0.1604  0.0667 -0.2252
 2190W        W18084  12.415   4.387   2.397  0.2641 -0.0028 -0.0435
 2191W        W18085   9.022  15.798   6.114  0.0523  0.0334 -0.1029
 2192W        W18086  14.145   3.940   4.412  0.1393  0.0680 -0.1691
 2193W        W18087   5.349   4.322  13.668  0.0857  0.0624  0.3150
 2194W        W18088   8.888  12.636   1.093  0.0898 -0.2240  0.0192
 2195W        W18089  14.891  16.057  12.338  0.0467 -0.3329  0.0059
 2196W        W18090   9.807   5.646   3.219 -0.0949 -0.2674 -0.1328
 2197W        W18091  13.273   2.020  11.968  0.3267  0.0068 -0.0317
 2198W        W18092   4.775  15.496   0.627  0.1678  0.1340  0.1286
 2199W        W18093   1.775   0.540  14.190  0.0853  0.4747  0.0189
 2200W        W18094  14.978  11.862  14.600  0.1596  0.2998 -0.0934
 2201W        W18095  12.702   1.647   5.439  0.0489 -0.1515  0.0182
 2202W        W18096  14.379   5.857   0.692  0.3132 -0.0482 -0.3026
 2203W        W18097  10.180   1.702  11.382 -0.1714  0.0042 -0.2045
 2204W        W18098  13.306   3.275  15.749  0.0311 -0.1426  0.2991
 2205W        W18099  13.832  10.584  14.808  0.2943 -0.1473  0.0691
 2206W        W18100   3.263   5.721   1.487 -0.0765 -0.0448 -0.1655
 2207W        W18101  14.329  13.581   3.454  0.0631 -0.1774  0.0298
 2208W        W18102   9.532   0.769  12.264 -0.0945  0.1145  0.3274
 2209W        W18103  11.728  13.015  16.076  0.0586  0.2908  0.0230
 2210W        W18104   2.270  15.335  11.118 -0.3224 -0.0775 -0.0502
 2211W        W18105  15.263   9.110  15.419 -0.4542 -0.0601  0.2478
 2212W        W18106  14.586   9.569   0.995  0.0090  0.0878  0.0918
 2213W        W18107  13.420   1.410   1.743 -0.1327 -0.2251  0.2289
 2214W        W18108   3.249  14.903   4.148  0.2301  0.0192 -0.0853
 2215W        W18109   3.794   1.227  12.717 -0.0566 -0.4700  0.0376
 2216W        W18110  12.854   8.361  15.628 -0.1413 -0.3173  0.0874
 2217W        W18111   3.746   4.454  10.648 -0.1650  0.1083 -0.1266
 2218W        W18112  11.156   5.577   1.654 -0.0132 -0.1899  0.1373
 2219W        W18113   6.567  11.334  13.901 -0.1953  0.0803 -0.0391
 2220W        W18114   6.150  18.424   0.925 -0.2164  0.0945 -0.1909
 2221W        W18115   6.315   2.896  11.876 -0.3633 -0.0451 -0.0022
 2222W        W18116  11.423   0.690  13.010  0.1039 -0.2164 -0.1264
 2223W        W18117   2.169  16.154   3.029  0.0251  0.3446  0.0487
 2224W        W18118   1.346   4.104   3.798  0.2863 -0.0857  0.1521
 2225W        W18119   8.573  11.044   3.498  0.1602  0.0407 -0.2227
 2226W        W18120  18.455   3.878  15.186 -0.1982  0.3504  0.0026
 2227W        W18121   6.575   9.605   0.764 -0.1799 -0.1283  0.1395
 2228W        W18122  13.940   6.680   1.406  0.1672 -0.0253  0.2300
 2229W        W18123  15.700   3.454   4.803  0.3460 -0.1754 -0.0726
 2230W        W18124  14.758   8.053   1.464  0.0091 -0.0040  0.1247
 2231W        W18125  17.587  11.110  14.830 -0.3582  0.0697  0.0220
 2232W        W18126  17.237   8.688   6.514 -0.0497  0.0729  0.0166
 2233W        W18127  17.033   9.069  14.379 -0.0953 -0.1568  0.0697
 2234W        W18128   8.053  15.549   4.627 -0.5974 -0.0395 -0.0780
 2235W        W18129  10.912  14.281   3.862  0.1217  0.0627 -0.2368
 2236W        W18130   8.584  10.746   2.653  0.1659 -0.1496 -0.0816
 2237W        W18131  13.084   0.735   5.239  0.1292  0.1253 -0.1934
 2238W        W18132  17.442   1.754  12.419 -0.0114 -0.1353  0.2175
 2239W        W18133  12.145   7.543  11.476  0.0943 -0.0642  0.0007
 2240W        W18134   5.312  12.656  10.838 -0.3126 -0.0403  0.0498
 2241W        W18135  17.905   0.797  12.483  0.0092 -0.1904  0.0634
 2242W        W18136   5.389  15.882   3.377 -0.0436  0.0131  0.0411
 2243W        W18137   5.999  14.251  13.778  0.0560 -0.0081  0.0594
 2244W        W18138  16.602   4.968   3.789 -0.1082  0.0685  0.5234
 2245W        W18139  13.813  15.611   0.336 -0.3460  0.0272  0.0214
 2246W        W18140  12.692  18.455   1.292 -0.0224  0.1363 -0.2030
 2247W        W18141   6.769  15.063  12.048  0.1238  0.1992 -0.0890
 2248W        W18142   4.478   1.962   0.468 -0.0918 -0.2389 -0.2683
 2249W        W18143   8.655  18.262  14.875 -0.3949  0.2071  0.1646
 2250W        W18144  15.333   5.197   0.816  0.1406  0.1510 -0.1395
 2251W        W18145  15.027   0.578   3.806  0.2173 -0.0782  0.2278
 2252W        W18146   9.006  15.205   0.293 -0.1376 -0.0570  0.1544
 2253W        W18147  14.179  15.295   0.174  0.2367  0.0969 -0.0700
 2254W        W18148   0.163  14.443   6.297 -0.0889 -0.0512 -0.6873
 2255W        W18149   4.352   7.889   5.899 -0.1808  0.2965 -0.2474
 2256W        W18150   7.859  14.793   5.940 -0.2695 -0.3422  0.0088
 2257W        W18151  12.820  17.909   5.413  0.2533 -0.0484  0.2628
 2258W        W18152   7.239  14.790  15.440  0.0665  0.0022  0.1093
 2259W        W18153   9.882   3.332  15.739  0.1379 -0.0400  0.0400
 2260W        W18154  12.147   4.518  15.786 -0.0576 -0.1365  0.3654
 2261W        W18155   7.172   4.433  15.224  0.0611  0.0818 -0.1660
 2262W        W18156  14.558   8.683  12.083  0.0521  0.1520 -0.2195
 2263W        W18157  13.867  18.314   5.292 -0.2510 -0.0621 -0.2302
 2264W        W18158  15.735   6.213   5.297 -0.1145  0.3674  0.2272
 2265W        W18159  14.435  12.622   2.935  0.1925 -0.1401 -0.3138
 2266W        W18160   6.424  10.565   0.046 -0.1261  0.0340 -0.1069
 2267W        W18161   3.392  11.537  13.089 -0.2413  0.0219  0.1129
 2268W        W18162   2.399   9.644  16.017 -0.0331 -0.0975  0.0833
 2269W        W18163  11.992   6.056   0.299  0.3051 -0.0716  0.0901
 2270W        W18164  15.385  16.740   0.252  0.0666 -0.2341  0.2444
 2271W        W18165   9.590   9.190   1.203  0.2254  0.0614 -0.2210
 2272W        W18166  14.461   1.480   1.548 -0.1530 -0.0319 -0.0315
 2273W        W18167  12.519  10.481   3.762 -0.0882 -0.1349  0.2441
 2274W        W18168   8.030  12.952   2.969  0.3161  0.0909 -0.1049
 2275W        W18169   5.939   9.920   4.726 -0.2534 -0.4923  0.1748
 2276W        W18170   4.613  10.578  11.586  0.3869 -0.1274  0.1609
 2277W        W18171   6.302   8.405  13.507  0.1496 -0.0316 -0.2278
 2278W        W18172  10.700   1.532  16.123 -0.1167  0.1563 -0.0571
 2279W        W18173  11.844  15.190   4.966 -0.0833 -0.0164  0.0297
 2280W        W18174  17.383  13.324   2.390 -0.0318  0.1136 -0.1359
 2281W        W18175  17.300  11.945   2.972 -0.2647 -0.1385 -0.5488
 2282W        W18176  13.330   2.746  11.508  0.2050  0.4018 -0.1152
 2283W        W18177  12.151  14.841  15.609  0.0046 -0.0130  0.1668
 2284W        W18178  14.990  13.757   3.087  0.2188  0.2171  0.1277
 2285W        W18179  12.311   5.150  11.352  0.1303  0.1087 -0.2088
 2286W        W18180   3.547   5.594  16.018 -0.3771  0.2670  0.0753
 2287W        W18181   4.065   9.972  14.716 -0.0902 -0.0857 -0.1185
 2288W        W18182   7.639  18.354   3.830  0.3406  0.0337 -0.0365
 2289W        W18183  17.167  13.534   2.851 -0.0734  0.0236 -0.1702
 2290W        W18184  16.490   9.125   4.111 -0.0242 -0.0565  0.1921
 2291W        W18185   0.106   8.103  13.637  0.0955  0.2137 -0.1593
 2292W        W18186  12.378  15.960   0.786 -0.1066  0.3393 -0.0807
 2293W        W18187  10.919  18.442  15.889  0.2795 -0.3403 -0.2657
 2294W        W18188   4.835  16.532  15.429 -0.0003 -0.3626 -0.0634
 2295W        W18189  10.744  11.572   4.167 -0.1384 -0.0345 -0.1249
 2296W        W18190   6.084   3.491  10.723  0.0648 -0.0991  0.1924
 2297W        W18191   5.136  14.659   2.662  0.0327 -0.1032  0.1730
 2298W        W18192   9.673   8.626   0.424 -0.0019 -0.2342 -0.1044
 2299W        W18193   1.152   9.532   2.022 -0.0257 -0.1037 -0.0377
 2300W        W18194  10.579   0.081   2.232  0.1077 -0.1389  0.3723
 2301W        W18195   9.808   8.372  14.990  0.0045  0.1192 -0.1740
 2302W        W18196  10.762  14.929  11.633  0.0572 -0.2417  0.2790
 2303W        W18197  12.622   4.446  10.660 -0.0209 -0.2053 -0.2144
 2304W        W18198  15.965   1.358  11.567  0.0768 -0.3665 -0.1375
 2305W        W18199  10.032  14.915  14.566  0.2884 -0.3302 -0.2783
 2306W        W18200   9.877  14.718   1.888  0.0610 -0.3008 -0.0746
 2307W        W18201   4.836  15.043   0.789 -0.1500 -0.2515  0.1251
 2308W        W18202  15.445  15.043   2.587 -0.0187 -0.0248  0.1613
 2309W        W18203  12.039   2.437   0.082 -0.0987  0.0553  0.3060
 2310W        W18204   1.956  12.994   3.069  0.2418  0.0889  0.1112
 2311W        W18205  14.194  11.881   2.068  0.1061 -0.4583  0.2960
 2312W        W18206   7.304  16.067  13.650 -0.2512  0.1458 -0.2762
 2313W        W18207  15.942  11.899  13.724 -0.2080  0.0812  0.1088
 2314W        W18208   4.750  11.628   3.749  0.0906  0.0113  0.1898
 2315W        W18209  17.893  12.416   5.402  0.0085  0.5835  0.0308
 2316W        W18210   2.845   2.244  11.821 -0.3127  0.0184 -0.1111
 2317W        W18211  10.899  15.369   1.913  0.1411 -0.2113  0.2716
 2318W        W18212   2.064   6.941   1.060 -0.3133 -0.0454 -0.2303
 2319W        W18213   0.303   4.578  11.884  0.1390 -0.0611 -0.1118
 2320W        W18214   5.000  15.833  13.728  0.1223 -0.0335 -0.2872
 2321W        W18215   0.143  15.906  13.885  0.0679  0.2094 -0.2450
 2322W        W18216   9.021   8.675  15.408 -0.5099 -0.2064  0.0001
 2323W        W18217   6.342  15.888  14.037 -0.1671 -0.1918  0.3887
 2324W        W18218  18.162   3.705  14.842 -0.1070 -0.1791  0.2137
 2325W        W18219  11.831  17.084   0.284  0.1818 -0.0509 -0.1494
 2326W        W18220  17.629   3.810  12.275  0.1282  0.0226  0.0821
 2327W        W18221  14.494   4.578  15.376  0.1501 -0.0229  0.0976
 2328W        W18222   1.688   7.887  14.764  0.1181  0.0005 -0.2677
 2329W        W18223  11.991  12.675  12.758 -0.0436 -0.0538 -0.1826
 2330W        W18224   5.588  10.351   2.432  0.1387 -0.0809 -0.1746
 2331W        W18225   9.112   8.465   5.019  0.1548 -0.1693  0.1967
 2332W        W18226   9.625   2.596  12.646  0.1404  0.4536  0.2559
 2333W        W18227   3.237   7.319   2.249  0.1931  0.2241 -0.1476
 2334W        W18228   3.803  16.050  15.988  0.0124 -0.0765  0.1783
 2335W        W18229   0.031   8.015   1.494  0.1171  0.2549 -0.0419
 2336W        W18230  10.804   5.472   3.876  0.1324  0.2239 -0.0904
 2337W        W18231   0.316   8.211  11.823  0.0895 -0.1049  0.2522
 2338W        W18232   4.804  13.005   3.189  0.0193  0.0992  0.1169
 2339W        W18233  10.663  11.136  11.362  0.0604 -0.2580 -0.1653
 2340W        W18234  10.332   1.723   9.926  0.1201 -0.1505  0.2010
 2341W        W18235  12.014   7.601   0.304  0.0958 -0.2505 -0.1934
 2342W        W18236  12.471   6.069  14.597 -0.1051 -0.2393  0.1867
 2343W        W18237   9.490   3.341  11.632 -0.0666  0.1351 -0.1466
 2344W        W18238   6.104  15.250   4.869 -0.2110  0.3162  0.1187
 2345W        W18239  15.689   7.092   3.351 -0.0123 -0.2092 -0.0866
 2346W        W18240  11.491  11.296  14.057  0.1125  0.1579 -0.0397
 2347W        W18241   2.334  15.199   5.461  0.0392 -0.0290  0.0013
 2348W        W18242   2.011  17.587  12.322  0.2984  0.0253  0.3835
 2349W        W18243   7.277   9.784   1.492  0.2449  0.0061  0.1922
 2350W        W18244   2.457  12.261  14.089 -0.3206 -0.1781  0.0865
 2351W        W18245  14.288  13.127   4.148  0.0524 -0.1864 -0.1862
 2352W        W18246   7.787   1.785   1.255 -0.4332 -0.1836 -0.0699
 2353W        W18247  12.630   1.502  14.503  0.0042  0.2905  0.0217
 2354W        W18248   9.001   9.007   1.486  0.2890  0.2900 -0.2829
 2355W        W18249   2.640  16.308   2.992  0.0339 -0.0584 -0.0428
 2356W        W18250   2.920  10.433  15.531 -0.1176  0.1135 -0.0681
 2357W        W18251   6.934   7.374   1.136 -0.3153 -0.0829  0.1199
 2358W        W18252  11.218  10.911   0.697 -0.0366 -0.1979  0.0488
 2359W        W18253   2.071   1.636  15.432  0.2020 -0.1992  0.1310
 2360W        W18254  15.084   5.235  11.208 -0.1404  0.0233 -0.1318
 2361W        W18255   3.334   5.321   2.735  0.0360 -0.0260  0.0694
 2362W        W18256   4.560  18.345   2.058 -0.2479  0.1076 -0.4741
 2363W        W18257   1.258  12.360   4.581 -0.0323 -0.0018  0.0215
 2364W        W18258  16.086  17.837   4.066 -0.0240  0.2650 -0.0666
 2365W        W18259   9.092   3.233  13.245 -0.0331 -0.0627  0.3439
 2366W        W18260  14.617  14.002  15.271 -0.0875  0.2416  0.0944
 2367W        W18261   2.503  14.751   0.133  0.0319  0.1707  0.0293
 2368W        W18262   1.038  14.954  15.079 -0.2122  0.1163 -0.0828
 2369W        W18263  12.189   2.091   6.183 -0.0572  0.3615 -0.0641
 2370W        W18264   7.892   7.911  14.315 -0.0341  0.0660  0.1609
 2371W        W18265   8.305   2.250   4.367 -0.1893 -0.2606  0.1409
 2372W        W18266  11.929  17.785  15.067 -0.0377  0.1195 -0.0485
 2373W        W18267  11.039   2.851  11.888 -0.1240  0.0645  0.0621
 2374W        W18268  15.871  17.441  15.880 -0.2335 -0.0443  0.0213
 2375W        W18269  13.401   0.240  10.365  0.4123 -0.1741  0.0725
 2376W        W18270  11.861  12.872  13.391 -0.0178 -0.0976 -0.0211
 2377W        W18271   5.557   9.525   2.131 -0.1717 -0.0269 -0.2517
 2378W        W18272   4.952   5.503   0.092 -0.0349  0.1436  0.1938
 2379W        W18273  14.461   3.963  13.505 -0.1620 -0.3823  0.1768
 2380W        W18274  13.257  15.717  15.215 -0.4498  0.2792  0.0854
 2381W        W18275   9.817   4.652  13.615  0.2132 -0.3466 -0.2091
 2382W        W18276  12.622   7.887  14.093  0.0327  0.3644 -0.0924
 2383W        W18277   2.274   0.283   5.697  0.2609  0.0336  0.1403
 2384W        W18278  10.113   1.740  13.243 -0.2109  0.2668  0.0232
 2385W        W18279   5.457   4.047  14.924 -0.3696 -0.1501  0.1133
 2386W        W18280   2.254   2.244   2.025  0.1419 -0.2871 -0.0822
 2387W        W18281  12.453  15.066   2.219 -0.1862  0.2720  0.2192
 2388W        W18282   3.090   9.900   0.330 -0.2536 -0.0047 -0.0458
 2389W        W18283  14.872   7.606  13.249  0.4705 -0.2213  0.2852
 2390W        W18284  15.908  10.721   4.319  0.2501  0.1053  0.2521
 2391W        W18285  10.001   8.227  12.801  0.3093  0.2278 -0.1370
 2392W        W18286   8.650  18.153  13.086 -0.1494 -0.2963 -0.0726
 2393W        W18287   6.373   6.927   5.101 -0.0605  0.1843  0.0358
 2394W        W18288   6.710   2.698  10.585  0.1603  0.3448  0.1221
 2395W        W18289   3.169   5.984  14.413  0.2585 -0.1490 -0.1723
 2396W        W18290   3.126  15.476  11.050  0.0291  0.1763  0.1290
 2397W        W18291   4.096  14.670  14.693 -0.3065  0.0078 -0.2467
 2398W        W18292   9.918   8.947  10.058 -0.0626 -0.2065  0.2658
 2399W        W18293  16.625  13.205   5.786  0.0936 -0.1325 -0.0006
 2400W        W18294   5.687   3.793   2.159 -0.0058 -0.1116 -0.0997
 2401W        W18295  14.672   6.058  12.279 -0.6666  0.3253  0.0683
 2402W        W18296  14.270   5.115  12.735  0.0394 -0.1658 -0.1885
 2403W        W18297  15.712  15.817   1.141  0.0574  0.0795  0.1216
 2404W        W18298  16.706   6.262  13.789  0.1340  0.2710  0.3499
 2405W        W18299   8.216  16.738   2.363 -0.2084  0.2994 -0.1440
 2406W        W18300  18.244  15.513   4.330  0.1923  0.1363  0.4015
 2407W        W18301  17.421  14.253  12.325  0.0323 -0.0256  0.1350
 2408W        W18302   1.329  14.982   3.455  0.2338 -0.1392 -0.2883
 2409W        W18303   0.691  18.165  12.327  0.2619 -0.1445  0.3166
 2410W        W18304  16.561  10.968   0.040  0.0529 -0.1077  0.1256
 2411W        W18305  11.554  12.942   4.621  0.5802 -0.1485  0.0385
 2412W        W18306   8.148   9.734   3.227  0.1793  0.1250  0.1224
 2413W        W18307   0.080  17.586   0.701 -0.1312  0.6343  0.3764
 2414W        W18308  12.377   2.556  14.526 -0.0370  0.0556 -0.3520
 2415W        W18309   7.719  13.519   5.543 -0.0202 -0.1859  0.0287
 2416W        W18310   2.587  15.905  12.804 -0.0964  0.2801  0.0946
 2417W        W18311   5.612   3.087  14.552  0.1047 -0.1507  0.1667
 2418W        W18312  15.501  15.156  11.344 -0.0366 -0.2845  0.1549
 2419W        W18313  10.557   2.322  10.612 -0.1439 -0.1108  0.1862
 2420W        W18314   8.950  13.557  14.146  0.0212  0.0335  0.0292
 2421W        W18315   8.667  15.478   5.141  0.0131 -0.0788 -0.0673
 2422W        W18316   6.442  14.186   3.013  0.0915 -0.1196 -0.3310
 2423W        W18317  14.841   5.381   5.107  0.0192 -0.0045 -0.0642
 2424W        W18318   7.164   0.341   1.057  0.3408 -0.0499  0.0179
 2425W        W18319   1.193  13.473   1.392 -0.2970 -0.3417 -0.0638
 2426W        W18320   0.656  15.836   4.084 -0.0478 -0.2704  0.1217
 2427W        W18321  14.453   9.836   1.368 -0.1850 -0.0640 -0.0165
 2428W        W18322  10.021  17.142  11.211 -0.2146 -0.0999  0.5068
 2429W        W18323   5.191   4.080  11.776  0.2101  0.2564  0.0876
 2430W        W18324  10.129   4.277  13.635  0.1219 -0.2372 -0.3146
 2431W        W18325  13.272  15.149  14.361 -0.1962 -0.1720  0.0470
 2432W        W18326   6.860   5.630   5.093  0.6898  0.1162 -0.2668
 2433W        W18327   4.456   8.734   3.645 -0.0777  0.3377  0.0101
 2434W        W18328   1.489  14.561   0.104 -0.4290  0.3846  0.0741
 2435W        W18329   3.221  11.770  15.204 -0.0025 -0.0660  0.0479
 2436W        W18330   2.873   0.253  12.355  0.1092 -0.1509  0.2169
 2437W        W18331   1.645   4.295   0.964 -0.0981 -0.2389 -0.0032
 2438W        W18332   0.766   1.795   4.076  0.2505 -0.1739  0.1302
 2439W        W18333   6.426  10.400  13.569  0.1603 -0.0979 -0.2328
 2440W        W18334  11.109  10.002   3.085 -0.0580 -0.1089 -0.2560
 2441W        W18335   7.223  15.937  14.964  0.2612 -0.2382 -0.1531
 2442W        W18336  14.136   1.103  13.032 -0.1289 -0.0686 -0.2814
 2443W        W18337  16.201   3.312   2.338 -0.1669 -0.0714 -0.2269
 2444W        W18338  17.868  14.589   0.597 -0.1798  0.1310  0.2474
 2445W        W18339   9.032  15.856   2.776  0.2162 -0.0981  0.3617
 2446W        W18340  17.227   0.565   5.743  0.1268 -0.0773  0.0462
 2447W        W18341   2.547   7.741   0.088  0.0332  0.1404 -0.1731
 2448W        W18342  12.475   0.374   3.022 -0.0525  0.3240 -0.0344
 2449W        W18343   8.246   6.738   0.131  0.2660 -0.0212 -0.1533
 2450W        W18344   3.049   2.829  11.201  0.2146 -0.0380 -0.4460
 2451W        W18345  16.688   8.190   4.662  0.1929  0.0044  0.1293
 2452W        W18346  16.457  12.393   0.090  0.0374  0.0424 -0.1375
 2453W        W18347   4.729  12.644  14.422 -0.1447  0.0093 -0.0191
 2454W        W18348  14.312  12.528  14.763  0.0537  0.0057  0.0067
 2455W        W18349   3.664  14.300   3.543  0.2068  0.1312  0.0599
 2456W        W18350   1.303   2.544   3.220 -0.2344  0.0286 -0.3254
 2457W        W18351  12.460   5.574   4.946 -0.0775 -0.2569  0.2271
 2458W        W18352  10.985   5.223  15.099  0.2404 -0.0209 -0.3829
 2459W        W18353   6.663  14.097  12.176  0.0200  0.0430 -0.2806
 2460W        W18354  11.357  17.687  15.562  0.3831 -0.2932  0.2880
 2461W        W18355   4.330   2.621   5.210  0.0368 -0.1255  0.1388
 2462W        W18356   4.390  13.543  11.783 -0.0758  0.1632  0.0665
 2463W        W18357   2.540   6.236  11.949  0.0774 -0.0874  0.0088
 2464W        W18358  17.224   8.641   3.938  0.1278  0.0315 -0.0124
 2465W        W18359   4.966  16.098   0.073 -0.4288 -0.0336  0.3108
 2466W        W18360   4.886   8.998   2.363  0.2134  0.1199  0.3062
 2467W        W18361   0.296  15.097  12.344 -0.4785 -0.1683  0.4421
 2468W        W18362  14.956  11.410   3.500 -0.0374 -0.2345 -0.0290
 2469W        W18363  14.165   8.653   3.198  0.1398 -0.2658 -0.1414
 2470W        W18364  17.946   7.008  15.717  0.0800 -0.0888 -0.0460
 2471W        W18365   2.137  12.587   2.577 -0.0803 -0.0103 -0.1175
 2472W        W18366  10.044  10.977  12.235  0.5661  0.1425  0.0203
 2473W        W18367   3.933   6.548  15.409  0.0692 -0.0136  0.2319
 2474W        W18368   9.362   2.726   0.605 -0.0205 -0.1724  0.3142
 2475W        W18369   8.498   2.549  11.893 -0.1396 -0.3002  0.0188
 2476W        W18370   1.575  12.092  14.338  0.2013 -0.2174 -0.2432
 2477W        W18371  12.465   3.015   5.172 -0.1197 -0.1445  0.1299
 2478W        W18372   3.183   9.954   4.575  0.2210 -0.0004  0.3768
 2479W        W18373   0.155  14.887   1.722 -0.2521 -0.0237  0.2683
 2480W        W18374   1.160  11.824   2.930  0.0676 -0.0293 -0.2673
 2481W        W18375  15.261   5.113   1.433 -0.1693  0.0579  0.1189
 2482W        W18376  11.529   8.795  15.067  0.0351  0.1524 -0.2422
 2483W        W18377  18.370   9.147   3.147  0.2919  0.1477 -0.0188
 2484W        W18378  11.645   2.519  14.500 -0.2167 -0.1266 -0.1522
 2485W        W18379   3.800   7.519  15.005  0.2170  0.1059 -0.1491
 2486W        W18380  14.316  10.680   5.090  0.0688  0.4921  0.0787
 2487W        W18381   4.129  14.454  15.711 -0.3935 -0.0132 -0.2865
 2488W        W18382   1.473   7.119  16.038 -0.0343  0.0286 -0.0319
 2489W        W18383  12.783  16.091  11.643  0.1082 -0.2317 -0.0215
 2490W        W18384   0.416   7.869   5.406  0.2730 -0.0073 -0.3707
 2491W        W18385  13.140   4.571   3.512  0.4179  0.3373 -0.1027
 2492W        W18386  11.728   0.324  12.962 -0.1024  0.0436 -0.0485
 2493W        W18387  14.237   2.369   5.651  0.0555  0.1452  0.0902
 2494W        W18388  10.252   5.481  12.465 -0.1885 -0.1498  0.1935
 2495W        W18389   5.781   0.855  13.247  0.1153 -0.2967 -0.2610
 2496W        W18390   3.769   0.256   1.042  0.0511  0.1208  0.2843
 2497W        W18391   2.240  15.489  13.359  0.2420  0.0354 -0.3932
 2498W        W18392  18.012   6.471   1.523  0.1712  0.1061 -0.2048
 2499W        W18393  10.833  15.548   5.348  0.0922  0.1098 -0.1785
 2500W        W18394  17.998  12.652   4.824 -0.0897 -0.1085 -0.2078
 2501W        W18395   4.162  12.993   3.956 -0.0245 -0.0700 -0.2962
 2502W        W18396   6.772   5.919   1.692  0.1891  0.1664 -0.1222
 2503W        W18397   8.829  12.012   5.501 -0.2086  0.4130 -0.0475
 2504W        W18398   3.822   8.973   2.412 -0.2262 -0.1723  0.0166
 2505W        W18399   8.141  11.282   4.014 -0.1148  0.1054 -0.0060
 2506W        W18400  11.700   9.432   1.131  0.0109 -0.0161  0.0034
 2507W        W18401   4.370  14.072   1.931  0.0331 -0.2118 -0.2493
 2508W        W18402  12.132  13.917  11.648  0.4323 -0.0272  0.1439
 2509W        W18403  16.604   4.380   2.994  0.1566 -0.0646  0.2368
 2510W        W18404   7.053  13.261   1.407  0.1767 -0.0116 -0.1160
 2511W        W18405  17.800  15.560   4.403 -0.0313  0.1117  0.1098
 2512W        W18406   6.688   2.481  12.551  0.1704  0.1823 -0.0884
 2513W        W18407  13.245   3.506  13.613  0.1436  0.0594  0.0103
 2514W        W18408   3.692   7.381  16.065  0.4134  0.0949  0.0534
 2515W        W18409  11.176   9.717  16.130  0.1325  0.0638  0.0491
 2516W        W18410   9.409   6.398  14.659 -0.1426 -0.1439  0.2274
 2517W        W18411  13.520  12.178  14.912  0.2359 -0.1767 -0.1190
 2518W        W18412   6.722   4.403  14.192 -0.1595  0.1949 -0.0110
 2519W        W18413   3.746  10.798   4.283 -0.2176 -0.2008 -0.2245
 2520W        W18414  17.330   5.023   2.582  0.3391  0.0751 -0.0530
 2521W        W18415   3.199  11.737  11.278 -0.3949  0.0092  0.0249
 2522W        W18416   9.664   6.420  13.864  0.0185  0.1205 -0.0090
 2523W        W18417  10.071  13.680   2.182  0.0041  0.4176 -0.0361
 2524W        W18418   4.570   8.209   0.992 -0.3362  0.1804  0.1932
 2525W        W18419   8.275   3.158  12.265 -0.1245  0.3503  0.3003
 2526W        W18420   2.182   0.355  14.001  0.0002  0.0943  0.2173
 2527W        W18421  13.590   5.228  14.218 -0.0620 -0.1330 -0.1489
 2528W        W18422   9.458  16.621   3.307  0.0681 -0.0914 -0.2463
 2529W        W18423   6.393  10.075   2.219 -0.0704  0.0691 -0.1405
 2530W        W18424  11.082   1.640   3.905  0.1641 -0.4084  0.1045
 2531W        W18425   2.880  11.199   1.072 -0.2538 -0.1014  0.0136
 2532W        W18426  11.594   9.176   2.355  0.3999  0.2743 -0.0650
 2533W        W18427  13.187  13.283   1.320 -0.0414  0.2287  0.0821
 2534W        W18428  10.322   1.173   0.059  0.2344 -0.2293 -0.2556
 2535W        W18429  13.880   8.284  11.589 -0.1412  0.0933  0.1866
 2536W        W18430  17.511   3.249  15.560  0.0197 -0.5036  0.1341
 2537W        W18431  18.342   7.979   0.621  0.2466  0.1362  0.3417
 2538W        W18432  10.065   2.989   0.764  0.1666 -0.5461 -0.3001
 2539W        W18433  17.133  12.748   3.219 -0.2556  0.0643  0.2870
 2540W        W18434   6.801   1.557  14.919  0.0464 -0.0688  0.1196
 2541W        W18435  14.440  17.929   5.311  0.1789  0.3825  0.0683
 2542W        W18436   6.613  14.782  15.052 -0.0668 -0.0080 -0.0537
 2543W        W18437   3.293   2.434   0.603 -0.0843  0.1043  0.1411
 2544W        W18438   4.277   1.156  13.899 -0.3729 -0.1626 -0.5204
 2545W        W18439   7.208  15.210  15.676  0.1407 -0.1812  0.1561
 2546W        W18440   2.373  17.113   1.666 -0.1227 -0.2597  0.0637
 2547W        W18441   1.212   0.863   1.097 -0.1739 -0.1895  0.0811
 2548W        W18442  17.808   2.273  11.240 -0.3682 -0.4095 -0.0432
 2549W        W18443  12.877  12.792  15.264 -0.0399  0.1476 -0.3298
 2550W        W18444   1.523  12.521   0.961 -0.0478 -0.0472  0.0032
 2551W        W18445   8.605  15.197   0.691  0.0529 -0.2286 -0.2601
 2552W        W18446  15.249   9.311  13.183  0.2978 -0.2992 -0.0266
 2553W        W18447  17.980  10.507   4.648  0.0610 -0.1781  0.0395
 2554W        W18448  11.267  14.433   1.427 -0.1242 -0.0587  0.2424
 2555W        W18449   1.763   8.139  11.563 -0.0705  0.0318 -0.1411
 2556W        W18450   2.818  15.699  14.384  0.1110 -0.0213 -0.1470
 2557W        W18451  17.913  18.158   3.493  0.2322 -0.1530 -0.2776
 2558W        W18452  15.858  18.344  12.031  0.0235  0.0932 -0.1908
 2559W        W18453  12.814  11.584  12.316 -0.3723 -0.1221  0.2007
 2560W        W18454   3.461   8.037  13.009 -0.2826 -0.4116 -0.2371
 2561W        W18455   7.626   8.240  11.812 -0.2966 -0.0451  0.0148
 2562W        W18456  11.793  11.529  14.996 -0.1400  0.0329  0.0355
 2563W        W18457   1.913  15.705   0.636 -0.0203  0.0788  0.1593
 2564W        W18458   8.889  14.544  15.712 -0.0444  0.0689  0.0283
 2565W        W18459  18.307   4.232  12.961  0.0686  0.1398 -0.2631
 2566W        W18460  13.380  12.437  13.996 -0.1820  0.1767  0.1540
 2567W        W18461   9.847   3.527  14.143  0.0427  0.0929  0.1469
 2568W        W18462  12.891   6.688   0.934 -0.1915 -0.0017 -0.0729
 2569W        W18463   1.833   2.079   0.048  0.0420  0.1882  0.0231
 2570W        W18464  12.827  11.868   1.703  0.1957 -0.1830  0.0442
 2571W        W18465   2.960   7.739  13.876 -0.0860 -0.1951  0.0690
 2572W        W18466   1.707  10.875   3.542  0.2768 -0.0651  0.0215
 2573W        W18467   4.348  11.488  10.177  0.3988  0.0626 -0.3146
 2574W        W18468  14.853  14.645   4.576 -0.1064 -0.1007 -0.0702
 2575W        W18469  12.967   8.583   5.662  0.2019 -0.2641  0.1530
 2576W        W18470   2.497   6.870  11.159  0.0529 -0.0511  0.1428
 2577W        W18471   5.183   6.776   0.943  0.1964 -0.2465  0.0633
 2578W        W18472   1.441  15.432   4.124 -0.0825  0.1169 -0.0377
 2579W        W18473  10.464  12.120   1.855  0.0681  0.2069  0.0816
 2580W        W18474   8.728   0.899  12.012  0.1337  0.2837 -0.2536
 2581W        W18475  17.736  17.901   1.772 -0.2000  0.1359 -0.1790
 2582W        W18476   6.432  12.046  12.547  0.2797 -0.0221  0.2501
 2583W        W18477  16.877  18.446   0.981  0.3106 -0.3466 -0.2334
 2584W        W18478   8.220   5.102   3.466 -0.0419  0.1050  0.1583
 2585W        W18479  15.389   6.156   0.666 -0.0673 -0.0352  0.2848
 2586W        W18480   6.622  16.377   4.537 -0.3219 -0.1614 -0.3501
 2587W        W18481  11.617   3.966   4.252 -0.1697  0.1966  0.0367
 2588W        W18482  12.877   4.049  15.270 -0.0585  0.1803  0.0909
 2589W        W18483  13.042   9.011  14.044  0.0617  0.0689  0.1803
 2590W        W18484   1.332  16.856  11.297  0.2680 -0.1552 -0.0085
 2591W        W18485   0.098  15.163  14.303 -0.1317 -0.0064 -0.1562
 2592W        W18486  18.130   4.728   5.197 -0.0292 -0.1561 -0.1195
 2593W        W18487  13.667   4.170  15.845 -0.1107  0.2595 -0.1446
 2594W        W18488   6.341   2.466   3.919  0.1564 -0.2255 -0.3698
 2595W        W18489   5.618  12.612   0.049  0.0797 -0.1339  0.1609
 2596W        W18490   6.513  12.421  14.924  0.0758 -0.1162  0.0301
 2597W        W18491   1.549   6.033  11.634 -0.1827  0.2259 -0.1517
 2598W        W18492  15.202  14.627  14.706 -0.2305 -0.1201  0.1675
 2599W        W18493   6.371   4.194  16.014 -0.2178 -0.0553 -0.1320
 2600W        W18494  17.459   8.191  15.407  0.4263 -0.0854 -0.0839
 2601W        W18495   4.023   2.527   9.854 -0.4352  0.0352  0.4460
 2602W        W18496   4.938   0.812   3.437  0.0391 -0.0101 -0.0423
 2603W        W18497   9.729  10.024   2.572 -0.3360  0.3957  0.1329
 2604W        W18498   8.417   8.519  11.244  0.2531 -0.0901 -0.1252
 2605W        W18499   7.898  13.661   0.344  0.3917 -0.0223 -0.0375
 2606W        W18500  12.586   5.321   1.828 -0.2329  0.1557  0.1207
 2607W        W18501   8.804  13.406  13.605  0.0547  0.0632 -0.2528
 2608W        W18502   8.727   4.295   2.793  0.1935  0.0370  0.2500
 2609W        W18503  12.605  11.622   1.256 -0.2159  0.0016 -0.1367
 2610W        W18504  16.061   2.900  12.889  0.0846 -0.1675  0.1614
 2611W        W18505  18.282   9.124  16.062  0.2552 -0.1841  0.0397
 2612W        W18506   5.269   8.020  11.763  0.2868  0.0927 -0.0423
 2613W        W18507  10.049   1.962  14.004 -0.0391 -0.2248  0.0530
 2614W        W18508   8.350   6.010  15.355 -0.2146  0.0212 -0.0406
 2615W        W18509  13.099  11.871   1.245 -0.2344 -0.0757 -0.1063
 2616W        W18510  16.175  15.335  15.222 -0.4153 -0.1956  0.0708
 2617W        W18511  10.000   0.214   2.228 -0.2092 -0.2570 -0.1502
 2618W        W18512   6.352   3.903  15.051 -0.1986  0.2990  0.1663
 2619W        W18513  13.198   4.624   4.029 -0.2721  0.2760  0.0232
 2620W        W18514  13.265  13.348   3.897  0.0474 -0.0293 -0.0531
 2621W        W18515   4.075   4.323   3.687 -0.1728 -0.2698  0.0337
 2622W        W18516  16.694   9.656   5.925 -0.1649  0.3334 -0.4239
 2623W        W18517  13.146  17.432   2.812  0.1236 -0.3081 -0.2362
 2624W        W18518   7.327  10.443  11.396 -0.3427  0.2290 -0.0467
 2625W        W18519  13.356  18.109   6.112  0.1498 -0.0805 -0.3090
 2626W        W18520   1.579   2.231  15.207  0.1150 -0.1142  0.0108
 2627W        W18521  13.209  17.430  14.276 -0.1919 -0.2189  0.2988
 2628W        W18522   0.804  14.937   0.281 -0.0877 -0.3206  0.1737
 2629W        W18523   2.068   9.987   3.176 -0.4473 -0.1950 -0.1911
 2630W        W18524  16.054   3.695   0.182  0.0937 -0.1224 -0.1789
 2631W        W18525   3.500  11.198  13.535 -0.0397 -0.2375 -0.3985
 2632W        W18526   6.864   9.632  14.811  0.2287  0.0375  0.0701
 2633W        W18527   3.917   9.138   0.408  0.3669 -0.0039  0.0856
 2634W        W18528   6.470  16.207   3.382  0.2970  0.2247 -0.4233
 2635W        W18529  13.388  15.407  13.838  0.2258  0.0719  0.2377
 2636W        W18530   3.768   9.521   1.633  0.0593  0.0844  0.3552
 2637W        W18531   3.796  16.448   1.927 -0.2254 -0.1079 -0.2758
 2638W        W18532   8.305   5.309   5.070  0.1489 -0.2444 -0.2074
 2639W        W18533  12.860   8.639   4.656 -0.1334 -0.0217 -0.1389
 2640W        W18534   7.631  11.794  13.303  0.3700  0.1504  0.0750
 2641W        W18535   1.799  11.963  10.856  0.2594  0.1064 -0.2314
 2642W        W18536  13.595  13.438  12.485  0.1253  0.0103 -0.0731
 2643W        W18537   4.373  13.621  13.105 -0.1564  0.2279  0.3167
 2644W        W18538   6.478   1.262   2.315  0.2212 -0.1096 -0.0966
 2645W        W18539  14.463   1.139   4.135 -0.2589  0.0363  0.2451
 2646W        W18540   6.297   1.460  15.002  0.0264  0.0409 -0.1790
 2647W        W18541   0.014  13.378  12.206  0.0278  0.2475 -0.1172
 2648W        W18542  11.601   1.485  12.399 -0.1368  0.2727  0.1846
 2649W        W18543  12.024  15.183   1.948 -0.1201 -0.3420 -0.1697
 2650W        W18544   9.137   6.928  15.339  0.2725 -0.0228 -0.0094
 2651W        W18545  11.002  13.444  15.852  0.1350  0.1140  0.3619
 2652W        W18546   6.691  15.275   5.172 -0.1152 -0.1520 -0.3467
 2653W        W18547  15.181   3.676   3.667 -0.3170  0.0154 -0.0791
 2654W        W18548   7.061   9.182   2.086 -0.1959  0.2206  0.2824
 2655W        W18549  10.096  11.882   0.846  0.0673  0.0795 -0.4130
 2656W        W18550  12.834   1.548   0.405 -0.1061 -0.0177  0.1704
 2657W        W18551   2.049  15.914  12.716  0.0448  0.2139 -0.2934
 2658W        W18552   3.173  12.579   6.203 -0.1444 -0.0283  0.1157
 2659W        W18553   5.580  13.490  12.942  0.0570  0.3531  0.1586
 2660W        W18554   1.134   6.240   0.083 -0.4479  0.2890  0.1734
 2661W        W18555  13.153   7.293  15.214 -0.0830  0.0346  0.1288
 2662W        W18556  12.667  18.096  13.823  0.0707 -0.1164  0.1721
 2663W        W18557   8.577  10.792  12.341  0.1674  0.0431 -0.0637
 2664W        W18558   9.992   1.320   2.722  0.1236 -0.2117  0.0285
 2665W        W18559  13.712   0.039  11.645 -0.0392  0.0038 -0.1983
 2666W        W18560  12.341   6.008  12.809 -0.2885  0.1871  0.0931
 2667W        W18561  17.344   5.354   4.082  0.1088  0.2345  0.2957
 2668W        W18562   5.210  17.715   0.080 -0.7247 -0.1936  0.0791
 2669W        W18563  15.410   0.778   0.327 -0.0514  0.0722  0.0080
 2670W        W18564  14.238  10.757  11.728  0.2887 -0.1810 -0.2172
 2671W        W18565   1.219   7.510   2.274  0.0527  0.1846  0.1584
 2672W        W18566   6.104  10.474   0.857  0.3263 -0.0093  0.1032
 2673W        W18567  10.048   1.969  12.524  0.0585  0.1710 -0.2634
 2674W        W18568  12.538  11.028   0.351 -0.1528  0.0284 -0.1202
 2675W        W18569  14.767   6.792  11.987  0.1977 -0.3152  0.1886
 2676W        W18570  17.266  10.527   2.656  0.3364  0.1334  0.2125
 2677W        W18571  18.298  17.054  11.765 -0.0619  0.2425 -0.2903
 2678W        W18572  13.426   3.616   5.459 -0.0596 -0.3113  0.0752
 2679W        W18573   5.960  13.977   4.826  0.0175 -0.0394  0.1661
 2680W        W18574  14.857  15.866   2.391 -0.2026  0.2667  0.1400
 2681W        W18575   0.248  15.396   1.754  0.2455 -0.5545 -0.1715
 2682W        W18576  13.512  18.191   4.201  0.0636 -0.0882 -0.2325
 2683W        W18577   8.018  15.108   2.896  0.0042 -0.3215 -0.3726
 2684W        W18578   6.434  17.678   2.698  0.1754  0.0745 -0.2297
 2685W        W18579   9.344  15.847   1.424  0.0567  0.1964 -0.4743
 2686W        W18580   0.377  14.829   3.016  0.0968  0.3573 -0.1448
 2687W        W18581   7.438  13.638   4.604  0.4002 -0.0792 -0.0725
 2688W        W18582  13.563   4.452  10.987 -0.1357 -0.2335 -0.1373
 2689W        W18583   5.247  18.102   4.040 -0.1691 -0.3293  0.1779
 2690W        W18584  16.897  14.496  11.043 -0.1921  0.0636 -0.0728
 2691W        W18585  11.999  11.027  13.644  0.0187  0.1654 -0.2357
 2692W        W18586   8.255   5.020  11.428 -0.1024  0.0231  0.1194
 2693W        W18587  17.145   4.949   5.488  0.0853  0.2010  0.0678
 2694W        W18588   3.589   4.619   0.080 -0.1110 -0.0204  0.0742
 2695W        W18589  17.482   3.043   3.205  0.0475  0.2986 -0.0700
 2696W        W18590  18.051  14.608   2.778  0.3618  0.0643 -0.2624
 2697W        W18591  10.886  17.191   4.029 -0.0436 -0.0550 -0.0014
 2698W        W18592  17.662  13.680   4.103 -0.5829 -0.3421  0.0085
 2699W        W18593  16.677   9.459   3.593 -0.1687  0.2544 -0.0502
 2700W        W18594  11.203  14.885  11.434 -0.3570 -0.1360 -0.1632
 2701W        W18595  18.348   9.794  11.168  0.1101 -0.2376  0.5896
 2702W        W18596  15.987  14.848   5.524 -0.3760  0.0845 -0.1872
 2703W        W18597  15.252   1.682   0.366 -0.3117  0.4436 -0.2759
 2704W        W18598  15.051   9.829   1.186  0.0228  0.0204  0.1276
 2705W        W18599   8.345   4.098  10.996  0.0182  0.0137 -0.0959
 2706W        W18600  13.889  11.760   4.090 -0.1863 -0.0784  0.0909
 2707W        W18601   0.666   5.411  11.173  0.1057  0.1538  0.2266
 2708W        W18602   0.041   9.366   3.579  0.1626  0.0662  0.0072
 2709W        W18603   2.950   6.297  13.742  0.4357 -0.0005 -0.2746
 2710W        W18604  11.585   8.728   2.247  0.1104  0.2725 -0.0182
 2711W        W18605   6.988   8.383   1.011  0.0715  0.0688 -0.0945
 2712W        W18606  13.726   1.919  13.352  0.2816  0.1252  0.0972
 2713W        W18607  14.679   6.616  13.202 -0.1212 -0.1175 -0.0655
 2714W        W18608   9.671   5.419   5.102  0.3406  0.0276 -0.2483
 2715W        W18609  13.950  10.358   2.150 -0.0085 -0.1363  0.2819
 2716W        W18610  11.557   8.814  10.584 -0.0428 -0.2221 -0.0780
 2717W        W18611   1.783   8.530  11.904 -0.3442 -0.3217 -0.1223
 2718W        W18612  11.637  17.438   4.801 -0.0918  0.0917  0.0615
 2719W        W18613   3.933  12.915  10.713  0.2796 -0.0577  0.0911
 2720W        W18614  14.739   0.684   6.646  0.3901 -0.1628  0.0495
 2721W        W18615   5.947   4.604   2.637  0.1340 -0.0667  0.1921
 2722W        W18616  14.890  17.960   3.125  0.3311 -0.0987 -0.0671
 2723W        W18617   5.596   3.496   0.129  0.4257 -0.2510 -0.3495
 2724W        W18618  17.241  15.565  14.482  0.0658 -0.3219  0.0979
 2725W        W18619  15.930  16.124   2.158 -0.1829  0.1570  0.1449
 2726W        W18620  18.114   7.465   0.843 -0.0794 -0.1087 -0.1683
 2727W        W18621  11.947   1.315  10.525  0.0746  0.0005  0.0275
 2728W        W18622   8.289  10.019   0.048  0.1541 -0.4101 -0.3606
 2729W        W18623  10.131  17.557  12.516  0.1114 -0.0582 -0.0421
 2730W        W18624   7.054  18.171  14.521 -0.0520 -0.2252  0.0357
 2731W        W18625  11.273   4.416   2.112  0.0363  0.0295  0.0690
 2732W        W18626  13.278  11.324  15.224 -0.4038 -0.1827 -0.0059
 2733W        W18627  11.299   9.458   0.841 -0.1338  0.1067 -0.0108
 2734W        W18628  12.264   7.966  14.573  0.1962 -0.0228 -0.1307
 2735W        W18629   4.345   9.121   4.649 -0.2383 -0.1723 -0.1522
 2736W        W18630  11.633   7.246  13.936  0.0292  0.2265  0.1058
 2737W        W18631  17.140   5.535   4.530  0.1445 -0.0706 -0.1263
 2738W        W18632   6.367   1.206  13.691  0.3819  0.0546  0.1631
 2739W        W18633  10.202  15.305  14.279  0.1663 -0.1700 -0.0271
 2740W        W18634  10.926  12.732   3.003 -0.5143 -0.0827 -0.1662
 2741W        W18635   7.340   8.609   0.325 -0.0137 -0.0517  0.1776
 2742W        W18636   8.996  17.697   1.233 -0.0226 -0.1850  0.0424
 2743W        W18637  11.643  10.559   5.999 -0.0681  0.2221  0.1525
 2744W        W18638  11.354  15.156  14.788 -0.1198  0.0245  0.0243
 2745W        W18639  15.216   3.297   2.490  0.0099 -0.2224 -0.1066
 2746W        W18640  16.432   9.884  12.044  0.2081 -0.0756 -0.4940
 2747W        W18641  10.311   8.902  14.531  0.0132  0.0048 -0.2333
 2748W        W18642  15.432   3.493  14.212  0.3157  0.2001  0.0187
 2749W        W18643   8.707   6.657  13.378  0.1238  0.3014  0.1851
 2750W        W18644   6.080  14.491  14.421  0.0435 -0.0916 -0.3142
 2751W        W18645   9.551   1.909   0.170 -0.0058 -0.2511 -0.1607
 2752W        W18646  12.700   8.289   3.018  0.2537 -0.1319 -0.2305
 2753W        W18647   6.170   9.461   2.940  0.1010  0.2388 -0.1061
 2754W        W18648  16.351  14.683   4.169 -0.1114  0.3828  0.2809
 2755W        W18649   1.738   4.576  12.290 -0.0126 -0.0780 -0.4456
 2756W        W18650   3.232  10.100   5.373 -0.2074 -0.0180 -0.0425
 2757W        W18651  18.103   5.593   3.586  0.1135 -0.2096  0.0726
 2758W        W18652   2.381  14.700   4.229  0.1486  0.3590 -0.0878
 2759W        W18653  15.519   7.143  15.386 -0.3930  0.0483  0.0830
 2760W        W18654   1.514   2.561  13.325 -0.1529  0.1122  0.2259
 2761W        W18655  10.734   9.128   3.728 -0.0221  0.2993 -0.3535
 2762W        W18656   0.011   1.498  10.036  0.1921 -0.0681  0.0073
 2763W        W18657  16.616   1.728   2.132 -0.1798  0.0353  0.0695
 2764W        W18658  12.723  16.968  12.129  0.1308 -0.1064 -0.0199
 2765W        W18659  12.056   8.013   0.584 -0.2480  0.1594 -0.0309
 2766W        W18660   9.895  14.188   2.285  0.3187  0.0422 -0.2032
 2767W        W18661   8.964   4.169   0.910  0.1196 -0.1779  0.0752
 2768W        W18662   1.539   7.673  16.109  0.2219 -0.1468 -0.0077
 2769W        W18663  11.055   8.725  11.612 -0.0619 -0.4409  0.2380
 2770W        W18664  11.524  16.582   1.701 -0.2034  0.1133 -0.1353
 2771W        W18665   5.550   1.282   1.582 -0.0277  0.2790 -0.0876
 2772W        W18666  16.635   5.362   4.701  0.1674  0.1994  0.0023
 2773W        W18667  11.165  17.647  12.976  0.3183 -0.1685 -0.0195
 2774W        W18668  11.673  14.891   2.240 -0.1552 -0.0855 -0.0105
 2775W        W18669  11.105  16.906  13.436 -0.0983 -0.2066 -0.2466
 2776W        W18670  16.808  17.899   0.363  0.0101  0.0899 -0.0935
 2777W        W18671  11.253  16.488   2.342  0.0253 -0.0265 -0.0337
 2778W        W18672  17.066  17.431  11.566 -0.0190  0.2711 -0.3810
 2779W        W18673  12.503  17.948   2.571  0.4491 -0.1999 -0.0035
 2780W        W18674   0.843  15.542   1.440  0.0297 -0.2137  0.1584
 2781W        W18675   2.395   3.028  15.717  0.1021  0.0516  0.2104
 2782W        W18676   0.470   1.877   0.194 -0.0792  0.0157  0.2567
 2783W        W18677  10.824  12.994  15.834 -0.1531  0.1041  0.2139
 2784W        W18678  11.693   6.259   3.800  0.0600 -0.0407 -0.3043
 2785W        W18679  18.324  12.363   2.124 -0.1032 -0.0055  0.1118
 2786W        W18680   3.315   9.875  11.826  0.0695 -0.1917  0.1343
 2787W        W18681  12.623   6.977  14.483  0.0143  0.2482  0.2334
 2788W        W18682   3.062  15.797   1.463 -0.1085 -0.1921 -0.1525
 2789W        W18683   6.710  18.155   2.835  0.0594 -0.0025  0.4544
 2790W        W18684   7.924   9.028   6.048 -0.0891 -0.0212 -0.2159
 2791W        W18685   2.294   4.393  14.095  0.2061 -0.0105 -0.0665
 2792W        W18686   2.341   4.784   2.101 -0.0189 -0.0797  0.1108
 2793W        W18687   4.090   1.312   5.837  0.0464  0.0951 -0.0991
 2794W        W18688  11.040   3.531  13.474  0.1314 -0.2882 -0.0942
 2795W        W18689   5.301  16.369  11.066 -0.0214 -0.1274  0.0264
 2796W        W18690  14.847   8.452  12.799  0.2796 -0.1677 -0.0725
 2797W        W18691   1.348   5.754   3.796  0.2380 -0.1171 -0.0454
 2798W        W18692  12.669  12.759  14.834 -0.2315 -0.1556 -0.1022
 2799W        W18693   4.826   4.144   5.382  0.2291  0.0929  0.0216
 2800W        W18694  11.225   9.028   3.593 -0.0075 -0.0919 -0.3029
 2801W        W18695   6.338   9.459  13.134  0.3574 -0.1394  0.1204
 2802W        W18696  15.643   7.814   5.353 -0.1204  0.1521 -0.0505
 2803W        W18697  10.811  16.627   1.226 -0.0053  0.2263 -0.1937
 2804W        W18698   9.195  18.415   1.797 -0.1740  0.3872  0.2919
 2805W        W18699   6.196  14.451   1.261  0.1766 -0.0027 -0.1017
 2806W        W18700  16.078   6.121  13.923 -0.1169  0.1113  0.1001
 2807W        W18701   8.875  18.312   4.505  0.3159 -0.0724 -0.3598
 2808W        W18702  17.035   0.594  15.932  0.0698  0.0503  0.2703
 2809W        W18703  18.094  13.992  14.852  0.2625 -0.1357 -0.0858
 2810W        W18704  11.461  13.526   3.316  0.2218  0.0024  0.3364
 2811W        W18705  13.576   7.215   2.996  0.3016 -0.1633  0.0231
 2812W        W18706  11.229  12.208   2.943  0.1103 -0.1704  0.0640
 2813W        W18707   9.429   6.035  11.942  0.0554  0.0765  0.3149
 2814W        W18708   2.246   4.499   2.479 -0.2138 -0.1050 -0.4424
 2815W        W18709   9.920  16.458  13.426  0.0029 -0.2400 -0.2201
 2816W        W18710   1.602  13.382   4.119  0.1249 -0.0546  0.0749
 2817W        W18711  14.644  10.474   3.621 -0.0907  0.1343 -0.1457
 2818W        W18712   0.465   9.575   5.241 -0.0394  0.1946 -0.0504
 2819W        W18713   9.367   4.135   5.432  0.1835  0.0472  0.0740
 2820W        W18714  11.882   7.716  12.540 -0.1995 -0.1184 -0.1548
 2821W        W18715   1.024  10.843  15.917 -0.0036 -0.3562  0.0149
 2822W        W18716  17.587  18.445   3.206  0.0488  0.4039  0.3294
 2823W        W18717  12.846  12.184  14.321  0.2716  0.0870 -0.0288
 2824W        W18718   1.549  16.833   2.186 -0.2121 -0.3151  0.1038
 2825W        W18719  18.246  17.304  15.984  0.0554 -0.1167  0.0357
 2826W        W18720  15.106  15.503   5.355  0.1039 -0.2367 -0.0107
 2827W        W18721  10.098  16.927  13.392  0.2145  0.1697  0.1619
 2828W        W18722   5.068  17.714  11.205  0.1307  0.1571 -0.0751
 2829W        W18723  14.270   0.412  12.229  0.3516  0.1013  0.0701
 2830W        W18724  14.563   6.853   0.322 -0.1475 -0.0843  0.0727
 2831W        W18725   3.173  15.616  14.822  0.2537  0.0905  0.1003
 2832W        W18726   7.833   8.399   3.637 -0.0076 -0.2248  0.2831
 2833W        W18727  10.209   5.562   5.167  0.2283  0.1604  0.1393
 2834W        W18728   4.364   1.070  10.941 -0.2845 -0.2775 -0.3930
 2835W        W18729  10.776   0.045  13.339 -0.1881  0.3035 -0.1460
 2836W        W18730   4.166  12.231  12.726 -0.0149 -0.1367  0.0787
 2837W        W18731   4.372  13.006  14.273  0.0754 -0.0057  0.0432
 2838W        W18732   3.822   6.618  11.772 -0.2577 -0.0577  0.1908
 2839W        W18733   1.309   2.900   0.733  0.0158 -0.0049  0.1584
 2840W        W18734  10.964   7.422   4.100 -0.3350 -0.1902  0.0676
 2841W        W18735   3.810   0.676  12.118  0.0634 -0.0784  0.1568
 2842W        W18736   8.427  12.128   4.075 -0.0454  0.0832 -0.2322
 2843W        W18737   1.109   1.290   4.124  0.0612  0.3129 -0.1556
 2844W        W18738  15.785  12.068   4.998  0.0128  0.0511  0.0833
 2845W        W18739   7.267  16.732  11.147 -0.1985  0.1252  0.0770
 2846W        W18740   5.006   0.823   0.259  0.2195  0.1208  0.2728
 2847W        W18741  17.650   1.369   3.496  0.0180  0.1870 -0.1931
 2848W        W18742  17.065   8.200   2.483  0.1069  0.1214  0.2637
 2849W        W18743  16.672   1.205   3.197  0.1906 -0.3810  0.0805
 2850W        W18744   3.448  12.816  12.872  0.1031  0.0120 -0.1048
 2851W        W18745  13.437  16.065   4.064  0.3163  0.1558 -0.2046
 2852W        W18746   3.480   9.979  12.783  0.0110  0.0264 -0.0863
 2853W        W18747   6.786   1.728  14.466 -0.1123  0.0349  0.0531
 2854W        W18748  10.952  15.691   2.411 -0.1887  0.1754  0.3025
 2855W        W18749  13.811  10.881  13.979  0.0550  0.3643  0.0056
 2856W        W18750   7.523   2.078  12.570  0.0701 -0.0120  0.1310
 2857W        W18751  14.429  17.456  11.943 -0.3250  0.0558 -0.0570
 2858W        W18752   1.314  10.570   4.914 -0.1300  0.3238 -0.1846
 2859W        W18753  13.036  12.934  13.963 -0.1666  0.0029 -0.1887
 2860W        W18754   0.060   1.491   3.952  0.1189 -0.4129  0.0477
 2861W        W18755  10.334  11.736  10.632  0.0571 -0.3393 -0.3028
 2862W        W18756  12.789  15.907   3.283  0.3233 -0.0457 -0.1054
 2863W        W18757   2.064   0.546   3.586  0.3291  0.2938 -0.0293
 2864W        W18758   2.418  15.297   2.723  0.0188 -0.3273  0.0493
 2865W        W18759   9.726   1.533   5.171 -0.0772 -0.1014  0.1132
 2866W        W18760   1.800  11.624  11.339  0.0671  0.1591  0.1119
 2867W        W18761   4.905   8.481  11.050  0.2331  0.2034 -0.1239
 2868W        W18762  14.588  12.181   2.135  0.0873 -0.1396  0.3436
 2869W        W18763   8.710   4.503  12.417 -0.0329  0.1217 -0.0549
 2870W        W18764  17.558  15.265   2.347  0.0494 -0.1020 -0.0280
 2871W        W18765  14.064  17.206   1.192 -0.0841  0.1886 -0.1433
 2872W        W18766   9.053   5.253  11.431 -0.0020  0.2805 -0.1261
 2873W        W18767  17.212  10.817  12.836  0.1382  0.0981 -0.2585
 2874W        W18768   2.200  10.433   0.289 -0.2489 -0.2682  0.0235
 2875W        W18769   9.443   7.175  11.191 -0.2107 -0.2048 -0.1992
 2876W        W18770   5.831  18.259  10.953  0.0253 -0.2370  0.1070
 2877W        W18771  14.485  13.622   3.940  0.1096 -0.4199  0.0810
 2878W        W18772   5.175   3.587  15.927 -0.4466  0.1084  0.0711
 2879W        W18773   7.356   9.823   2.729 -0.0887  0.0134 -0.0272
 2880W        W18774   4.757  13.429  15.881  0.1385 -0.1935 -0.0608
 2881W        W18775  15.002  14.251   3.154  0.0962 -0.1839 -0.1244
 2882W        W18776  11.435   0.293  11.084 -0.1266  0.3280  0.3685
 2883W        W18777  17.518  14.560   4.478  0.0307 -0.2888 -0.2474
 2884W        W18778  17.776  14.954   2.004  0.2528  0.2949  0.3887
 2885W        W18779   7.143   3.284   4.800  0.0934  0.4988 -0.1350
 2886W        W18780  11.085  13.826   0.795 -0.0372  0.1249 -0.0344
 2887W        W18781  13.877   5.029   2.526 -0.0462 -0.1364 -0.0344
 2888W        W18782   4.425  10.516  12.911 -0.4253 -0.2320  0.1346
 2889W        W18783   1.042   2.351  12.464  0.2296  0.0827 -0.1534
 2890W        W18784  15.899   6.259  15.063 -0.1167 -0.2024  0.0705
 2891W        W18785   1.322  13.919   4.613 -0.0483  0.0368  0.2063
 2892W        W18786   5.410   8.456   1.629  0.0549 -0.1249  0.1239
 2893W        W18787  15.351  18.174  15.776 -0.0310  0.1171 -0.3598
 2894W        W18788   0.570  15.539  14.777  0.4785  0.2876 -0.3874
 2895W        W18789  16.448   1.068  15.093  0.0944 -0.1144  0.2641
 2896W        W18790  17.887   4.662   1.252 -0.1861  0.0852 -0.1364
 2897W        W18791  17.371   1.474   4.672 -0.0735  0.0505 -0.3470
 2898W        W18792   9.269   6.465  13.481  0.1819 -0.0179  0.0158
 2899W        W18793   4.997   3.379   3.697 -0.2891  0.2963 -0.1202
 2900W        W18794   9.490  14.165  13.368  0.2280  0.0427  0.0591
 2901W        W18795  17.317   8.868   0.841 -0.0890  0.1913  0.1354
 2902W        W18796  14.781  11.799   0.204  0.0134 -0.1193 -0.5795
 2903W        W18797   0.228  10.017  14.472 -0.1701  0.0197  0.1774
 2904W        W18798   5.842  17.348  11.667 -0.0287 -0.1594 -0.1979
 2905W        W18799  15.133   6.425   2.840  0.0909  0.1425 -0.0565
 2906W        W18800  10.856  11.497  15.024  0.0355  0.2053 -0.0445
 2907W        W18801   1.330  10.960   0.166 -0.0555 -0.0624  0.2048
 2908W        W18802   4.623  10.979   3.209 -0.0311 -0.0481  0.3413
 2909W        W18803   6.433  13.963  13.814  0.3849 -0.2561  0.0980
 2910W        W18804  13.877  16.980  13.442 -0.2571  0.2076 -0.4166
 2911W        W18805  17.449  16.990  16.067  0.1230 -0.3822  0.0795
 2912W        W18806  18.115  15.166   5.881 -0.0019 -0.0432 -0.1938
 2913W        W18807  14.738   9.109   0.755  0.0129  0.1157 -0.4412
 2914W        W18808  15.965  11.052  13.961 -0.1243 -0.1377 -0.0053
 2915W        W18809  10.478   6.847  12.826 -0.0180 -0.0508  0.1316
 2916W        W18810   1.776   3.417  16.100  0.1611  0.3084  0.0090
 2917W        W18811   1.553   4.816   3.901 -0.1583  0.0475  0.0990
 2918W        W18812   0.488   5.753   3.896  0.0780  0.1388  0.1741
 2919W        W18813   4.464  12.467   3.242 -0.2993  0.2556 -0.1889
 2920W        W18814   5.705   4.443  14.028 -0.0049 -0.2261 -0.0648
 2921W        W18815  14.823   4.412  13.695 -0.0282  0.1363  0.0121
 2922W        W18816   9.464   3.867  11.930  0.1344 -0.0146  0.1364
 2923W        W18817   2.588  16.008   1.368  0.1064  0.0615  0.0434
 2924W        W18818   6.536  10.199   1.030 -0.4855  0.0573 -0.0344
 2925W        W18819  15.112  16.677  15.046 -0.2075 -0.2019  0.2103
 2926W        W18820  17.112  11.328   4.263 -0.0539 -0.1789 -0.0195
 2927W        W18821   2.269   5.541   4.863  0.4157  0.0610 -0.1562
 2928W        W18822  13.573   4.424   1.308  0.2538 -0.2655  0.0265
 2929W        W18823   9.345  13.922   1.863 -0.3049 -0.1916 -0.0460
 2930W        W18824   0.546  13.206  14.252  0.1462 -0.2200  0.2752
 2931W        W18825  16.843  10.829  15.735 -0.2911 -0.0032  0.0867
 2932W        W18826   3.455   0.608  14.377 -0.1587  0.0680  0.2304
 2933W        W18827   2.994   9.537   3.694 -0.1362 -0.0630  0.0374
 2934W        W18828   5.037  18.074  13.221  0.0518 -0.2887  0.1120
 2935W        W18829   4.680   8.738  12.300 -0.0902  0.1260  0.0558
 2936W        W18830   3.768   2.212   0.682 -0.1177  0.1558 -0.1266
 2937W        W18831  13.437   3.180  11.726 -0.2588 -0.0178  0.2872
 2938W        W18832  11.992  12.161   9.718  0.1153  0.0470  0.1960
 2939W        W18833  11.192  12.759   5.842 -0.1469  0.3517 -0.5979
 2940W        W18834  17.215  13.883   0.277  0.1053 -0.0614 -0.3760
 2941W        W18835   5.279   2.743  15.891 -0.2560 -0.0679 -0.1703
 2942W        W18836   9.364   6.835  11.988 -0.1954  0.0649 -0.1185
 2943W        W18837   2.826  12.408   1.412  0.0616  0.2193 -0.0182
 2944W        W18838  18.089  15.172   3.498 -0.1756 -0.1800 -0.1098
 2945W        W18839   5.309   7.596  11.406  0.0551 -0.2876  0.1133
 2946W        W18840  10.489   0.978  11.759  0.0480  0.0829 -0.1376
 2947W        W18841   1.734   6.530  11.537  0.0297 -0.0267 -0.1475
 2948W        W18842   4.156  11.199  12.897 -0.2473  0.1644  0.0616
 2949W        W18843   0.988   9.981   2.432 -0.0239 -0.0336  0.0635
 2950W        W18844  11.847   5.981   2.947 -0.0141 -0.0511  0.0253
 2951W        W18845  14.021  16.344   0.456  0.0236  0.0068  0.0629
 2952W        W18846  16.391  16.914  13.100  0.1369  0.2104 -0.0393
 2953W        W18847   6.901   0.587  11.276 -0.0289  0.0719  0.0240
 2954W        W18848  16.332  15.300  15.996  0.0069  0.0837 -0.3126
 2955W        W18849  14.348  15.357  13.857 -0.3967  0.0675 -0.2426
 2956W        W18850  13.265   8.257   2.731  0.1757 -0.2610 -0.1197
 2957W        W18851   7.703  18.306  13.287  0.4663  0.1377 -0.0535
 2958W        W18852   6.757  10.356   5.525  0.0654  0.3084  0.0104
 2959W        W18853   1.979   0.994   0.063  0.3961 -0.5920  0.1446
 2960W        W18854   7.084   5.676  11.306  0.0716 -0.2565 -0.0177
 2961W        W18855  12.378   3.614   1.924 -0.0740 -0.1553 -0.1633
 2962W        W18856   0.603  16.657  13.527 -0.1361  0.0546  0.1844
 2963W        W18857   7.155   9.191   5.389  0.1941 -0.4247 -0.0829
 2964W        W18858   8.487   6.178  13.908 -0.1281  0.1109  0.2263
 2965W        W18859  15.740  18.278   5.377 -0.2914  0.1389  0.1326
 2966W        W18860   5.507   4.460  11.516 -0.3884 -0.0190  0.0794
 2967W        W18861   0.827   1.085  14.753  0.0016 -0.1764 -0.2576
 2968W        W18862  12.529  17.866   3.895 -0.1651 -0.1311  0.1835
 2969W        W18863   0.671  10.024   4.670 -0.0371  0.2129  0.1308
 2970W        W18864   8.365  12.032  13.189  0.0471 -0.0308  0.2434
 2971W        W18865   7.497   4.246  11.001  0.0690  0.3292 -0.1124
 2972W        W18866  11.528  15.251  14.271 -0.3403 -0.3525 -0.2610
 2973W        W18867  16.900   0.545   0.303 -0.1952  0.1607 -0.1434
 2974W        W18868   0.163  13.494  10.797  0.1894 -0.1876 -0.0146
 2975W        W18869   4.838   9.692   0.983 -0.0642  0.0335  0.0569
 2976W        W18870   0.321   6.728  11.084  0.0593  0.0633 -0.3272
 2977W        W18871  12.155  16.915   1.662 -0.0416  0.0495  0.2829
 2978W        W18872   0.484   9.966   0.569  0.1361  0.4216  0.1602
 2979W        W18873  17.370   0.157   5.186 -0.1417 -0.6543  0.0684
 2980W        W18874   4.336   2.938   1.788  0.3517  0.3267 -0.0029
 2981W        W18875  17.217   4.330   2.264 -0.1616  0.3104  0.1402
 2982W        W18876   8.682   0.326   4.628 -0.3246 -0.2280  0.1506
 2983W        W18877   8.269  12.331  15.138  0.2045  0.1308 -0.2066
 2984W        W18878  16.233   8.991   6.476  0.1289 -0.2164  0.1387
 2985W        W18879  17.963  14.607   4.765 -0.2995  0.2907  0.1138
 2986W        W18880  17.945   5.400   4.822 -0.0380 -0.0658 -0.2690
 2987W        W18881   4.653   5.078   5.211  0.2694 -0.1700 -0.0048
 2988W        W18882   3.927  10.324   4.402 -0.1761  0.1672  0.3387
 2989W        W18883   9.898   6.482   2.782 -0.1156  0.1054  0.1612
 2990W        W18884   5.567  12.379  12.928  0.1303  0.0274  0.0317
 2991W        W18885   9.065  12.130   2.869  0.1138 -0.2031 -0.3160
 2992W        W18886  11.485   4.218   3.720  0.0547 -0.0593  0.1809
 2993W        W18887  11.980  13.051   1.277  0.0920 -0.2025  0.3095
 2994W        W18888  14.915   9.357  14.240 -0.0341 -0.2339 -0.0061
 2995W        W18889   4.487  13.171  11.308  0.0035 -0.1889 -0.0659
 2996W        W18890   8.836  16.352  13.749 -0.1941 -0.0421  0.0320
 2997W        W18891   8.248  15.001   5.428  0.2125  0.1566  0.2112
 2998W        W18892  15.483  17.761  15.371 -0.0477 -0.0296 -0.0675
 2999W        W18893  16.843  12.880  11.554  0.1609 -0.1012 -0.0531
 3000W        W18894  16.522   9.215   0.365 -0.3140 -0.0098  0.0379
 3001W        W18895  15.295  10.200  15.060  0.0265 -0.0161  0.1457
 3002W        W18896  15.718  11.762   2.837 -0.1058  0.4388  0.0232
 3003W        W18897   2.500   3.012  11.249  0.2505  0.2822 -0.0590
 3004W        W18898   2.542   7.135  15.408  0.1823  0.2516  0.1705
 3005W        W18899   1.055  10.663  13.571 -0.0909  0.0539 -0.1141
 3006W        W18900   8.999  17.650   3.855 -0.0019 -0.0882 -0.0780
 3007W        W18901   5.491   8.550  13.787 -0.1678  0.0578 -0.1287
 3008W        W18902   6.921  10.271   2.237 -0.1506 -0.0743 -0.0191
 3009W        W18903   1.006   2.923   3.576  0.1637  0.1493 -0.0874
 3010W        W18904  12.151  13.132   2.647  0.1197 -0.0696  0.4811
 3011W        W18905  10.856   7.862  15.300 -0.0610 -0.2627  0.0692
 3012W        W18906  12.622   4.339  14.254 -0.1403  0.0698  0.1396
 3013W        W18907   4.622   1.891  12.195  0.1513  0.0979  0.1775
 3014W        W18908   5.890   3.919  13.984  0.0160  0.0062 -0.0624
 3015W        W18909   1.376   5.406  13.140 -0.1285  0.1583  0.3775
 3016W        W18910   8.786   1.812   5.005 -0.2125  0.0643 -0.3340
 3017W        W18911   4.070  16.214   0.333 -0.2830 -0.1235  0.1533
 3018W        W18912   8.658  11.636  12.679  0.4396 -0.0747 -0.0577
 3019W        W18913   8.924  16.319   5.160  0.0552  0.0118  0.1108
 3020W        W18914  15.164  11.379  12.885  0.0236 -0.0227  0.2263
 3021W        W18915  11.080   6.868   1.788  0.0903  0.0082 -0.2078
 3022W        W18916  12.931  16.742  14.166 -0.3074 -0.3436 -0.0430
 3023W        W18917  15.987   2.001   4.855 -0.1257  0.3788  0.1847
 3024W        W18918   0.044   0.863   4.282 -0.1265 -0.2953 -0.2087
 3025W        W18919   6.720   7.489   1.610  0.0732  0.2536  0.1050
 3026W        W18920   0.212   6.636   0.913 -0.1553 -0.1777  0.0726
 3027W        W18921   2.017  12.819   4.052 -0.2887 -0.0717  0.2103
 3028W        W18922   5.601   8.191  14.837  0.1607  0.1580 -0.0129
 3029W        W18923   6.532  12.062  15.294  0.0438 -0.0604 -0.0992
 3030W        W18924   3.665  13.041   0.566 -0.0898 -0.1846 -0.1063
 3031W        W18925   7.681   7.850   5.590 -0.0034  0.1021 -0.1573
 3032W        W18926  12.348  14.960  11.473  0.3008 -0.0961  0.0493
 3033W        W18927  17.462  14.293   5.058  0.2915  0.0951  0.0833
 3034W        W18928   2.251   3.156   0.524 -0.2452  0.2627 -0.0703
 3035W        W18929   3.061  17.168   4.685 -0.2246  0.0761 -0.2594
 3036W        W18930   1.117  13.188   0.421 -0.2142  0.0764  0.0486
 3037W        W18931  15.783  13.331  12.210  0.1979  0.4089 -0.0710
 3038W        W18932  13.725   7.139   0.008  0.0760  0.0105 -0.0913
 3039W        W18933  12.368   4.700   5.027 -0.1583 -0.1330 -0.1079
 3040W        W18934   5.739  15.280  14.038 -0.2934  0.0828  0.1048
 3041W        W18935  12.187  12.793   4.588 -0.0514  0.0859 -0.0265
 3042W        W18936   5.357  10.616   1.965 -0.2459 -0.2616  0.0806
 3043W        W18937  18.426   6.628  13.138  0.0097  0.0551  0.0588
 3044W        W18938  14.610   8.470   4.437 -0.2266 -0.1288 -0.0396
 3045W        W18939  12.131   3.888   0.967  0.0821 -0.0228  0.1067
 3046W        W18940  15.177   2.402  15.664  0.0942  0.1638  0.5643
 3047W        W18941   9.307   8.855   5.407  0.5113  0.1275 -0.0796
 3048W        W18942   1.478   4.002  11.961  0.1287  0.1316 -0.0092
 3049W        W18943  12.278   4.958  14.859  0.1297 -0.1047  0.2336
 3050W        W18944   8.046   8.268   5.257  0.1686 -0.1011 -0.0843
 3051W        W18945   1.129   6.807   0.239 -0.0075  0.1115 -0.1547
 3052W        W18946   9.240  16.450  12.769  0.1271 -0.1623  0.0438
 3053W        W18947   1.532   5.395   0.113 -0.3485 -0.1650  0.0723
 3054W        W18948  10.656   3.882   2.500 -0.0332  0.1971 -0.2671
 3055W        W18949   4.074   4.088   6.013  0.1048  0.4559  0.1989
 3056W        W18950  10.134   2.194  13.583 -0.0335 -0.0399 -0.2333
 3057W        W18951   2.458  13.918   4.149  0.2432 -0.0799 -0.2653
 3058W        W18952  13.456   3.819  14.066  0.3596  0.4324  0.0330
 3059W        W18953   5.778   9.607   4.303 -0.0202  0.0200 -0.0189
 3060W        W18954   7.711   9.458  11.956 -0.1882 -0.0706  0.0209
 3061W        W18955  13.168   9.418  14.992  0.4396  0.3382  0.0670
 3062W        W18956   0.905  18.137  14.471  0.0193  0.3780 -0.1694
 3063W        W18957   6.807   6.113   2.531  0.0593 -0.1662 -0.0564
 3064W        W18958   4.392  14.728  11.547  0.0632  0.2358 -0.0791
 3065W        W18959   7.291   5.576  12.806  0.0055  0.0216  0.0977
 3066W        W18960  13.296  16.215   3.549  0.2164 -0.0551  0.2159
 3067W        W18961   7.219   4.341   0.489  0.0471  0.0183 -0.2683
 3068W        W18962   2.588   6.681   0.282 -0.0413 -0.0097  0.1176
 3069W        W18963  15.354  17.764  14.169  0.1915 -0.0098 -0.2127
 3070W        W18964   6.415  14.260  14.758 -0.1757  0.1766 -0.0349
 3071W        W18965  12.505  13.179   4.686 -0.1369  0.0756 -0.0097
 3072W        W18966  11.674  16.391  15.949 -0.1723 -0.0108  0.0514
 3073W        W18967   1.544   6.116   0.808 -0.2378  0.1513 -0.0078
 3074W        W18968  15.353  17.826   4.985  0.1384 -0.1865 -0.0547
 3075W        W18969  11.366  10.922  13.685  0.0615  0.2626  0.0319
 3076W        W18970  16.091  18.292   0.595 -0.0566  0.1852  0.0601
 3077W        W18971   3.823  12.856   2.401  0.3641  0.1238 -0.2821
 3078W        W18972  17.361   4.401   5.390 -0.1276 -0.1973  0.1815
 3079W        W18973  14.127   6.926  13.238 -0.0282  0.0704  0.0488
 3080W        W18974  12.742   8.507  13.576  0.0492 -0.1519 -0.2627
 3081W        W18975  15.202   3.139   3.552 -0.3283 -0.0478 -0.1563
 3082W        W18976   9.044  15.500  13.815 -0.1623  0.1363  0.0438
 3083W        W18977   5.606   4.926  11.829 -0.1936 -0.0587 -0.1865
 3084W        W18978   6.739   3.903   3.017  0.1418  0.2710 -0.0570
 3085W        W18979   3.912   3.386   0.935  0.2114  0.3209 -0.0382
 3086W        W18980  12.879   4.355  12.851  0.0781 -0.0253  0.1008
 3087W        W18981  16.245  13.376   5.493  0.0247 -0.0312 -0.1144
 3088W        W18982  16.290  12.081   5.663 -0.1933  0.0394 -0.2071
 3089W        W18983   0.811   4.203   3.925 -0.1266 -0.1030 -0.0664
 3090W        W18984   7.454   6.363  15.390 -0.1843  0.1330 -0.2839
 3091W        W18985   8.234   4.280  14.403 -0.3720  0.0558  0.2961
 3092W        W18986  13.652  17.404   0.177 -0.2269 -0.1845  0.0887
 3093W        W18987   7.020   9.586   3.618  0.1280  0.0534  0.0971
 3094W        W18988   4.344  14.064   1.408  0.0184 -0.1714 -0.0889
 3095W        W18989   2.924  12.959  13.372  0.0777 -0.1194  0.1505
 3096W        W18990   4.502   2.174  16.104 -0.0671  0.3798  0.0289
 3097W        W18991   1.513   4.426   5.102 -0.0838  0.1385  0.2516
 3098W        W18992  14.909   2.477   0.891  0.2177  0.0907 -0.1537
 3099W        W18993  12.466   7.920   3.305  0.2027  0.2938  0.1362
 3100W        W18994  14.922  11.085  11.080 -0.4977 -0.2015 -0.0138
 3101W        W18995   5.098   9.635  15.134 -0.0782 -0.0574 -0.0913
 3102W        W18996   4.278   2.307  14.219 -0.2609 -0.4281  0.1770
 3103W        W18997   5.071  16.851  15.749 -0.0891 -0.0779 -0.1834
 3104W        W18998  11.531  16.098  11.459 -0.2702 -0.1244  0.0533
 3105W        W18999   2.168   5.754   6.577  0.2718 -0.0621  0.0695
 3106W        W19000   9.756   3.846  13.673  0.3319 -0.1532  0.1053
 3107W        W19001   7.456  10.606  12.182 -0.1838 -0.3380 -0.1080
 3108W        W19002  16.486   9.687   1.164  0.1688 -0.3220  0.0016
 3109W        W19003  14.079  16.894   1.775  0.0804 -0.1605  0.1096
 3110W        W19004   0.170   6.694  15.952 -0.1002  0.3000 -0.3766
 3111W        W19005   5.603   0.443  13.970 -0.0685  0.0281 -0.4201
 3112W        W19006  11.698  13.025   2.194 -0.2150  0.3087  0.0358
 3113W        W19007   1.343  18.401   1.356  0.0817  0.4090  0.0129
 3114W        W19008   2.441   6.270   3.137 -0.0148  0.0937 -0.1726
 3115W        W19009  16.327   7.067   1.512 -0.3277  0.0454 -0.0717
 3116W        W19010  15.381  13.472   3.304 -0.2348  0.0157 -0.1755
 3117W        W19011   9.182  16.350  14.219 -0.2167  0.1908  0.2671
 3118W        W19012  17.020   7.000   5.981 -0.0051 -0.2307  0.2589
 3119W        W19013   2.292  17.451   2.028 -0.0857 -0.1847 -0.3415
 3120W        W19014   7.003  12.564   2.113  0.4272 -0.3628  0.1139
 3121W        W19015   4.793   1.057   2.121 -0.2778  0.1204 -0.1588
 3122W        W19016   4.927  17.450   2.137 -0.0961  0.2806  0.0462
 3123W        W19017  16.858   7.880  12.079  0.2126  0.2199 -0.0794
 3124W        W19018  10.710   4.682  13.235  0.3222  0.1387  0.2656
 3125W        W19019  10.753  14.961  12.753  0.0715 -0.2889  0.1220
 3126W        W19020   9.695   0.972  15.631  0.0611  0.0501 -0.1767
 3127W        W19021   4.993   0.273   3.361 -0.1115 -0.2633  0.2091
 3128W        W19022  16.356  13.591   6.005  0.0317 -0.0941  0.0801
 3129W        W19023   7.873  15.976   4.482  0.1378 -0.4484 -0.1619
 3130W        W19024   0.881  14.089  15.217  0.1582 -0.3506  0.3385
 3131W        W19025   7.605  17.328   2.136 -0.1605 -0.0220  0.2018
 3132W        W19026  17.860   0.563   0.519 -0.2879  0.3698 -0.0626
 3133W        W19027   5.435  12.901  10.381 -0.2778 -0.0445  0.0336
 3134W        W19028   8.639   6.318  11.984  0.1577 -0.1120 -0.0641
 3135W        W19029  14.077   8.157   1.694  0.0100  0.2047 -0.0094
 3136W        W19030   4.362  16.248   1.960 -0.3166 -0.2151  0.3994
 3137W        W19031   1.283   1.280   2.372  0.4086 -0.1055 -0.0667
 3138W        W19032  15.938   9.191   5.575 -0.3853 -0.0637  0.0515
 3139W        W19033   6.983   5.212  12.676  0.0707 -0.0733  0.2064
 3140W        W19034   7.269   8.246   2.354 -0.4978  0.1571 -0.1093
 3141W        W19035  16.734  13.533   1.340  0.2956 -0.1596  0.0109
 3142W        W19036  11.652  15.450   1.073 -0.1172 -0.2474  0.0375
 3143W        W19037   7.726  18.419   4.725 -0.3344 -0.3563  0.0066
 3144W        W19038   7.932   3.929   5.113 -0.0736  0.1302  0.0276
 3145W        W19039   8.839  15.569   1.539  0.0764  0.3857 -0.2980
 3146W        W19040   2.498   1.210   2.013 -0.0983  0.1559  0.1110
 3147W        W19041  16.539   9.411  13.572  0.2492  0.0463 -0.0792
 3148W        W19042   6.486   1.655   3.749  0.2843  0.4264  0.1228
 3149W        W19043   9.551   6.486  11.105 -0.2273 -0.0589  0.0871
 3150W        W19044  11.779   1.476   1.261  0.2598  0.1398 -0.4212
 3151W        W19045   6.632  13.598   1.309  0.0968 -0.3125  0.3001
 3152W        W19046   4.326  16.258  14.754  0.1102 -0.1653 -0.0206
 3153W        W19047   0.104   2.144  12.112 -0.0552  0.1226  0.0653
 3154W        W19048  11.760   1.713  15.584  0.1003  0.0129  0.0283
 3155W        W19049   3.696   8.049   0.520  0.2195 -0.0830  0.1795
 3156W        W19050   9.302   7.523  16.047 -0.1194  0.0707  0.0674
 3157W        W19051   4.011   2.394  14.615 -0.1355  0.0308 -0.1277
 3158W        W19052  10.033   4.148  11.936  0.0054 -0.1717 -0.2197
 3159W        W19053   7.423  12.103   4.433  0.2737 -0.4080  0.3903
 3160W        W19054   3.870   3.723   0.606 -0.2159 -0.1179 -0.0944
 3161W        W19055  17.423  10.269  10.814  0.1964 -0.0803  0.1739
 3162W        W19056   1.742  13.779  11.957  0.1863 -0.0048 -0.1094
 3163W        W19057  11.249  10.533  14.610  0.2466  0.2580 -0.3378
 3164W        W19058  11.559  11.251   0.680  0.2394 -0.2898 -0.0820
 3165W        W19059   9.137   3.272   4.544 -0.0657  0.1647  0.3698
 3166W        W19060   2.981   2.580   1.654 -0.0177  0.1811 -0.0362
 3167W        W19061  14.464   2.490   4.386 -0.0116 -0.0961  0.0519
 3168W        W19062   6.212   2.855   2.858  0.0139 -0.0707 -0.1018
 3169W        W19063   5.692   1.972  11.791 -0.1092  0.2479 -0.0723
 3170W        W19064  14.891  11.615   5.392  0.0081 -0.1976  0.2478
 3171W        W19065  17.825  17.041  13.752  0.1654  0.2290 -0.0642
 3172W        W19066  17.230   5.514  11.309  0.1645 -0.0615  0.1087
 3173W        W19067  14.254   9.979   0.293  0.0865  0.4957 -0.0309
 3174W        W19068   0.725  15.944   0.473 -0.0945 -0.2958  0.0444
 3175W        W19069   4.143  13.428  13.501  0.2371  0.0601  0.2918
 3176W        W19070   7.649   6.568   2.866 -0.0900 -0.1219  0.1891
 3177W        W19071  16.214   7.746   2.572 -0.0189 -0.0627  0.2660
 3178W        W19072   2.209  14.068   4.565  0.0423  0.2756 -0.0148
 3179W        W19073   9.947  17.870  14.925 -0.0519 -0.1583 -0.2611
 3180W        W19074   9.317  10.233   3.742  0.0242 -0.0582 -0.1546
 3181W        W19075  11.525   7.544   4.758 -0.3511 -0.0056  0.0470
 3182W        W19076   9.071  11.659  15.695 -0.0032  0.0744  0.0835
 3183W        W19077  11.801   9.147  14.806 -0.2279 -0.0925  0.1474
 3184W        W19078   4.729  12.235   5.937 -0.0658  0.2155  0.1069
 3185W        W19079   7.847  13.520   4.282 -0.0686 -0.0097 -0.1261
 3186W        W19080   8.861  14.563   4.178 -0.2086  0.0997 -0.0809
 3187W        W19081  10.105   8.512   6.048  0.3264  0.0053 -0.2608
 3188W        W19082  15.825   6.211   4.079 -0.2113 -0.0517 -0.2918
 3189W        W19083  13.731  14.551   1.174  0.0279  0.0714  0.1226
 3190W        W19084  10.880  18.133  10.127  0.1335  0.1921  0.0932
 3191W        W19085  10.043   7.520  14.933  0.0170 -0.2726  0.1091
 3192W        W19086  15.692   5.229  14.313 -0.1851  0.1228 -0.2557
 3193W        W19087  12.316  17.125  11.214 -0.1252 -0.1607 -0.1516
 3194W        W19088   7.310   2.228   0.318 -0.4736 -0.1595 -0.2238
 3195W        W19089   2.796   1.090  10.807  0.0374 -0.1425 -0.0452
 3196W        W19090  18.463  10.160   5.094  0.1163  0.0270  0.1407
 3197W        W19091   4.614   3.745   0.383  0.0821  0.0453  0.3082
 3198W        W19092   8.199  16.876   2.980  0.0589  0.0340 -0.0804
 3199W        W19093   7.071   1.699  11.932 -0.2269  0.0577 -0.1024
 3200W        W19094   7.453  18.377   2.097 -0.0722  0.3157 -0.3083
 3201W        W19095  14.352   0.984   1.386  0.0934  0.1304  0.1568
 3202W        W19096   7.137   9.843   2.291 -0.0694  0.0222 -0.0983
 3203W        W19097   6.105   6.375   2.960 -0.0814 -0.0791  0.2581
 3204W        W19098  15.756   3.856   0.598 -0.0854 -0.1168  0.0714
 3205W        W19099   4.237   5.802  11.425 -0.0168  0.2436 -0.1110
 3206W        W19100  11.982   0.137   1.689 -0.1252 -0.0225  0.0489
 3207W        W19101  16.763   1.537  11.780 -0.0499 -0.0393  0.2375
 3208W        W19102   4.194   6.147   0.666 -0.0796 -0.3841  0.0619
 3209W        W19103   5.579  14.100  13.959  0.2213 -0.1153  0.0577
 3210W        W19104   8.052   9.525   2.341 -0.0689  0.0970  0.1050
 3211W        W19105   8.114  17.696   1.766  0.1922  0.0308 -0.1177
 3212W        W19106   4.458  14.345  14.566 -0.2075  0.1301  0.5916
 3213W        W19107   9.400   8.010  14.331  0.3034 -0.0861  0.3362
 3214W        W19108  11.254  16.047  16.080  0.0363 -0.3623  0.1509
 3215W        W19109   0.816  16.745  12.999  0.1137 -0.2143  0.1063
 3216W        W19110   1.900  15.154   2.722  0.1431  0.0010 -0.1901
 3217W        W19111  14.395  16.027  12.370  0.0961 -0.0659  0.2080
 3218W        W19112  12.899   6.951  14.935 -0.0738  0.0566  0.1341
 3219W        W19113   6.618  10.992   1.787 -0.0798  0.1690 -0.1077
 3220W        W19114   6.920   2.300   0.873  0.3005  0.2326 -0.1262
 3221W        W19115   5.387  12.347   0.634  0.0775  0.0316  0.1467
 3222W        W19116   0.115  16.544  15.440  0.1018  0.0698 -0.0116
 3223W        W19117   0.123   7.645  13.925  0.0287  0.0337 -0.0053
 3224W        W19118   7.165   6.131  12.111 -0.1660 -0.1931  0.0245
 3225W        W19119  14.196   1.063   5.751 -0.5342  0.0184  0.0526
 3226W        W19120  12.228  10.353  15.346 -0.2112 -0.1850  0.1244
 3227W        W19121  10.026   8.389   0.792  0.0124  0.2557  0.0699
 3228W        W19122   7.429  13.396   9.724 -0.0710 -0.0014  0.0233
 3229W        W19123   9.756  14.219  14.192  0.1179 -0.1068 -0.2333
 3230W        W19124   9.050   3.306  11.430  0.2145 -0.1358 -0.1970
 3231W        W19125  17.766  16.898   0.625 -0.2460  0.2620 -0.0921
 3232W        W19126   6.957   7.892  13.066  0.1556 -0.2153  0.0088
 3233W        W19127  12.247   2.093   0.936  0.2007  0.1025 -0.1923
 3234W        W19128   3.126   1.188   2.715 -0.1392  0.0872  0.2324
 3235W        W19129   7.731   4.383  11.743  0.1366  0.3819 -0.0823
 3236W        W19130  14.377  10.197  11.880 -0.2458  0.2200 -0.0174
 3237W        W19131  17.459   1.547  14.691  0.0801  0.0349  0.0087
 3238W        W19132  15.392   4.677  14.323 -0.1266 -0.4167 -0.0976
 3239W        W19133   8.786   0.406  10.843 -0.1793 -0.1928  0.2691
 3240W        W19134   8.682   0.317   1.014  0.1586 -0.2180 -0.1083
 3241W        W19135   7.595  18.103   2.952 -0.1705  0.0015  0.0640
 3242W        W19136   1.623   3.910  11.138  0.1085  0.0116  0.2095
 3243W        W19137  14.085  10.962  12.582  0.1142  0.0069  0.0176
 3244W        W19138  16.690  16.655   0.587 -0.2026  0.0215 -0.0227
 3245W        W19139  17.705  14.506  15.249 -0.0426 -0.0725  0.1898
 3246W        W19140   4.216   6.386  15.824 -0.1259 -0.2471 -0.0763
 3247W        W19141  10.382  17.917   2.917 -0.2075  0.2613 -0.2065
 3248W        W19142   9.140   0.270  14.261 -0.1641  0.0354 -0.3976
 3249W        W19143   4.244   3.695  13.361 -0.0849  0.4471 -0.0861
 3250W        W19144  15.725  12.376  15.120  0.1507  0.0367 -0.0037
 3251W        W19145  13.030  13.957   2.981  0.0895  0.0390 -0.1862
 3252W        W19146   3.438   1.207  10.456  0.0485  0.1499  0.1630
 3253W        W19147   3.466  11.454   4.858 -0.0751  0.1963 -0.1843
 3254W        W19148  15.389   2.881  13.408  0.0457  0.0529 -0.0290
 3255W        W19149   7.003   3.034   4.305 -0.0667 -0.2832  0.0396
 3256W        W19150  11.993  16.264  11.291  0.0452 -0.3387  0.0223
 3257W        W19151   2.733   5.759   3.203  0.2062 -0.0448 -0.0477
 3258W        W19152   2.376   2.574   5.417 -0.0616  0.0822  0.2528
 3259W        W19153   9.713  12.837   3.239  0.0083 -0.2368 -0.1284
 3260W        W19154  11.023   2.742   1.233  0.2079 -0.0738  0.2349
 3261W        W19155  15.792   5.450   6.305  0.2723 -0.1604 -0.1357
 3262W        W19156   2.381   9.464   1.889  0.2105  0.0957  0.2647
 3263W        W19157  11.380   8.421  11.856 -0.0239  0.1239  0.2987
 3264W        W19158   5.244  10.897  16.028 -0.1003  0.0207 -0.0287
 3265W        W19159  13.989   8.742   0.939 -0.0254  0.1178 -0.1000
 3266W        W19160   5.224   5.709   0.455 -0.0127  0.1537 -0.1559
 3267W        W19161   8.662  12.606  15.218  0.3260  0.0660  0.3590
 3268W        W19162   5.524   6.956   1.408 -0.0534 -0.1405  0.2361
 3269W        W19163   5.213   9.124  16.122  0.1188 -0.1706  0.0678
 3270W        W19164  14.438  11.691  11.597 -0.1599  0.2529 -0.1820
 3271W        W19165  11.254  17.247  14.416 -0.0696 -0.2100 -0.1609
 3272W        W19166   1.954  18.027   0.137  0.0951 -0.3040 -0.3104
 3273W        W19167   9.987   7.677   4.748  0.1422 -0.0202  0.1178
 3274W        W19168  18.182  16.935  15.562 -0.1968  0.0182  0.1285
 3275W        W19169   4.790   8.063   5.431  0.0415 -0.0015  0.1766
 3276W        W19170  15.410  14.636  15.229 -0.0574 -0.1725  0.0117
 3277W        W19171   9.263   4.137   4.891 -0.3690 -0.3625 -0.0339
 3278W        W19172  16.337  17.463  13.054  0.0730  0.1329  0.0422
 3279W        W19173  11.888   9.562   2.442  0.0017  0.1102  0.2854
 3280W        W19174   7.060   1.441  11.035  0.0286 -0.0342  0.0892
 3281W        W19175  16.465  14.055  14.953 -0.0846 -0.0277  0.0327
 3282W        W19176   6.420   6.688   0.269 -0.0404 -0.0832  0.1305
 3283W        W19177   9.282   1.333  15.643  0.1177  0.0022 -0.3398
 3284W        W19178   0.271   2.836  13.774 -0.0528  0.2144  0.2550
 3285W        W19179   0.941  13.119  12.432 -0.0462 -0.4135  0.0415
 3286W        W19180   1.844   5.746   0.971 -0.1385 -0.3398  0.0493
 3287W        W19181  17.808  11.506  15.040 -0.0333  0.0646  0.2786
 3288W        W19182   1.657   2.764  11.547 -0.0469 -0.0931 -0.0693
 3289W        W19183  16.258  10.294  13.672 -0.0812  0.2141 -0.0789
 3290W        W19184   3.823   0.162   4.260  0.2462 -0.0580  0.0772
 3291W        W19185  17.070   5.569  12.144  0.0905 -0.3048  0.0906
 3292W        W19186   1.960   1.503  14.002 -0.4874  0.0374 -0.0950
 3293W        W19187   1.860   6.457   5.873  0.2407 -0.3227 -0.0451
 3294W        W19188   6.493   1.549  15.806 -0.1203  0.0967  0.2832
 3295W        W19189   8.713  16.819  10.713  0.0918 -0.0735 -0.2179
 3296W        W19190   2.107   1.922  13.293 -0.2743  0.0027 -0.2547
 3297W        W19191   6.188   6.213  15.019 -0.0402 -0.1040 -0.1441
 3298W        W19192   1.534   6.919   5.908 -0.1387  0.1020  0.2929
 3299W        W19193   8.839   2.716   2.007 -0.0115 -0.0473  0.4617
 3300W        W19194   7.358   1.408   2.607 -0.1593 -0.0317 -0.1107
 3301W        W19195   0.322   0.500   3.898 -0.0139  0.0690  0.0494
 3302W        W19196  10.646   4.415   4.049 -0.0602  0.5294  0.3520
 3303W        W19197  11.943  18.399  13.877  0.5377  0.2297 -0.0772
 3304W        W19198  12.578  15.435  12.340 -0.1815  0.2120  0.1909
 3305W        W19199  15.161   1.628   4.879  0.1426  0.1989  0.1722
 3306W        W19200  12.874   0.133   3.375  0.0799  0.3306 -0.1908
 3307W        W19201  10.195  18.224   2.342 -0.3687  0.1339 -0.1492
 3308W        W19202   5.335   8.014  10.816  0.3236 -0.2743  0.0726
 3309W        W19203  16.523  12.905  16.127 -0.0259 -0.0417 -0.1344
 3310W        W19204   9.697  13.186  12.646  0.0884  0.1004  0.0574
 3311W        W19205  10.583   1.519   1.058 -0.0110  0.0418 -0.3072
 3312W        W19206  13.032  14.633  11.161 -0.0832 -0.0640  0.1355
 3313W        W19207   9.418   6.905  14.669  0.2667 -0.0969  0.2841
 3314W        W19208   1.497   8.152  14.257  0.2794  0.1483  0.0602
 3315W        W19209   9.020  11.275  14.739 -0.2030  0.0981  0.2970
 3316W        W19210   5.951   8.503  13.066 -0.0154 -0.2073  0.0426
 3317W        W19211   6.499   7.253  12.071  0.1287  0.1303 -0.1450
 3318W        W19212  16.406  14.289   1.890 -0.0270  0.1290 -0.1943
 3319W        W19213   3.397   2.224  11.638  0.0687 -0.0237  0.0969
 3320W        W19214   2.180  17.931   4.602 -0.2988  0.1096  0.3924
 3321W        W19215  13.969  11.254   3.406 -0.2292  0.0128  0.1630
 3322W        W19216  16.191   0.758  13.384  0.0817  0.2068  0.0138
 3323W        W19217  15.212   1.677  13.175  0.3880 -0.0156 -0.0363
 3324W        W19218   4.228  11.457   0.651  0.4139 -0.2370 -0.3152
 3325W        W19219  17.367  10.484   5.183  0.2104  0.2046 -0.2430
 3326W        W19220   3.853   2.175   1.670 -0.1022 -0.3027  0.0344
 3327W        W19221   7.766   1.686   2.782 -0.3090 -0.1099  0.0795
 3328W        W19222  12.100   0.604   0.085  0.2103  0.0210  0.2795
 3329W        W19223  18.389  10.346  14.227  0.1677  0.3151 -0.2701
 3330W        W19224   2.681   5.480   4.508  0.3945  0.1601 -0.1431
 3331W        W19225  15.689  11.256   3.053  0.2058 -0.1712 -0.4127
 3332W        W19226   7.251   0.354  11.642 -0.0226  0.0815 -0.2425
 3333W        W19227   2.740  15.845  12.199  0.2102 -0.0428  0.0099
 3334W        W19228   1.310   8.606   4.611 -0.0171  0.2875  0.0897
 3335W        W19229  15.369  15.320  13.500 -0.0436  0.0164  0.0209
 3336W        W19230   2.635  11.147  12.459  0.0147  0.0106 -0.0405
 3337W        W19231   7.677   4.220  16.137 -0.1549  0.2159 -0.1952
 3338W        W19232  11.530   1.282  15.163  0.1862 -0.3315  0.0817
 3339W        W19233  18.357  15.393   3.871  0.1061  0.0057  0.1493
 3340W        W19234   6.843  14.852   3.783  0.1744  0.0522 -0.0649
 3341W        W19235   0.400   0.980   3.711 -0.1528  0.0765 -0.0307
 3342W        W19236  16.787  11.949  13.051 -0.0759 -0.0441  0.0919
 3343W        W19237   5.908  12.219   0.475  0.1959 -0.1896 -0.1604
 3344W        W19238  18.442  11.341   2.485 -0.2355 -0.2020 -0.1478
 3345W        W19239   2.307   8.997   0.701  0.0594  0.0971 -0.1904
 3346W        W19240   7.108  16.229  11.306 -0.0498  0.1762  0.0538
 3347W        W19241   1.878   6.650  11.074 -0.0836 -0.3367  0.1039
 3348W        W19242   8.841  14.342  12.741 -0.1090 -0.2249  0.1398
 3349W        W19243   3.895   7.114  11.859 -0.2144  0.1086  0.2327
 3350W        W19244   1.685  16.563  10.089  0.0176 -0.1657  0.1017
 3351W        W19245   9.798   2.145  13.183 -0.0225 -0.1955 -0.2617
 3352W        W19246  12.806  17.064  15.516  0.0711 -0.0334  0.1166
 3353W        W19247   8.546  15.578   4.654  0.1597  0.3389  0.1669
 3354W        W19248   8.562   3.097  12.789  0.1081 -0.0273 -0.0014
 3355W        W19249  16.917  17.770   5.642 -0.3306  0.2216 -0.0943
 3356W        W19250   2.584   2.866   0.763 -0.0726 -0.1446  0.1348
 3357W        W19251  14.347  14.184  15.668  0.0522  0.0687 -0.2488
 3358W        W19252   3.693  13.237  12.599  0.1435 -0.0069 -0.1032
 3359W        W19253  17.918  13.438   2.354  0.0339  0.0179 -0.2639
 3360W        W19254   6.174   1.098  11.294 -0.0165  0.2265 -0.0319
 3361W        W19255   3.422   4.927   4.187 -0.1158 -0.2173  0.1236
 3362W        W19256   6.260  10.953   2.126  0.2020  0.3827  0.0260
 3363W        W19257  10.556  12.741  14.099 -0.1794 -0.1495 -0.2821
 3364W        W19258  13.509  16.469  11.621  0.2373 -0.0072  0.0199
 3365W        W19259   1.446   6.090   5.039 -0.0737  0.0430  0.4470
 3366W        W19260   1.893  16.228  15.824  0.2715  0.1366 -0.1915
 3367W        W19261   9.718  13.601   1.726  0.2250  0.1592  0.1169
 3368W        W19262  14.012   5.940  15.128 -0.0427  0.1068 -0.2113
 3369W        W19263   7.335  17.921  13.493  0.2824  0.0339  0.2706
 3370W        W19264   6.592   3.634  11.185  0.0279 -0.0536  0.0238
 3371W        W19265   4.045  14.153  12.438 -0.0240 -0.1581  0.1323
 3372W        W19266   1.368   9.441  14.753  0.1278  0.1093 -0.0997
 3373W        W19267  16.039  11.382  13.064  0.1458 -0.0122  0.1316
 3374W        W19268  13.214   4.905  14.883  0.1235 -0.1587 -0.1542
 3375W        W19269   6.699  18.006  14.928  0.1222  0.1537 -0.2373
 3376W        W19270   3.370   8.402   0.367 -0.1449  0.1668  0.1807
 3377W        W19271  14.115   6.737   6.273  0.0192 -0.0625  0.0121
 3378W        W19272  15.730   8.249   2.575 -0.1584 -0.0748 -0.0338
 3379W        W19273   0.117   6.225  11.802  0.1877 -0.1648 -0.0907
 3380W        W19274  13.646   4.427   4.332 -0.1366 -0.2146  0.0419
 3381W        W19275  11.802   1.207   6.119 -0.2373  0.1431  0.2593
 3382W        W19276   6.133   2.636  13.864 -0.0127 -0.0149  0.0625
 3383W        W19277  12.194  15.459  15.150  0.1675  0.1288 -0.0048
 3384W        W19278  11.071  14.510   5.093  0.1925  0.2032 -0.3028
 3385W        W19279  13.985   2.814   0.753  0.2089 -0.0521  0.1843
 3386W        W19280   6.313   8.304   2.559 -0.1961  0.1219 -0.1093
 3387W        W19281  13.784  11.250  12.304 -0.0488 -0.0896 -0.0888
 3388W        W19282  10.720   0.707  14.980 -0.1252 -0.2826 -0.1125
 3389W        W19283  16.043   3.884   1.088  0.1075 -0.1297  0.2284
 3390W        W19284   4.196   7.402  15.825  0.1882  0.1795  0.3857
 3391W        W19285  16.373   8.684   4.954  0.1230 -0.0758  0.1445
 3392W        W19286  11.207   1.137   3.967 -0.3734 -0.0268 -0.0179
 3393W        W19287   6.550   0.259  14.033  0.1456  0.0365  0.1228
 3394W        W19288   6.733   5.886  12.729  0.3293  0.1417  0.1049
 3395W        W19289   4.480   5.644  13.552  0.1940  0.0921 -0.0965
 3396W        W19290  17.880  10.592   0.941  0.0735 -0.0599  0.1324
 3397W        W19291  17.309   7.310  12.540 -0.0615 -0.1668  0.1281
 3398W        W19292  15.585   1.319   0.382 -0.1313  0.0525 -0.2126
 3399W        W19293   4.051  16.293   2.327 -0.1633 -0.2994  0.0847
 3400W        W19294   8.115  11.788   6.351 -0.2901 -0.0056  0.0318
 3401W        W19295   0.149   9.914   2.345  0.1965 -0.0648 -0.3164
 3402W        W19296   1.926   1.560  11.131 -0.4015  0.0705  0.0497
 3403W        W19297   7.646  15.557  14.262  0.2013 -0.2506  0.1924
 3404W        W19298   5.416  12.555   2.925 -0.0499 -0.1427 -0.1255
 3405W        W19299  16.624   3.489   2.542  0.1645 -0.2430  0.0445
 3406W        W19300  15.844   8.268  11.791  0.0456 -0.0258  0.2002
 3407W        W19301   8.476   6.816   4.925  0.0891  0.1974 -0.2327
 3408W        W19302  14.274  13.053   6.074  0.1383 -0.0209  0.1275
 3409W        W19303  16.120   2.036  13.863  0.3069 -0.0973 -0.2625
 3410W        W19304  17.525  10.715   4.769  0.3565 -0.0933  0.0566
 3411W        W19305   2.492   3.496   3.114  0.1559 -0.1925 -0.1764
 3412W        W19306  11.388  13.838   4.174 -0.1895  0.0985  0.0865
 3413W        W19307  13.775  11.356   2.921  0.0463 -0.0051  0.0450
 3414W        W19308   5.176  10.705  14.840  0.2583 -0.0971 -0.6130
 3415W        W19309   9.036  15.622  12.429 -0.1130  0.4330  0.0425
 3416W        W19310   4.829   2.077  12.574  0.3067  0.2627  0.2228
 3417W        W19311  14.896   1.337  11.090  0.1292  0.0081  0.2373
 3418W        W19312  16.255  12.341   4.536  0.1682 -0.1448 -0.0059
 3419W        W19313   6.310  11.341  11.309 -0.0824  0.0469 -0.1369
 3420W        W19314  16.148  13.730  14.578 -0.1804  0.0897  0.2638
 3421W        W19315  15.535   0.153  15.286 -0.2503  0.2664 -0.0416
 3422W        W19316   5.240   1.241  11.457 -0.3048  0.1369 -0.0440
 3423W        W19317  18.109   2.609   1.930  0.1518  0.1070  0.1849
 3424W        W19318  10.737  16.079   0.078  0.3676  0.0132 -0.0106
 3425W        W19319   7.587  10.829   4.533  0.0355 -0.1109 -0.1881
 3426W        W19320   4.514   6.563  15.480 -0.0147 -0.1392  0.0512
 3427W        W19321   1.311  13.003   0.902  0.0594  0.0254  0.0704
 3428W        W19322  16.468  16.593  14.893  0.2978 -0.1864  0.0499
 3429W        W19323   3.934   3.368  11.585 -0.2715 -0.4155  0.0605
 3430W        W19324  15.131   4.933  13.576 -0.2237 -0.2286 -0.2126
 3431W        W19325   3.758   7.772   3.097  0.2815  0.0352  0.1814
 3432W        W19326  14.561  16.473  11.481 -0.0589  0.0087  0.1343
 3433W        W19327   1.380   4.679   0.289 -0.0856  0.2136  0.0765
 3434W        W19328   9.780  13.096  14.675  0.0965 -0.4438 -0.0212
 3435W        W19329   6.967   7.468  12.040  0.2274  0.2368 -0.2036
 3436W        W19330  12.856   4.022  11.645  0.0733 -0.2534 -0.0693
 3437W        W19331  13.826   5.352  16.072  0.5017  0.2288  0.1159
 3438W        W19332   8.234   3.708   0.772  0.0893  0.1732  0.6074
 3439W        W19333   4.397   8.315   2.585 -0.1521  0.1636 -0.0249
 3440W        W19334  11.082  11.238  15.859 -0.1965 -0.1667  0.1399
 3441W        W19335   6.650  14.968  13.545  0.1884  0.0756 -0.1238
 3442W        W19336  14.020  12.489  10.652  0.3318 -0.1169 -0.0873
 3443W        W19337   0.260   1.275  12.884 -0.1726 -0.0571  0.2390
 3444W        W19338  10.276   7.800   5.184 -0.0276  0.2941 -0.1387
 3445W        W19339   0.143   6.894  14.108 -0.1881  0.1042  0.1787
 3446W        W19340   9.454  12.839   4.691  0.1172  0.1701  0.3771
 3447W        W19341   2.426   8.092  14.750 -0.2070 -0.1930  0.0845
 3448W        W19342   5.017  14.417   1.367  0.1942 -0.0124 -0.0861
 3449W        W19343  13.974  17.793   5.384  0.1423 -0.0711 -0.2952
 3450W        W19344  16.610  13.735  11.395  0.0545 -0.1105  0.0029
 3451W        W19345  17.579   9.922  12.499  0.0660  0.1178 -0.2662
 3452W        W19346   4.232   0.103  13.502 -0.0767  0.1773 -0.2535
 3453W        W19347   5.668   4.369   2.268  0.1948 -0.0371 -0.1528
 3454W        W19348  18.136   6.199   3.033  0.0830 -0.1672 -0.1169
 3455W        W19349  16.978  15.722  14.929 -0.0405  0.0894  0.0307
 3456W        W19350   8.687   3.416   3.328  0.0694  0.1199  0.0393
 3457W        W19351   9.327   0.687  11.594  0.3502  0.1222 -0.2521
 3458W        W19352  14.287  10.550   1.452 -0.1377 -0.0440  0.0049
 3459W        W19353  15.414  14.392  14.313 -0.2737 -0.2554  0.1221
 3460W        W19354  11.863   5.749  11.988  0.2912  0.1024 -0.2421
 3461W        W19355   0.911   3.175   1.192  0.1932 -0.4824  0.0741
 3462W        W19356   1.294  16.424  12.896  0.2189 -0.3196  0.0990
 3463W        W19357  10.529  10.898  12.414  0.2271  0.2760 -0.2586
 3464W        W19358  16.645   8.798   1.092 -0.0458  0.0084  0.3519
 3465W        W19359   1.773  17.658   4.703 -0.1263  0.1928  0.1245
 3466W        W19360   1.990   2.275   1.332 -0.0283 -0.2128 -0.2279
 3467W        W19361  13.015   9.952  11.358  0.1963  0.1558 -0.0137
 3468W        W19362   2.339   7.309   0.241 -0.2891  0.0814  0.0224
 3469W        W19363   6.902  17.910   5.218  0.0665 -0.1578 -0.1729
 3470W        W19364  10.690   9.887  15.511  0.2959  0.1011  0.0803
 3471W        W19365   9.163  11.641   2.331 -0.1765 -0.2642  0.2639
 3472W        W19366   7.504   3.177  11.160 -0.0209 -0.0044  0.3944
 3473W        W19367  16.757  11.390   1.616 -0.0888  0.1568  0.0803
 3474W        W19368  10.047  18.257   4.745 -0.1044 -0.1591  0.2851
 3475W        W19369  12.355   5.481  12.784  0.1852 -0.1150 -0.2062
 3476W        W19370  12.162   4.255  14.096 -0.0751 -0.3205 -0.0046
 3477W        W19371  12.256   6.449   5.906  0.2000 -0.2484  0.0169
 3478W        W19372  12.986   1.476   2.999  0.1015 -0.1610  0.2003
 3479W        W19373  13.706   3.948  14.457 -0.0646 -0.1048  0.0447
 3480W        W19374  10.504  14.056  11.967  0.1221 -0.1668  0.1029
 3481W        W19375   4.256  18.045  15.206  0.2078 -0.3197  0.0777
 3482W        W19376  11.108   6.371   1.659 -0.2544 -0.2883 -0.0544
 3483W        W19377   4.694   4.445   0.973  0.0721  0.1751  0.2763
 3484W        W19378  10.928  14.511  15.294 -0.0896  0.1918  0.1669
 3485W        W19379  16.285   7.924   0.945 -0.1380 -0.1129 -0.2726
 3486W        W19380  11.624   3.905   2.247  0.2146  0.1863  0.0983
 3487W        W19381   4.788   5.677   4.620  0.2488  0.3999  0.2702
 3488W        W19382  17.560   9.456   2.368  0.4651 -0.1597 -0.1767
 3489W        W19383   2.784   0.544  13.705 -0.1342  0.2861  0.0827
 3490W        W19384   8.947  15.025   4.180  0.1414  0.0187 -0.1848
 3491W        W19385   8.232  12.638  14.347  0.2275 -0.2526  0.4056
 3492W        W19386  14.001   5.182   0.807 -0.1999  0.2706 -0.1993
 3493W        W19387   6.273   7.143   4.567  0.3257 -0.0643  0.0097
 3494W        W19388   3.513   4.419   1.042  0.1781 -0.3100 -0.0329
 3495W        W19389  11.186   4.881  13.167 -0.0222  0.0680 -0.0065
 3496W        W19390  17.071   7.923   4.455 -0.0395  0.1348  0.0483
 3497W        W19391  11.591  14.239  14.772 -0.1083  0.2983  0.0339
 3498W        W19392   4.186   8.194   0.477  0.1028  0.0256  0.3167
 3499W        W19393  16.217   8.287  15.694  0.0651 -0.1478  0.1677
 3500W        W19394   4.312   6.627   0.878  0.0721 -0.2317 -0.3556
 3501W        W19395   3.560  14.249  13.756  0.1155 -0.0647 -0.0077
 3502W        W19396   8.788   4.097   0.064 -0.2327 -0.0526 -0.1317
 3503W        W19397   8.009   8.656   4.464  0.3421  0.1483 -0.1608
 3504W        W19398   7.254  16.621  11.759 -0.3083  0.1235  0.1144
 3505W        W19399  12.404   5.964   0.655  0.0457  0.2964 -0.1781
 3506W        W19400   4.108  11.093   4.067 -0.0654  0.0098  0.0953
 3507W        W19401   2.640  15.575  11.333 -0.1688 -0.1071 -0.0558
 3508W        W19402  11.103   2.093   4.179 -0.1975 -0.2738 -0.3554
 3509W        W19403   1.973   2.531   4.177 -0.2349 -0.0031  0.1389
 3510W        W19404   6.759  14.418  11.309  0.0091 -0.1318  0.0050
 3511W        W19405   8.286  17.679  11.881 -0.0811  0.0572  0.1199
 3512W        W19406   2.105  17.382  11.360 -0.1832 -0.0784 -0.0114
 3513W        W19407   8.914   8.233  15.154  0.0168 -0.2338  0.2187
 3514W        W19408  11.309  11.274  10.759  0.0075  0.0856  0.0355
 3515W        W19409   3.640  15.887  11.798  0.0491  0.2240 -0.2556
 3516W        W19410   0.438   2.704   2.592  0.2209 -0.0726 -0.1675
 3517W        W19411  14.980  10.173   4.707  0.2626 -0.0150 -0.4224
 3518W        W19412  14.732   6.463  13.945 -0.1714  0.1364  0.3969
 3519W        W19413  11.873   3.648  15.057 -0.3797  0.0631  0.1725
 3520W        W19414   3.912   1.305   2.082  0.0198  0.3345  0.2518
 3521W        W19415   9.972   8.628   4.686  0.1751  0.0310  0.0738
 3522W        W19416  17.981   6.509  12.318  0.1227 -0.0908  0.0969
 3523W        W19417   1.554   1.457  11.526  0.2139  0.0820 -0.0905
 3524W        W19418   3.763  16.191  13.438 -0.0105  0.3935 -0.1544
 3525W        W19419   1.613   1.173   4.246 -0.1687 -0.1460 -0.0321
 3526W        W19420  14.654  10.660  12.924  0.1292  0.2600 -0.0881
 3527W        W19421  11.881  10.329  15.821 -0.0398  0.2575  0.0972
 3528W        W19422  13.678   0.201  13.140 -0.1218  0.0139 -0.0007
 3529W        W19423  16.857   4.846  13.362  0.1112 -0.3608  0.0545
 3530W        W19424   6.923   8.406   4.170  0.0246  0.0025 -0.3301
 3531W        W19425  13.602  11.602  15.946 -0.1375 -0.1730  0.3706
 3532W        W19426  14.207  14.714   0.154  0.1808 -0.0522 -0.0291
 3533W        W19427   7.969   5.553  15.639 -0.2580  0.1284  0.0764
 3534W        W19428   3.495   8.606   2.625 -0.0971 -0.0324 -0.3647
 3535W        W19429   3.723  11.575   0.666 -0.0235 -0.0575  0.0153
 3536W        W19430  14.108   0.256   3.524 -0.0893 -0.0541 -0.4823
 3537W        W19431  12.993  15.040  10.674  0.2267  0.2880  0.0542
 3538W        W19432   8.072  17.119  16.072  0.2307  0.1289  0.2230
 3539W        W19433  11.071  10.399   3.749 -0.1791  0.3832 -0.0684
 3540W        W19434  10.710  16.031  12.271  0.0120 -0.1926 -0.2006
 3541W        W19435   1.605  12.596  15.524  0.5628  0.5603  0.2243
 3542W        W19436  17.695  13.053  11.786 -0.2053 -0.0433  0.4352
 3543W        W19437   2.531   4.537   5.133  0.0178 -0.0519 -0.0344
 3544W        W19438   4.352   9.000  15.663 -0.1023 -0.0159  0.1441
 3545W        W19439  10.423  15.238  11.435 -0.1681  0.0075 -0.0943
 3546W        W19440  14.752   1.733  15.023  0.1270 -0.2534  0.0160
 3547W        W19441  13.590   3.302   2.127  0.4737 -0.2803 -0.3431
 3548W        W19442   2.889   2.735  13.744  0.2693 -0.1612 -0.1347
 3549W        W19443  15.279  13.176   5.488 -0.2435  0.0071  0.0604
 3550W        W19444  18.317   3.030  10.615  0.1508  0.0513 -0.0492
 3551W        W19445   9.148   7.997  12.439  0.1555 -0.0415  0.0611
 3552W        W19446  10.002   0.628  13.712 -0.3272  0.5062  0.0108
 3553W        W19447   1.741  10.608   4.012  0.0256 -0.1415  0.0775
 3554W        W19448  18.454  15.553  11.581  0.2242 -0.0449 -0.1333
 3555W        W19449   8.604  10.980   1.161  0.1384 -0.0143 -0.0155
 3556W        W19450  12.576  15.526  11.500 -0.1199  0.0979 -0.1145
 3557W        W19451   3.480   8.278  12.384 -0.2731  0.0059  0.1696
 3558W        W19452  15.512   5.733  12.432  0.2313 -0.0191  0.5429
 3559W        W19453  10.781   0.912   1.776  0.0087  0.1531  0.1084
 3560W        W19454  10.561   0.136  15.053 -0.1430  0.2420 -0.0855
 3561W        W19455  13.616   3.130   1.588 -0.0532  0.3085  0.2357
 3562W        W19456  10.388  13.758   4.341 -0.0484 -0.0439 -0.0341
 3563W        W19457   5.330  11.462   3.827  0.0926  0.1995 -0.2196
 3564W        W19458  11.956   2.982  11.896  0.0537 -0.1021 -0.3503
 3565W        W19459  13.070   3.140  12.551  0.0931  0.0912 -0.1502
 3566W        W19460  15.258  15.208   3.437 -0.2666 -0.0213 -0.3672
 3567W        W19461   5.048   0.530  11.149  0.0125  0.3457  0.1605
 3568W        W19462  16.279  11.872  13.375  0.2274  0.0513  0.0620
 3569W        W19463   9.123  16.705  12.268 -0.1488  0.3617 -0.1504
 3570W        W19464   6.383   0.327  15.572 -0.0759 -0.4350 -0.0220
 3571W        W19465   2.343  16.103   4.769  0.0985 -0.2078 -0.2232
 3572W        W19466   3.699   7.328   1.376  0.4255 -0.2946  0.0224
 3573W        W19467   1.808  10.039   0.327  0.2677 -0.0261  0.0587
 3574W        W19468   0.216  18.020  12.254  0.2538  0.2470  0.2752
 3575W        W19469   7.999   4.485   1.981 -0.1769 -0.0962 -0.1195
 3576W        W19470   8.698   9.226   0.382  0.0470  0.0170 -0.0126
 3577W        W19471   9.230   6.181  12.428  0.0358  0.1879 -0.1913
 3578W        W19472   6.115   1.572   0.986 -0.1617 -0.1780  0.1736
 3579W        W19473   8.282   6.260   4.871  0.0512 -0.1018  0.3360
 3580W        W19474  14.607   3.772   0.675 -0.0536  0.0939  0.2505
 3581W        W19475   0.074  14.995   4.870  0.0626  0.3105 -0.0262
 3582W        W19476  17.342   2.460  15.253 -0.4401 -0.1100  0.0295
 3583W        W19477  16.994  15.586  15.832  0.1515 -0.1010 -0.0139
 3584W        W19478   0.614   1.916   0.706 -0.0102 -0.2595 -0.0191
 3585W        W19479  12.374  14.508   2.853 -0.0836 -0.0893  0.0029
 3586W        W19480  16.866   6.074   1.665  0.0554  0.1613  0.4586
 3587W        W19481  10.813   2.113  12.908 -0.1592  0.2075  0.1931
 3588W        W19482   1.341  11.264   4.384 -0.0081 -0.0496  0.0118
 3589W        W19483  13.379   1.891   4.704 -0.1047  0.1292 -0.1752
 3590W        W19484   7.320   4.055   3.265 -0.1615  0.0582 -0.4051
 3591W        W19485  14.503   6.192  15.881  0.2560 -0.1644 -0.5039
 3592W        W19486   3.766   8.288   3.128  0.2050  0.0294  0.1446
 3593W        W19487   8.976   6.126   1.624 -0.0634 -0.0360 -0.4158
 3594W        W19488  10.420   7.146   3.848 -0.2921 -0.0984 -0.0850
 3595W        W19489   0.601  14.062   2.505 -0.0369  0.3312  0.0342
 3596W        W19490   2.879   0.467   4.083  0.0228 -0.1162 -0.1735
 3597W        W19491  10.551  12.565  15.846 -0.0555  0.1426  0.0753
 3598W        W19492   2.737  16.772   4.096 -0.1115 -0.0149  0.0606
 3599W        W19493   5.900   0.865  13.798 -0.2386  0.0300  0.2396
 3600W        W19494   6.928   2.153   3.157 -0.2047  0.1117 -0.5137
 3601W        W19495  12.230  15.685   0.386  0.1459 -0.0598  0.2145
 3602W        W19496  16.547   7.185  13.506 -0.0531  0.0079 -0.1860
 3603W        W19497   5.838   5.091   4.914  0.2042 -0.1892  0.1212
 3604W        W19498   6.781  17.797  14.339 -0.0201  0.0041  0.0398
 3605W        W19499  12.391  10.646  10.887 -0.0865  0.1512 -0.0267
 3606W        W19500   0.468   4.024  11.762 -0.0595  0.2886  0.0666
 3607W        W19501  16.350  13.505   0.961 -0.2196  0.2605  0.0180
 3608W        W19502  10.940  10.827   4.231 -0.0506 -0.2874 -0.3160
 3609W        W19503   3.891   0.713   2.084  0.0101  0.0488  0.0822
 3610W        W19504   9.076   7.243   3.581  0.1124  0.1904  0.5026
 3611W        W19505  10.288   8.059   2.192  0.0519  0.1880 -0.1431
 3612W        W19506  12.074  10.820  13.163  0.0583 -0.0363 -0.0381
 3613W        W19507  16.325   4.008   4.688  0.0513 -0.2157  0.4062
 3614W        W19508  11.852   7.797  15.590 -0.0860 -0.1608 -0.5089
 3615W        W19509   0.714  16.519   0.611  0.0892  0.3536 -0.1875
 3616W        W19510   0.278   1.530  14.400  0.1992 -0.0353  0.0849
 3617W        W19511  14.559  15.777   3.230 -0.2495 -0.1469  0.2176
 3618W        W19512   3.911  17.007  13.689  0.1108  0.1127 -0.2447
 3619W        W19513  13.100  16.985  12.929 -0.0625 -0.3056  0.1284
 3620W        W19514  13.677  16.739   0.433 -0.1324  0.1692  0.0198
 3621W        W19515   6.871   6.891   1.416  0.0161 -0.0182  0.2691
 3622W        W19516  16.606  12.590  10.789  0.0918  0.2594  0.3568
 3623W        W19517  15.923   5.787   2.886  0.2765  0.5340 -0.0031
 3624W        W19518  14.535   7.150  14.998 -0.2816 -0.2530  0.1132
 3625W        W19519   3.068  10.878  10.760 -0.1133  0.0077  0.3970
 3626W        W19520   7.754   4.717   0.788 -0.0079  0.0199 -0.2831
 3627W        W19521   7.251  17.511   5.025  0.1638 -0.2575 -0.0866
 3628W        W19522   9.416   8.860   0.020 -0.3482  0.2026  0.3280
 3629W        W19523   8.865   7.615   3.826 -0.2815  0.0182  0.0703
 3630W        W19524   1.694  15.557  11.684  0.0610 -0.2195  0.1322
 3631W        W19525  11.793  18.093   1.280  0.3107 -0.1101 -0.1042
 3632W        W19526  15.462  15.047  14.740 -0.1472 -0.1490 -0.1076
 3633W        W19527   2.374  13.946   0.213 -0.0601 -0.1529 -0.0842
 3634W        W19528  11.005   8.327   5.115 -0.1708 -0.3520  0.1809
 3635W        W19529   0.320   1.468  10.433  0.0347 -0.1988 -0.2212
 3636W        W19530  11.345   1.017   1.864  0.0632  0.0459  0.1333
 3637W        W19531   2.009   6.808  11.890 -0.0026  0.4257  0.0626
 3638W        W19532  16.683  10.375  13.481 -0.1856 -0.0384  0.0706
 3639W        W19533  14.356   4.884   1.208  0.2258  0.3012 -0.1972
 3640W        W19534  12.380   3.059  14.414 -0.1142  0.3843 -0.2381
 3641W        W19535   8.558   5.936  15.882  0.3323  0.0806 -0.1597
 3642W        W19536  17.359  16.353  15.440 -0.2943 -0.2984  0.2771
 3643W        W19537  16.632  15.653  15.327 -0.1906  0.0033 -0.1640
 3644W        W19538   8.502   7.743   2.222  0.0614  0.1359 -0.2331
 3645W        W19539  13.602  12.234   5.360 -0.0898 -0.0150  0.1078
 3646W        W19540  10.478   4.828  15.431  0.0718 -0.0808 -0.0905
 3647W        W19541  17.109   0.123   5.650 -0.0393  0.1011  0.1373
 3648W        W19542   2.867   8.328   0.516  0.0532 -0.1575  0.0695
 3649W        W19543   8.085  18.140  11.799  0.0185  0.1951 -0.2189
 3650W        W19544   8.024  15.742  15.495  0.3290  0.0194  0.0178
 3651W        W19545  17.737   6.459   3.879  0.1440 -0.0259 -0.1688
 3652W        W19546   0.016   3.699   5.325  0.0284  0.1926 -0.0479
 3653W        W19547   8.829  12.763   0.319 -0.1265 -0.1181 -0.0766
 3654W        W19548   0.132  18.072   2.806  0.1362 -0.1326  0.0569
 3655W        W19549   7.031   4.456   3.022  0.0211 -0.0743  0.0926
 3656W        W19550   6.118  14.295   4.518 -0.3087 -0.1616  0.1304
 3657W        W19551   9.144   1.621   4.265  0.1893 -0.4513 -0.1552
 3658W        W19552  15.479  16.027  12.428  0.0017 -0.1053  0.2723
 3659W        W19553  16.437   9.424  13.091 -0.0076 -0.0111 -0.1179
 3660W        W19554  10.024   8.780   3.030 -0.3803  0.0196 -0.0087
 3661W        W19555  17.014  11.079  14.269 -0.3642 -0.0171  0.0810
 3662W        W19556   9.490  10.203  13.341 -0.2174  0.1151 -0.0018
 3663W        W19557   2.527  12.661  13.534 -0.2330  0.0575  0.0306
 3664W        W19558   6.602   9.609  11.754 -0.1447  0.0191 -0.0515
 3665W        W19559   6.774   3.987   1.324 -0.1788  0.1476 -0.1632
 3666W        W19560   0.267  10.057   5.508  0.0720 -0.0844 -0.0164
 3667W        W19561  13.015   0.576   2.347 -0.2090  0.1121 -0.2923
 3668W        W19562   3.354  16.204  15.626  0.0695  0.1067  0.2180
 3669W        W19563   0.565  13.676  15.341  0.2645 -0.0655  0.1325
 3670W        W19564   6.863   5.948  13.234  0.1530  0.0653 -0.3029
 3671W        W19565   6.046  18.204  12.555  0.0065 -0.1881  0.2942
 3672W        W19566  16.093  11.371   0.756  0.3723  0.2539  0.1374
 3673W        W19567   6.772   6.082  11.546  0.1847  0.3375  0.2862
 3674W        W19568   4.080   0.335  12.333 -0.2114  0.3906  0.0222
 3675W        W19569  11.946   4.148   1.504  0.0658  0.0306  0.1771
 3676W        W19570  18.366  17.166   1.529  0.3798  0.2542  0.0660
 3677W        W19571   5.384  15.675  12.150 -0.2308 -0.0089 -0.0246
 3678W        W19572   9.800  18.178  14.082  0.0478  0.1813 -0.0790
 3679W        W19573  12.317   9.008   3.445  0.0048 -0.2636 -0.0445
 3680W        W19574  15.180   9.496  12.242 -0.1831 -0.3121  0.0248
 3681W        W19575  11.590  10.073  13.706 -0.1353  0.3618  0.1527
 3682W        W19576  17.158   7.018  14.951 -0.0600  0.0986 -0.3509
 3683W        W19577   2.169   2.781  11.590  0.3374  0.1068 -0.3935
 3684W        W19578  10.841   6.089  14.451  0.0929  0.0466 -0.0932
 3685W        W19579   9.001  17.179  12.382  0.1875  0.0738  0.3617
 3686W        W19580   9.110  16.055  11.179  0.1581  0.0508  0.0261
 3687W        W19581   4.128   9.377  12.462 -0.0069  0.0991  0.0961
 3688W        W19582   9.256  13.064  14.762 -0.0488  0.0447  0.1531
 3689W        W19583   1.574  12.421   1.626  0.0802 -0.0461 -0.1227
 3690W        W19584   9.737  15.940  10.418  0.0536  0.2114 -0.3607
 3691W        W19585   1.552   6.660   3.977 -0.0337 -0.2217 -0.1165
 3692W        W19586  16.962  15.300   4.150 -0.1088  0.0305  0.3205
 3693W        W19587   0.893   3.599  15.203  0.2865 -0.1545 -0.0659
 3694W        W19588  13.286  11.606   2.789  0.0989  0.3804 -0.1134
 3695W        W19589  18.309  14.730   2.177  0.0475 -0.1906 -0.0782
 3696W        W19590  11.787   1.271  13.731  0.0376  0.1580 -0.2977
 3697W        W19591  11.016  10.502  12.443 -0.2042  0.1276 -0.2297
 3698W        W19592   3.210   2.706  11.702 -0.0324 -0.4025 -0.1181
 3699W        W19593   4.364  15.172  14.910 -0.1853  0.1212  0.0498
 3700W        W19594   6.148   3.351   3.480  0.0268 -0.2338 -0.1876
 3701W        W19595   6.203  17.479   3.751 -0.0655 -0.0334 -0.1211
 3702W        W19596   0.406   4.973   2.493  0.2551 -0.0115  0.2378
 3703W        W19597  17.149   6.468  14.738 -0.1600 -0.0730  0.0015
 3704W        W19598   1.896   3.007   2.746  0.1227  0.1680 -0.1020
 3705W        W19599   6.878  11.530  13.623  0.2336  0.0215  0.1961
 3706W        W19600   5.374  12.846  15.543 -0.1782  0.1914  0.0102
 3707W        W19601  16.562  15.462   1.597 -0.2145  0.3904  0.0150
 3708W        W19602  17.186   8.597  14.692  0.1952  0.4301  0.0208
 3709W        W19603  14.612  11.796  14.996  0.4288 -0.0280 -0.3029
 3710W        W19604   1.726  13.373   2.793 -0.2328  0.3799  0.0660
 3711W        W19605  16.745   4.552  13.753  0.2163  0.1098  0.2138
 3712W        W19606   4.899   2.221  11.276 -0.1773 -0.0865 -0.4300
 3713W        W19607   4.788  10.542   2.984 -0.4971 -0.2790  0.0640
 3714W        W19608  15.132  10.928  13.123  0.0728  0.1015 -0.1008
 3715W        W19609   8.136   6.734  14.886  0.3414  0.1089  0.0069
 3716W        W19610   8.711   9.637  11.688  0.1236 -0.0963 -0.1220
 3717W        W19611   0.071  13.909  15.055 -0.0118  0.2931 -0.1840
 3718W        W19612  13.187   8.461  12.342 -0.1202 -0.2908 -0.0788
 3719W        W19613  14.128   4.316   5.346  0.1233 -0.1886 -0.1485
 3720W        W19614   2.850   9.017  14.223 -0.1782 -0.0257  0.3934
 3721W        W19615   1.716   2.099  14.257 -0.1495  0.0064  0.2402
 3722W        W19616  14.029  11.715  13.464  0.0396  0.4777  0.0675
 3723W        W19617  11.283  15.397  12.436  0.2445 -0.0132 -0.1254
 3724W        W19618   0.332   3.441  14.959  0.0647  0.2418 -0.3414
 3725W        W19619  15.614  17.959  12.256  0.2886  0.0455  0.1223
 3726W        W19620   3.118  13.633  11.461  0.0041 -0.1205  0.2393
 3727W        W19621  16.817   6.718  13.543 -0.0081 -0.0335 -0.1470
 3728W        W19622   2.422   6.025   5.017 -0.1715  0.0341  0.0080
 3729W        W19623   1.853  11.923   1.821  0.2956 -0.4196  0.0408
 3730W        W19624  15.849   0.766   0.609  0.1406  0.3103  0.1126
 3731W        W19625  13.339  15.739  13.258 -0.1217  0.0394  0.1594
 3732W        W19626   4.452   4.698   2.637 -0.1963  0.2151 -0.0446
 3733W        W19627   1.580   2.764   5.598  0.1263  0.2611 -0.0297
 3734W        W19628   1.068   2.264  13.440 -0.1003 -0.4138  0.1790
 3735W        W19629  15.867   9.345   2.936  0.1089 -0.1557  0.1207
 3736W        W19630   5.991   0.182  15.273 -0.0450 -0.0252  0.2928
 3737W        W19631   1.101   8.491   2.388 -0.0145  0.1688  0.4914
 3738W        W19632  17.129   3.408   1.470  0.0405  0.2888 -0.0860
 3739W        W19633   7.300   3.058   2.842 -0.1072  0.3762  0.1811
 3740W        W19634  13.121  11.981   4.566  0.0102  0.0587 -0.4124
 3741W        W19635  11.081   9.539  14.363 -0.2024  0.1944  0.2040
 3742W        W19636   5.613  11.390   4.304  0.2077  0.0045 -0.1643
 3743W        W19637   1.713  13.764  14.881 -0.1432  0.0560  0.1178
 3744W        W19638   4.747  17.608   0.141  0.2706 -0.3732  0.1682
 3745W        W19639   9.903  13.834  11.857  0.4630 -0.2403 -0.2025
 3746W        W19640  14.737   4.418   4.731  0.1653 -0.2786  0.0773
 3747W        W19641   7.943   9.209  12.325 -0.0771 -0.1435 -0.1742
 3748W        W19642   0.146  10.124   0.971 -0.1574 -0.1090  0.0909
 3749W        W19643   2.837  17.388  12.500  0.4501 -0.1094 -0.1100
 3750W        W19644   0.877   4.108  15.158  0.2599 -0.0843  0.1469
 3751W        W19645   1.543  17.184   4.153  0.0075 -0.3736 -0.3712
 3752W        W19646   1.188  13.667   1.894 -0.1082 -0.1401  0.0772
 3753W        W19647   5.300  17.813  15.366 -0.4862  0.0871 -0.0677
 3754W        W19648  17.832  16.142   1.139  0.0164 -0.0809 -0.2130
 3755W        W19649   6.692   4.930   0.849 -0.1631  0.4435  0.1145
 3756W        W19650   8.645   4.653   0.923  0.0649  0.0482  0.1747
 3757W        W19651   6.323   6.619  14.563 -0.1418  0.1531  0.3838
 3758W        W19652   9.455   9.936  12.807 -0.2048 -0.0982 -0.3492
 3759W        W19653   7.987   7.908  11.905 -0.2874  0.1570 -0.1192
 3760W        W19654   3.777   2.124   5.864 -0.0467  0.1588 -0.0910
 3761W        W19655  13.632  17.935   5.003  0.0864 -0.2354  0.0738
 3762W        W19656   9.314   0.692  14.447  0.2006  0.1597 -0.0997
 3763W        W19657  12.092  13.943  10.115 -0.3228  0.1219 -0.1351
 3764W        W19658  16.378   5.148  16.031  0.0879 -0.2283 -0.2381
 3765W        W19659   4.375  11.872  12.316 -0.2647  0.2668 -0.2769
 3766W        W19660   4.642   6.329   1.523  0.1030  0.2248 -0.0008
 3767W        W19661   0.855   2.526  11.975  0.2899 -0.1145 -0.0877
 3768W        W19662  11.695   7.566   0.776 -0.2839 -0.1392 -0.2907
 3769W        W19663  17.749  10.284   1.840  0.1479  0.0523  0.2617
 3770W        W19664  11.773  10.950   3.822 -0.1864  0.0888  0.0456
 3771W        W19665   5.846   2.592  11.067  0.1769  0.0274  0.1339
 3772W        W19666   6.441  13.658   3.853 -0.0483 -0.3012 -0.0335
 3773W        W19667   6.752  15.985  11.724  0.0918 -0.3206  0.0260
 3774W        W19668  11.808  10.303   5.026  0.1076  0.1718  0.3706
 3775W        W19669  13.614  10.497  14.314 -0.1503 -0.0923 -0.0392
 3776W        W19670  14.823   0.280   2.111  0.0707  0.2742  0.1870
 3777W        W19671   9.422  13.670   0.753 -0.2314 -0.1682  0.5893
 3778W        W19672  13.042  13.394  16.058  0.1395 -0.0941 -0.2626
 3779W        W19673   7.777  14.708  14.648  0.1153  0.0712  0.0081
 3780W        W19674   5.187  13.654  15.399 -0.1494  0.2833 -0.0234
 3781W        W19675   3.881  16.818  13.150  0.0809 -0.2126 -0.0533
 3782W        W19676   1.437   8.248  12.570 -0.0071 -0.0446 -0.4443
 3783W        W19677   1.104  17.655  14.666 -0.0984 -0.0593 -0.1402
 3784W        W19678  12.361   1.715   0.602 -0.2559 -0.0609 -0.1802
 3785W        W19679   9.805   9.650  11.331 -0.4149  0.2549  0.0556
 3786W        W19680  15.817   4.448  12.960  0.1637 -0.2142 -0.3247
 3787W        W19681   8.165   1.727   1.831  0.1234 -0.0431  0.0913
 3788W        W19682   8.456   7.601  13.416  0.0446 -0.2412 -0.1267
 3789W        W19683  18.281  16.287  15.031 -0.0377  0.3749 -0.1016
 3790W        W19684  14.423   3.106   4.335  0.2064 -0.3186 -0.1588
 3791W        W19685  16.057   6.192   3.222  0.1210  0.2555  0.2862
 3792W        W19686  14.470   6.105   4.403 -0.1303 -0.3291 -0.0290
 3793W        W19687   6.681  13.921   3.491  0.2155  0.0751 -0.0598
 3794W        W19688  10.343  17.634   2.245  0.2046  0.2058 -0.0204
 3795W        W19689   6.131   4.988   4.496 -0.0237 -0.3716 -0.2357
 3796W        W19690   7.642  13.707   1.404  0.2194 -0.1031 -0.0979
 3797W        W19691   6.572   8.096  15.569  0.0539 -0.0483  0.0241
 3798W        W19692   1.001   0.897  12.422  0.2948  0.1517 -0.2932
 3799W        W19693  16.203   8.491   4.420  0.0388 -0.0866  0.1479
 3800W        W19694   3.871   1.720   3.896 -0.1727 -0.1337  0.0033
 3801W        W19695  14.611  16.151   4.028  0.6311 -0.1708 -0.2640
 3802W        W19696   5.932   7.565  11.247 -0.2093 -0.0339 -0.3443
 3803W        W19697  13.979   8.757   5.164  0.3034 -0.0173 -0.4686
 3804W        W19698   9.263  16.202   3.168 -0.1151  0.1766 -0.1843
 3805W        W19699   9.706  10.876  12.678 -0.2384 -0.0860 -0.0156
 3806W        W19700  12.905   3.312  14.531  0.1507  0.1286  0.2235
 3807W        W19701  17.121   6.573   1.659 -0.2376 -0.1202 -0.2131
 3808W        W19702   6.723   7.277  13.883 -0.0831 -0.0335  0.1429
 3809W        W19703  15.929  15.180   2.939  0.2640  0.1513 -0.0641
 3810W        W19704  16.561   2.715  14.643 -0.0182 -0.0773 -0.1726
 3811W        W19705   4.580   8.599   4.681  0.2375  0.2541 -0.0256
 3812W        W19706   2.017   8.376   4.235 -0.1672  0.1673  0.0153
 3813W        W19707  18.178   1.475  15.464 -0.1938 -0.0595  0.2913
 3814W        W19708  17.375  11.543   3.280  0.1837 -0.0385  0.2754
 3815W        W19709  17.665  14.258   1.917  0.3337  0.2642 -0.1294
 3816W        W19710   9.592   0.090   4.806  0.0357 -0.0668  0.0161
 3817W        W19711   9.690   4.134  11.462  0.3757  0.1522 -0.1573
 3818W        W19712  14.539  17.818   1.697  0.1355 -0.0609 -0.3955
 3819W        W19713  17.932   0.886  11.995 -0.0913  0.1725 -0.1554
 3820W        W19714  13.289   6.043  13.844 -0.3534  0.1157 -0.2005
 3821W        W19715   7.896   9.986   2.862  0.2303  0.1359  0.0299
 3822W        W19716  11.012   6.245  12.203 -0.0547 -0.3381 -0.0046
 3823W        W19717   4.393  11.343   4.921 -0.0359 -0.1385 -0.0600
 3824W        W19718  18.055   3.874   0.520 -0.0841  0.2477  0.2772
 3825W        W19719  14.360  11.651  12.947  0.2672  0.0636 -0.1566
 3826W        W19720   8.656   1.787   2.128 -0.1593 -0.0220 -0.2045
 3827W        W19721   9.855  10.470  15.470 -0.1814  0.1667  0.0442
 3828W        W19722  12.533   0.676   2.134 -0.1650  0.0507 -0.0289
 3829W        W19723   6.383   3.274   2.600 -0.1017  0.2444 -0.1659
 3830W        W19724  15.646  17.535   1.108 -0.0232 -0.1079  0.0573
 3831W        W19725  14.445   3.104  15.580 -0.0528  0.0979  0.0964
 3832W        W19726   5.626   1.804  12.274 -0.0311 -0.0638  0.1703
 3833W        W19727   6.460   7.949   4.307 -0.1210 -0.2264 -0.0634
 3834W        W19728  13.532   1.862  15.764 -0.0823 -0.2132  0.3697
 3835W        W19729   0.383   4.147   3.087 -0.1295 -0.0063 -0.1453
 3836W        W19730  16.002  14.578  12.972  0.1568 -0.5271  0.0453
 3837W        W19731   1.313  11.593   4.841 -0.1282 -0.0283 -0.0312
 3838W        W19732   4.714  13.662  11.420  0.2025 -0.0740  0.1706
 3839W        W19733  12.958  14.586  12.902 -0.2491 -0.0284  0.6220
 3840W        W19734   5.804   5.845  11.707  0.0745 -0.0416  0.4171
 3841W        W19735   0.490   8.181   1.348 -0.2797  0.0280  0.1429
 3842W        W19736   3.465  12.313   3.217  0.0905 -0.0455 -0.0653
 3843W        W19737   3.339  10.818  11.602 -0.0950 -0.0374 -0.0723
 3844W        W19738  18.390   3.427  11.737  0.4520  0.0237 -0.3919
 3845W        W19739  18.067   2.360   2.658  0.0906 -0.0476 -0.1963
 3846W        W19740   8.028  15.369  15.112 -0.2662 -0.0536  0.2901
 3847W        W19741  12.175   0.119   0.319 -0.1624  0.1435 -0.1631
 3848W        W19742   0.316   1.439   0.115 -0.0694  0.0641  0.0099
 3849W        W19743   1.842  14.171   0.663  0.0070 -0.1230  0.1305
 3850W        W19744  12.476   2.987  13.280  0.2891 -0.1396  0.0836
 3851W        W19745   1.027  16.763   2.074 -0.1033  0.1181  0.0033
 3852W        W19746  14.731   6.946   3.682  0.0051  0.1256 -0.3891
 3853W        W19747   8.127   2.655  12.232  0.1360 -0.0396  0.0591
 3854W        W19748  17.603   5.585   4.426 -0.2429  0.0055 -0.3528
 3855W        W19749   3.385  11.035   4.475 -0.0914  0.1268  0.1174
 3856W        W19750   7.154  14.436   1.459 -0.1878  0.3087 -0.1145
 3857W        W19751  13.927   2.063  12.402 -0.0954  0.3540 -0.1099
 3858W        W19752   8.730  13.982   5.135 -0.2703 -0.2423  0.0780
 3859W        W19753   7.655   5.172  12.663  0.0539 -0.0276  0.1255
 3860W        W19754   2.305   0.564  16.022  0.2974 -0.0994 -0.1390
 3861W        W19755   2.163   5.143   4.617 -0.0567  0.2509 -0.2343
 3862W        W19756  17.467   6.187  16.076  0.2385 -0.0072 -0.2260
 3863W        W19757  11.265  13.844  13.550 -0.0503  0.2264  0.1969
 3864W        W19758   7.396  13.680  11.293  0.0713 -0.3213 -0.0699
 3865W        W19759  10.881   1.235   3.024  0.0110  0.5437 -0.0722
 3866W        W19760   4.324   4.534  14.022  0.0294  0.0666  0.3499
 3867W        W19761  18.403   9.209  15.106  0.0672  0.1568  0.0275
 3868W        W19762  11.169  15.767  11.704  0.0947 -0.2740  0.1874
 3869W        W19763  12.876  17.569  13.792 -0.2449  0.5922  0.3131
 3870W        W19764   5.130   5.319  13.490 -0.1652  0.2706 -0.2441
 3871W        W19765   7.617   7.511   2.459 -0.0440 -0.4121 -0.2932
 3872W        W19766  12.233   1.743   1.303  0.0914 -0.1481 -0.2460
 3873W        W19767   4.050  17.932  13.814  0.0359  0.0272  0.0457
 3874W        W19768   6.755  18.131  13.643 -0.3337  0.0900  0.4226
 3875W        W19769   8.220  14.272   3.046 -0.0480 -0.3196  0.1775
 3876W        W19770  18.221  17.531   1.183 -0.0746  0.0177 -0.1206
 3877W        W19771  14.305  16.628   2.259  0.0065 -0.2636 -0.0903
 3878W        W19772  14.195   0.750  12.603  0.0792 -0.1256  0.2090
 3879W        W19773   5.264  10.567  13.812  0.2156 -0.0503 -0.0141
 3880W        W19774  16.074  15.183  12.141  0.0443  0.0090 -0.1188
 3881W        W19775   1.073  11.184  14.335  0.2244 -0.1777  0.1856
 3882W        W19776   9.529   4.023   0.949  0.0399 -0.2820 -0.2507
 3883W        W19777   9.826   1.328  11.060  0.0607  0.1424 -0.1383
 3884W        W19778  15.558  17.154  12.797 -0.1401  0.1856  0.2761
 3885W        W19779   2.966   8.697  14.728 -0.0673  0.3615 -0.3678
 3886W        W19780  14.647   9.640  12.460  0.0428  0.2127  0.0243
 3887W        W19781  15.578   8.271   4.793 -0.3133 -0.2453 -0.2678
 3888W        W19782  15.277   1.001   5.788  0.0872  0.1165 -0.0486
 3889W        W19783   4.381   5.150  15.632  0.0078  0.2952 -0.1481
 3890W        W19784   4.575  16.099   2.434 -0.1195 -0.0416  0.0441
 3891W        W19785   2.309   8.405   4.763 -0.0643  0.0773 -0.1454
 3892W        W19786  15.501   7.248  13.360 -0.0383  0.0916 -0.2100
 3893W        W19787   7.743  16.652   1.684  0.2629 -0.0552 -0.0531
 3894W        W19788   5.726   0.727  11.081 -0.0090  0.1593 -0.0823
 3895W        W19789  17.218  15.261  14.867 -0.2527  0.1875  0.0325
 3896W        W19790  12.155   6.275  12.240  0.4388  0.0125 -0.1687
 3897W        W19791   9.095  14.775  13.050 -0.2568 -0.0017 -0.2317
 3898W        W19792  11.250   6.306   4.706 -0.2113  0.1371 -0.1234
 3899W        W19793   7.184  16.574  16.068 -0.1293  0.0667  0.1918
 3900W        W19794  10.972  14.553   4.612 -0.3459 -0.2296 -0.3446
 3901W        W19795  16.274  12.209  15.126  0.0788 -0.1067 -0.1150
 3902W        W19796   3.543  15.723   1.683 -0.0907  0.1525 -0.1854
 3903W        W19797   0.748   9.512  15.888 -0.1034 -0.2893 -0.1553
 3904W        W19798  16.069  17.104  12.782 -0.4355 -0.1508  0.2055
 3905W        W19799   4.129  17.783  15.706 -0.0586  0.0668 -0.1004
 3906W        W19800   2.575   3.379   5.108 -0.0927  0.0240 -0.0135
 3907W        W19801  18.262   2.620  12.055 -0.2464  0.0072 -0.1514
 3908W        W19802  15.844  11.085   4.758  0.0328  0.3398 -0.2866
 3909W        W19803   6.243  17.123   3.358  0.1479  0.1466 -0.0640
 3910W        W19804   8.225   5.824   3.992 -0.0648  0.0364 -0.2461
 3911W        W19805   7.526  17.336   4.319  0.1679  0.3343 -0.1963
 3912W        W19806   5.982   4.413  10.257  0.1301 -0.0824  0.0063
 3913W        W19807   5.142  15.819   0.625 -0.1650  0.1575  0.3245
 3914W        W19808   2.098   9.580   0.281  0.0373  0.2091  0.1597
 3915W        W19809   3.113   2.812  14.421 -0.0762  0.0067  0.2211
 3916W        W19810  12.652   3.758   0.918 -0.3194 -0.2175  0.2943
 3917W        W19811   1.774  15.950   1.057  0.1363 -0.0604  0.0494
 3918W        W19812  11.908   3.243  11.496  0.2535 -0.1639 -0.1382
 3919W        W19813   3.739  10.201   5.287 -0.2157  0.2944 -0.0754
 3920W        W19814  11.095   7.427  10.601 -0.0402 -0.0516  0.1005
 3921W        W19815   8.206   4.362   4.774  0.0017 -0.1518  0.2626
 3922W        W19816  11.457  12.530   3.552  0.0353 -0.0630 -0.1585
 3923W        W19817  14.514  17.847  12.834  0.2324  0.0434  0.1401
 3924W        W19818   7.950   2.451  12.830  0.0101  0.0094  0.0104
 3925W        W19819   9.504  10.508   1.221 -0.2618 -0.1384  0.0922
 3926W        W19820   8.499   9.898  15.716  0.0821 -0.0483 -0.1498
 3927W        W19821  12.482   6.693  12.282  0.1351  0.3311 -0.3001
 3928W        W19822  10.490   9.412   2.001  0.2416 -0.2011 -0.1387
 3929W        W19823  12.434  12.435  10.932 -0.3106  0.0027  0.2323
 3930W        W19824  13.408   4.315   0.410 -0.0512  0.0397 -0.2548
 3931W        W19825  12.439  13.966  16.044 -0.1139  0.0645  0.1839
 3932W        W19826   9.377  10.798  15.531 -0.1546 -0.1196  0.2775
 3933W        W19827   1.406   5.214  12.484  0.0578  0.0431  0.0931
 3934W        W19828  15.221  17.034  13.681 -0.4817  0.0464  0.2148
 3935W        W19829   8.844  15.749  14.777 -0.0932 -0.1874 -0.2338
 3936W        W19830   3.406  15.609   0.680 -0.0123 -0.2073 -0.2446
 3937W        W19831  10.937  14.055   1.701  0.0004 -0.4872  0.0599
 3938W        W19832   6.562   3.127   0.568 -0.0175  0.0064 -0.1654
 3939W        W19833   6.959  11.696  16.123 -0.1923  0.4781 -0.1232
 3940W        W19834  18.128   6.275   1.988  0.3838 -0.1629  0.2773
 3941W        W19835  10.818  16.305   3.500  0.1938  0.1794 -0.0241
 3942W        W19836   5.865   6.598   1.260 -0.3034  0.1848 -0.4075
 3943W        W19837   0.172   2.191   0.700 -0.2467  0.3033  0.0484
 3944W        W19838  13.861   9.834   3.603  0.0785 -0.0466  0.0584
 3945W        W19839   8.646   0.327   4.140  0.1869  0.2686 -0.3537
 3946W        W19840  13.821   3.054   2.547  0.3183  0.0171 -0.2068
 3947W        W19841  18.154  14.197  11.096 -0.1101 -0.1966 -0.0289
 3948W        W19842  17.452  13.936  11.697  0.0542 -0.0728  0.3230
 3949W        W19843   4.121   6.862   1.996 -0.1701 -0.1254 -0.0228
 3950W        W19844  15.616   3.933   1.437 -0.2947  0.3452  0.0289
 3951W        W19845  16.613  16.874  14.271 -0.0151 -0.0347  0.0600
 3952W        W19846   6.269   3.590  12.018 -0.0240 -0.2627 -0.1216
 3953W        W19847   9.562  12.787   5.545  0.1303  0.0468 -0.4919
 3954W        W19848  10.635   3.785  15.591 -0.3289  0.0307  0.3346
 3955W        W19849  16.410   3.370   0.322 -0.3200 -0.1615 -0.1326
 3956W        W19850   8.861  10.775  10.556 -0.0887  0.1419 -0.2955
 3957W        W19851  16.504   1.930   3.813 -0.0833  0.0035  0.0824
 3958W        W19852   6.286  14.878   4.441 -0.0973  0.2331 -0.2599
 3959W        W19853  10.764  17.432   2.280  0.1619 -0.0714 -0.1303
 3960W        W19854  14.311  11.370  14.581 -0.1703 -0.0174  0.2235
 3961W        W19855   6.277   2.448  12.197 -0.0784 -0.3999 -0.1001
 3962W        W19856  17.606   8.067  13.543  0.0010 -0.1337  0.0541
 3963W        W19857   1.333   9.931  14.640  0.0754  0.1344  0.2538
 3964W        W19858  12.958  10.447   0.067 -0.1670 -0.0338 -0.1198
 3965W        W19859  11.825  14.788   2.755 -0.1480 -0.0519 -0.0898
 3966W        W19860   0.491  17.409   1.166  0.1779 -0.0594  0.0452
 3967W        W19861  16.135   4.580   1.764  0.3258  0.1509 -0.1662
 3968W        W19862  13.562   7.508   4.080 -0.0521 -0.1605 -0.1200
 3969W        W19863  13.580   2.521   0.680 -0.2890  0.0257  0.0157
 3970W        W19864  14.430  18.143   3.955  0.0705  0.3178 -0.1823
 3971W        W19865   2.964   1.989  12.874  0.2541 -0.0501 -0.0519
 3972W        W19866   0.019  12.157   5.281  0.2169  0.3604  0.0916
 3973W        W19867   9.554   2.406   5.487 -0.4409  0.3195  0.3425
 3974W        W19868  10.096  17.186  12.113 -0.1692  0.2511  0.0659
 3975W        W19869   8.356   8.012   1.831  0.1499 -0.1624 -0.0422
 3976W        W19870   4.891  11.227   4.951  0.2314  0.1128 -0.0853
 3977W        W19871  10.207   3.879  15.030  0.1285 -0.1178 -0.0133
 3978W        W19872  10.562  16.959  11.444  0.3826 -0.0544 -0.2838
 3979W        W19873  14.538   7.887   3.474  0.1079 -0.3628 -0.1507
 3980W        W19874  17.812   7.112   3.889 -0.1688 -0.1303 -0.2720
 3981W        W19875  18.131  13.495  13.988 -0.0829  0.1781 -0.0489
 3982W        W19876  18.285   1.089   3.306  0.0338  0.0921  0.2486
 3983W        W19877   1.022  10.267   5.228  0.0545 -0.2717  0.0804
 3984W        W19878  11.325   5.951  13.704 -0.0658 -0.0189 -0.0449
 3985W        W19879  13.739  10.982  13.323  0.2240  0.0585 -0.0268
 3986W        W19880   6.746   2.078   3.608  0.0941 -0.1084 -0.0104
 3987W        W19881   0.418  11.990   0.217  0.0827 -0.1859  0.0455
 3988W        W19882  14.653   0.069   0.075 -0.2194  0.3070  0.2171
 3989W        W19883   8.667   2.280   2.539  0.0682 -0.0023 -0.0577
 3990W        W19884  10.182   4.709   1.026 -0.0094 -0.0579 -0.3723
 3991W        W19885   7.169   0.767  12.562 -0.0982 -0.0358 -0.1032
 3992W        W19886   2.059  16.677  15.343  0.2430 -0.2461 -0.0163
 3993W        W19887  17.951  14.795  13.841 -0.1851 -0.1628 -0.3786
 3994W        W19888   3.028   2.131   3.552  0.0227 -0.0926 -0.0061
 3995W        W19889  16.805   0.166   3.263 -0.3931  0.0737 -0.0156
 3996W        W19890  16.523  14.653   5.155  0.0466 -0.3169 -0.0401
 3997W        W19891  12.834  11.888   0.785  0.2236 -0.1911 -0.1276
 3998W        W19892  15.089   3.307  12.343 -0.1535  0.2755 -0.2686
 3999W        W19893   5.544  17.864  11.052 -0.0644  0.0662 -0.1023
 4000W        W19894   9.316  16.656   4.906  0.2187 -0.0027 -0.0051
 4001W        W19895   0.427   7.144   5.361  0.1968 -0.1441 -0.0728
 4002W        W19896   1.740   3.829   0.758 -0.2404  0.1675 -0.3039
 4003W        W19897   7.686   1.038   1.319 -0.1633  0.2874 -0.1692
 4004W        W19898  13.198   1.295   0.544  0.0277  0.0787 -0.2209
 4005W        W19899  11.387  15.960   2.220 -0.2168 -0.0562 -0.0016
 4006W        W19900   0.979   3.191   0.344  0.4678 -0.0934 -0.2819
 4007W        W19901   2.742   5.218   3.350 -0.0281  0.1796  0.0289
 4008W        W19902   6.309  11.702   3.197 -0.3232 -0.0168  0.3099
 4009W        W19903  11.745   1.224   2.244  0.0180 -0.0719  0.1979
 4010W        W19904  16.735  13.400  14.167  0.0526  0.3428  0.2100
 4011W        W19905   1.096   9.044  14.435  0.1993  0.0872  0.1091
 4012W        W19906   2.561  13.398   2.625  0.0088 -0.0517  0.1975
 4013W        W19907  13.227   1.179  15.676 -0.0852  0.0571 -0.1071
 4014W        W19908  12.502  12.217  15.961 -0.0759 -0.1685  0.2726
 4015W        W19909   1.523  15.846  12.681 -0.0045 -0.1112  0.0238
 4016W        W19910  16.972   9.645   3.192  0.0835 -0.4194 -0.0313
 4017W        W19911   7.306  11.229  10.778 -0.3137 -0.0935  0.1546
 4018W        W19912   6.872  15.559   3.050  0.1126 -0.1728 -0.0307
 4019W        W19913  10.515   2.784  10.768  0.0830  0.2069 -0.0278
 4020W        W19914   8.891  13.418  15.158  0.0453 -0.2495 -0.1076
 4021W        W19915  17.189  11.320   2.871  0.2311 -0.2589 -0.3429
 4022W        W19916  11.247  13.481   4.630  0.4968 -0.2905 -0.1205
 4023W        W19917   6.048  13.173  11.063 -0.0937  0.1252 -0.3059
 4024W        W19918   7.227  11.109  12.164  0.1452  0.1910 -0.0726
 4025W        W19919  10.178   4.354  12.427  0.0837 -0.0504  0.0582
 4026W        W19920  15.709   7.322  11.639  0.1056  0.1459 -0.3004
 4027W        W19921  17.032  16.999   4.608 -0.0329 -0.0085 -0.1584
 4028W        W19922   4.639  15.341   3.101  0.0966 -0.1639  0.1200
 4029W        W19923  13.262  16.435   0.670 -0.0267  0.0795  0.0579
 4030W        W19924  14.480   3.724   5.300 -0.4085  0.2570 -0.3651
 4031W        W19925   3.360   1.989   3.121  0.2369  0.0570 -0.1616
 4032W        W19926  17.943   3.543  14.020  0.2857  0.2513 -0.0761
 4033W        W19927  10.851   8.685  11.101  0.2821 -0.1471 -0.0443
 4034W        W19928   1.829  15.248   1.713 -0.1256 -0.2011 -0.0806
 4035W        W19929  15.639  12.207   3.750  0.0952 -0.0973  0.1284
 4036W        W19930   5.638  12.118  15.998  0.0818 -0.1646  0.1561
 4037W        W19931  13.155   5.692   0.758 -0.0058  0.1465  0.0316
 4038W        W19932   0.917   6.970   6.318 -0.0945  0.2661 -0.4003
 4039W        W19933  14.295   6.341  13.987 -0.1569  0.2341 -0.1967
 4040W        W19934   5.379   4.817   4.574  0.3287 -0.0261  0.2780
 4041W        W19935   6.666  17.725   3.667 -0.1542 -0.0049  0.0465
 4042W        W19936  11.983  14.488   4.765  0.3509  0.0524  0.2789
 4043W        W19937  12.705  16.035   3.752 -0.0396  0.2035  0.1450
 4044W        W19938  16.581   4.786   5.653 -0.0023  0.0342 -0.0021
 4045W        W19939   8.919   1.087  11.562  0.1102 -0.0993  0.1639
 4046W        W19940   8.848   3.903  11.084 -0.5819  0.1378  0.0447
 4047W        W19941   2.919   7.682   2.540 -0.1916 -0.3363 -0.2523
 4048W        W19942   3.669  12.348   4.421 -0.1165 -0.2220 -0.1456
 4049W        W19943  15.637   6.211  10.889  0.5240 -0.1215 -0.2681
 4050W        W19944  16.163   5.092   4.615  0.1965 -0.0912  0.1298
 4051W        W19945  14.991   9.696   2.081  0.0047  0.4275 -0.4890
 4052W        W19946  12.981  10.927   2.470 -0.0842 -0.0747  0.2890
 4053W        W19947   0.196  14.185   0.157 -0.0304 -0.0126  0.0646
 4054W        W19948   3.225  16.375   0.002  0.0477  0.0665 -0.0660
 4055W        W19949  12.954  10.525   3.437  0.0777 -0.0525 -0.1345
 4056W        W19950  16.688   5.312  12.346  0.0917  0.0842 -0.0893
 4057W        W19951  11.740   0.857  15.143 -0.0338 -0.2013 -0.2874
 4058W        W19952   9.307  11.286   2.717  0.1965 -0.0883 -0.0599
 4059W        W19953  10.096  12.968  14.031 -0.2444 -0.1407 -0.2152
 4060W        W19954  18.375   3.596   1.033  0.1111 -0.1324 -0.0842
 4061W        W19955   6.647  10.662   3.595  0.0994 -0.3048  0.0284
 4062W        W19956   2.095  10.016  13.222 -0.2081 -0.2322  0.2610
 4063W        W19957   0.301   2.524  11.627  0.0473  0.1616 -0.0989
 4064W        W19958   3.229  13.306  12.903  0.1044  0.0892 -0.1172
 4065W        W19959   9.225   7.930  13.340 -0.0184  0.2669  0.0473
 4066W        W19960  13.713   6.577  13.114 -0.1228 -0.1773  0.1936
 4067W        W19961   3.824   6.759  13.451 -0.1266 -0.2124 -0.1370
 4068W        W19962  15.922   3.407  11.770 -0.1765 -0.0641  0.0730
 4069W        W19963  10.177   8.616   3.500 -0.1666 -0.1787 -0.4450
 4070W        W19964  12.210   6.806   2.328  0.2865 -0.1288  0.0137
 4071W        W19965  17.690   5.003   2.953  0.3085 -0.1694 -0.1367
 4072W        W19966   6.132  13.109  14.424  0.0115  0.0740  0.0004
 4073W        W19967  10.286  11.312   4.132  0.0097 -0.0173 -0.0426
 4074W        W19968   6.482   5.694  12.287 -0.2221  0.0510  0.2344
 4075W        W19969   8.627  16.512   5.542  0.0702 -0.2567  0.0382
 4076W        W19970  16.658  13.842   1.843 -0.1395  0.0517  0.1498
 4077W        W19971  14.547   5.381   0.818  0.4915  0.0085 -0.0056
 4078W        W19972   0.939  10.186   0.861 -0.0367  0.1178  0.0280
 4079W        W19973  15.877  10.542   1.177 -0.1712 -0.1599  0.1273
 4080W        W19974   5.990  10.478  11.720  0.1526 -0.1684  0.0504
 4081W        W19975   3.620   9.922   4.296 -0.0145  0.2885 -0.2486
 4082W        W19976   8.591   0.148   2.768  0.2892 -0.1111 -0.0703
 4083W        W19977   5.046   3.610   5.503  0.2241  0.1656 -0.2039
 4084W        W19978  16.022  16.734   4.210  0.1798  0.1096 -0.1330
 4085W        W19979  11.557  17.021  14.881  0.2294  0.0171 -0.0772
 4086W        W19980  10.084  16.962   1.864  0.0210  0.0413  0.0872
 4087W        W19981   3.609  16.118   3.270 -0.2505  0.3015 -0.1335
 4088W        W19982   3.729   3.932   4.427 -0.3130  0.0143 -0.1230
 4089W        W19983  17.429   7.275   3.395 -0.2022 -0.2546 -0.3109
 4090W        W19984  14.471  18.147  15.997 -0.0646  0.0480  0.2947
 4091W        W19985  16.079  14.208   4.160  0.1617 -0.0364 -0.3792
 4092W        W19986   0.324   2.653   5.148 -0.1810 -0.1271  0.0509
 4093W        W19987   8.617   3.262  10.418  0.2245  0.2293 -0.2934
 4094W        W19988   6.636  18.011  12.652 -0.1577 -0.1758 -0.1096
 4095W        W19989  11.445   5.505   3.391 -0.1912  0.2963 -0.3556
 4096W        W19990   1.037  17.745  12.312  0.1247 -0.2058 -0.1401
 4097W        W19991  16.645  17.119   6.249 -0.0199  0.2128 -0.4015
 4098W        W19992   0.327   8.281   0.068 -0.1411  0.1252  0.1354
 4099W        W19993   1.378   6.483   5.735  0.1587 -0.0026  0.1334
 4100W        W19994   7.236  15.315  14.392  0.0390  0.1273 -0.1825
 4101W        W19995   2.067  15.745  14.949  0.2118  0.1167  0.0180
 4102W        W19996  12.841   2.948   2.567 -0.2110 -0.3351 -0.3142
 4103W        W19997  15.430  13.966  11.842  0.2282  0.0870 -0.2718
 4104W        W19998  15.813  14.349   5.044  0.3873 -0.1918  0.1304
 4105W        W19999  14.868   7.744   0.820 -0.0418 -0.0153  0.2045
 4106W        W20000   3.700   8.014   6.521 -0.2883 -0.1202 -0.0897
 4107W        W20001  16.256   8.978   4.503  0.0745  0.0110  0.0862
 4108W        W20002  11.384   6.671  13.857  0.0749 -0.3125  0.0140
 4109W        W20003   0.411   7.167   3.412 -0.2223 -0.2689  0.0566
 4110W        W20004   8.096  11.479   3.388  0.0207 -0.0174 -0.0272
 4111W        W20005  13.565  10.286   4.521  0.0176  0.3378  0.1558
 4112W        W20006   4.255  10.579   2.306  0.0275 -0.0240  0.1183
 4113W        W20007   6.552  17.924  11.303  0.2387  0.0280 -0.1793
 4114W        W20008   3.636   6.051  15.511 -0.0653 -0.1651  0.0311
 4115W        W20009   2.335   5.452   1.560 -0.3053 -0.2718  0.0188
 4116W        W20010   6.620  13.091   1.569  0.3512  0.3163  0.1913
 4117W        W20011   0.472  17.223   4.365  0.0937 -0.2294  0.2832
 4118W        W20012   9.201  12.704  14.427  0.0444 -0.1243 -0.1753
 4119W        W20013   3.128   3.193  14.015 -0.0928  0.0927 -0.2808
 4120W        W20014   7.667   2.300   3.461 -0.3805  0.1420 -0.3113
 4121W        W20015  12.624   4.793  12.704 -0.1664  0.1175  0.0437
 4122W        W20016  12.172  15.177   0.594 -0.1246  0.1920  0.3633
 4123W        W20017   7.383   3.646  13.062  0.3173  0.0396 -0.2059
 4124W        W20018   2.540   4.486   0.785  0.0758 -0.0804  0.1352
 4125W        W20019  10.709   9.054  11.668 -0.3074 -0.0546  0.0024
 4126W        W20020  13.429   5.520  11.751 -0.0424  0.5781 -0.1086
 4127W        W20021  16.434   0.416   5.622 -0.1622  0.0036 -0.0418
 4128W        W20022   9.910  12.464  11.471 -0.1653  0.3300  0.1157
 4129W        W20023   2.385   2.617  14.530  0.0314  0.0282  0.3820
 4130W        W20024  15.667  14.956   1.691  0.0681  0.3519 -0.0444
 4131W        W20025  12.556   4.390  12.477 -0.0898  0.1525  0.0387
 4132W        W20026  13.040  18.354  11.520  0.1908  0.6314 -0.1609
 4133W        W20027   9.734   2.929  16.032  0.0107 -0.4129 -0.0325
 4134W        W20028   1.239   4.273   1.836 -0.1738  0.0380  0.1673
 4135W        W20029   8.097   5.662  15.090  0.1614 -0.2320 -0.2174
 4136W        W20030   8.897   8.450  12.415  0.1696  0.2390  0.0062
 4137W        W20031  11.295   3.837  13.126 -0.1312 -0.0146 -0.2425
 4138W        W20032   6.352   9.918  13.379 -0.0012  0.1500 -0.0260
 4139W        W20033   0.512  16.953  11.275  0.2917 -0.1509  0.1680
 4140W        W20034   0.180  14.375   2.918 -0.2667 -0.1433 -0.0579
 4141W        W20035   0.851   1.412  13.876  0.0731 -0.1454  0.0214
 4142W        W20036  12.566   9.069   1.000 -0.1405 -0.0093  0.0729
 4143W        W20037  11.992   3.173   5.369  0.3111  0.4155  0.0175
 4144W        W20038  16.229   7.711   3.112  0.2253  0.0989 -0.1997
 4145W        W20039   5.051   4.703  12.514  0.1364  0.3041  0.0960
 4146W        W20040   7.998  14.512   1.469 -0.1648 -0.3206 -0.1785
 4147W        W20041  17.303  12.380   5.511 -0.0543  0.2866 -0.0858
 4148W        W20042   3.632   6.863   1.509  0.0508  0.0952  0.0439
 4149W        W20043  10.465   8.023  15.609  0.3129  0.1197  0.0429
 4150W        W20044  10.996   4.567   4.340  0.1952 -0.0803  0.0582
 4151W        W20045   6.311   8.936  13.193  0.3383  0.0850  0.1704
 4152W        W20046  11.969   5.060  13.843  0.0147 -0.1623 -0.2092
 4153W        W20047   1.698   7.237   3.323 -0.1812 -0.0825 -0.1047
 4154W        W20048  10.926  12.667   2.118  0.1211 -0.0005 -0.2001
 4155W        W20049   2.850   9.707  14.186  0.0716  0.4944 -0.0443
 4156W        W20050   4.348   0.801   4.053 -0.1215 -0.0824 -0.1285
 4157W        W20051   1.312   0.060   2.474 -0.0044 -0.0172  0.0767
 4158W        W20052  16.388   2.580   0.019  0.1775 -0.1684 -0.0368
 4159W        W20053  12.436   3.861   3.148  0.1216  0.1651 -0.2391
 4160W        W20054   1.564  16.734  14.932  0.1272  0.1966  0.0285
 4161W        W20055  17.121   4.263   4.901 -0.1481 -0.3578 -0.2428
 4162W        W20056   1.018  18.073   4.431 -0.1443  0.0080  0.0657
 4163W        W20057  15.104   1.058   3.634  0.1606  0.2043 -0.0068
 4164W        W20058   3.946   8.064   5.635 -0.0126  0.1922  0.4027
 4165W        W20059   8.123   5.919   1.118 -0.4065 -0.2474  0.0543
 4166W        W20060  14.943  18.466   3.796 -0.0370 -0.1358  0.0926
 4167W        W20061   3.254  11.078   3.295 -0.0382  0.0198 -0.1883
 4168W        W20062   8.961  17.590  11.521 -0.1582 -0.0061  0.0918
 4169W        W20063  13.497   6.267   3.374 -0.1676 -0.3237 -0.1610
 4170W        W20064   4.143  15.322   2.327 -0.1697 -0.0164 -0.0016
 4171W        W20065   4.930  12.917   5.166 -0.0372 -0.1619 -0.1800
 4172W        W20066  12.095  13.532  11.249  0.0151  0.2054  0.1149
 4173W        W20067  15.660   1.436   6.650 -0.1690  0.0782  0.1490
 4174W        W20068   4.505  14.608   3.832 -0.0600  0.2375  0.0552
 4175W        W20069  16.526   8.288  12.463  0.1580  0.0909  0.0830
 4176W        W20070   1.375   3.438   0.482  0.1798  0.0553 -0.0029
 4177W        W20071  13.193   3.840  14.497 -0.0700 -0.0653 -0.1396
 4178W        W20072   0.616   8.088   3.695 -0.2085 -0.1698  0.3741
 4179W        W20073   3.711  18.334   1.425  0.1566 -0.3100  0.2725
 4180W        W20074   4.907   1.525   1.870 -0.3719 -0.2777  0.0597
 4181W        W20075   4.589  13.207   0.380 -0.1775 -0.1335 -0.0580
 4182W        W20076   5.160  18.037   0.898  0.0779  0.0449 -0.1745
 4183W        W20077  14.604   5.189   5.720 -0.0596  0.0786 -0.0097
 4184W        W20078  10.370   0.950   3.633 -0.1272 -0.1728  0.2926
 4185W        W20079  17.899   7.388   4.282  0.1416  0.1534 -0.1169
 4186W        W20080   0.166  13.103  12.994  0.0222 -0.3900 -0.2004
 4187W        W20081  17.960   3.816  15.359  0.1761  0.1441 -0.0845
 4188W        W20082   7.350   8.716   4.264  0.1750 -0.0478 -0.2242
 4189W        W20083   6.719   7.573  12.493  0.0874  0.2775 -0.3354
 4190W        W20084  15.045  12.120  15.012 -0.0521  0.0225 -0.0759
 4191W        W20085  14.111   3.284  13.505 -0.0297  0.0039 -0.0488
 4192W        W20086  13.930   1.259  10.455 -0.0278 -0.1147  0.0731
 4193W        W20087   3.586  13.156   1.664 -0.0626 -0.0429  0.1820
 4194W        W20088   2.655   5.728   0.265  0.0181 -0.0517  0.0673
 4195W        W20089   1.743   9.717   0.757 -0.0408  0.0711 -0.0200
 4196W        W20090   9.930  12.051  14.558 -0.0319 -0.0245  0.4795
 4197W        W20091   1.501   4.942  12.037  0.0808  0.0087  0.2804
 4198W        W20092  15.148   9.705  14.049  0.1819  0.1299  0.1084
 4199W        W20093   9.095   1.860   1.909 -0.0410  0.0744  0.1371
 4200W        W20094   0.412  17.073  13.823  0.2166 -0.1785  0.0100
 4201W        W20095  15.143  12.560  12.368 -0.2096 -0.0497 -0.0687
 4202W        W20096  13.487   6.975  12.599  0.2130 -0.0736  0.1692
 4203W        W20097  11.916   8.430   2.646  0.2211 -0.0970 -0.2006
 4204W        W20098  14.362  11.990   3.915  0.1393 -0.2703  0.0212
 4205W        W20099   4.782  17.221   1.252  0.2006 -0.3303  0.1381
 4206W        W20100  17.662  13.904   6.288  0.1437 -0.0156 -0.1070
 4207W        W20101  14.110   2.971  14.911  0.1704 -0.0978  0.2594
 4208W        W20102  13.772   4.083  14.957  0.0385 -0.3603 -0.2662
 4209W        W20103  11.482  16.512   0.736  0.0436  0.4551 -0.0157
 4210W        W20104   3.256   4.420  12.421 -0.0447  0.2414  0.1329
 4211W        W20105  15.810   3.159   1.253 -0.1660 -0.3091  0.0298
 4212W        W20106  11.975  10.102   4.347 -0.0465  0.1195  0.2584
 4213W        W20107  13.385  17.162  15.675 -0.1770  0.5114 -0.1327
 4214W        W20108  14.341  16.363   4.460 -0.1023 -0.1230 -0.0070
 4215W        W20109  10.470  15.149  15.878 -0.0440 -0.3929 -0.1946
 4216W        W20110   4.066   4.371   4.201  0.1335  0.0266 -0.1434
 4217W        W20111   7.346   2.398   5.755 -0.0734  0.1069 -0.1249
 4218W        W20112  12.182   9.767   2.838 -0.0310 -0.1414 -0.0130
 4219W        W20113  12.534   7.454  13.870  0.0859  0.0760  0.0382
 4220W        W20114  12.940   2.073  11.468  0.0958  0.2408  0.2231
 4221W        W20115   0.728  11.174  12.481  0.2743  0.0077 -0.1741
 4222W        W20116  13.610   7.295   5.293 -0.1336  0.0584 -0.0688
 4223W        W20117   2.701   1.330   3.281 -0.0835  0.3473 -0.0270
 4224W        W20118   1.966   7.299  12.727 -0.1709  0.1747  0.0348
 4225W        W20119   8.399  14.562   4.396  0.0240  0.1143 -0.2780
 4226W        W20120  11.298   7.377  13.486 -0.0007 -0.0062  0.0757
 4227W        W20121   1.721  15.684  15.739  0.0173  0.1636  0.3155
 4228W        W20122  12.583   2.455  12.837 -0.1190  0.0502  0.1479
 4229W        W20123  13.070  17.225   1.252 -0.1433  0.2478 -0.1152
 4230W        W20124  10.006  13.001  15.131  0.1190  0.1185 -0.0096
 4231W        W20125  16.894  15.368  14.057  0.0309  0.3945 -0.0187
 4232W        W20126   7.972  10.669  10.058  0.1472  0.3028 -0.1323
 4233W        W20127  16.002   0.200   3.792  0.0245  0.3726  0.4121
 4234W        W20128  14.216   6.814  11.902  0.2467  0.1573  0.1430
 4235W        W20129  16.693  13.065   5.258  0.0571  0.0557 -0.0643
 4236W        W20130  17.619   6.192   4.367 -0.3645  0.3698  0.0148
 4237W        W20131  12.740  16.383  12.169  0.1233  0.1334 -0.0028
 4238W        W20132   9.977  13.362  14.311 -0.1743  0.0769 -0.1260
 4239W        W20133  17.796   8.909   0.673 -0.1117  0.1783 -0.4791
 4240W        W20134   7.625   5.794   2.127  0.1537 -0.1637 -0.1863
 4241W        W20135   3.993   4.421  13.618  0.1069 -0.2147 -0.0071
 4242W        W20136   2.565  15.284  13.694  0.3134  0.0774  0.1737
 4243W        W20137  16.959  17.782  13.209 -0.1543 -0.1688 -0.0330
 4244W        W20138   1.837  14.350  15.799  0.0502  0.0672  0.2017
 4245W        W20139  14.142  15.027   1.160 -0.2505 -0.0389  0.2546
 4246W        W20140   3.315   3.290   0.239 -0.2564  0.0655  0.0364
 4247W        W20141   4.777  10.770  13.191 -0.0049  0.2099 -0.0814
 4248W        W20142  11.017  12.569  15.704  0.0369 -0.2425  0.3014
 4249W        W20143  16.469  15.162   3.821 -0.0660 -0.1146 -0.1762
 4250W        W20144   0.773  12.271   3.799 -0.0280 -0.2136 -0.0501
 4251W        W20145  11.019  17.828   5.365  0.2660  0.1685  0.0174
 4252W        W20146   8.951   6.543   4.344  0.1655 -0.0099 -0.2149
 4253W        W20147  16.307  15.192   2.232  0.2025  0.0391 -0.0310
 4254W        W20148  10.544   0.364  14.566  0.0844 -0.5478  0.0137
 4255W        W20149  15.913  17.694  14.097  0.2416  0.2021  0.2927
 4256W        W20150  17.523  12.985   4.873 -0.0681  0.2708  0.0354
 4257W        W20151   1.557   8.385   5.824  0.0149  0.1384 -0.0445
 4258W        W20152  14.099  17.533  12.865  0.2407  0.0687  0.0420
 4259W        W20153  17.025  18.017   2.206  0.0381 -0.2634 -0.0199
 4260W        W20154   7.983   7.692  14.895  0.1049 -0.0504 -0.1423
 4261W        W20155  14.503   4.010   3.248  0.3742  0.1771  0.0193
 4262W        W20156  16.983  17.937  14.445  0.0733 -0.2637 -0.3175
 4263W        W20157   9.270   9.748   0.885 -0.3711  0.0972 -0.1194
 4264W        W20158  15.904   0.252   0.773  0.2482  0.0598 -0.1718
 4265W        W20159   1.626  16.403   0.912  0.0485 -0.1070  0.0090
 4266W        W20160   7.561   1.756  13.773 -0.0359  0.1969  0.1847
 4267W        W20161   5.581   4.268  11.067  0.1362 -0.1274 -0.2700
 4268W        W20162  15.036   7.174   4.909  0.1013 -0.0018  0.1571
 4269W        W20163   1.122   1.877  11.538  0.0260  0.0146  0.0678
 4270W        W20164   1.674  16.685  15.641 -0.0274  0.0905  0.0134
 4271W        W20165  10.511   4.128  13.356  0.0428  0.1424  0.0295
 4272W        W20166   2.025   0.123  16.074 -0.1261  0.0203  0.1420
 4273W        W20167  12.506  16.605   0.672 -0.3494  0.0893 -0.0829
 4274W        W20168  14.210   1.542   2.135 -0.1119 -0.2371 -0.1190
 4275W        W20169  15.732  17.314   2.243  0.3238 -0.4100 -0.0274
 4276W        W20170   4.979   4.798  13.452 -0.1168  0.0709  0.1381
 4277W        W20171   2.737   0.039   1.645  0.0438 -0.0571 -0.3591
 4278W        W20172  16.499   3.347   4.050  0.2314 -0.0531  0.1595
 4279W        W20173   6.399   8.694  11.354 -0.0764  0.2135  0.0183
 4280W        W20174   0.206   9.573   6.217 -0.0389 -0.0971  0.1476
 4281W        W20175   5.059   0.868   0.913 -0.0199  0.1604 -0.1140
 4282W        W20176   6.081  11.045  15.261 -0.1066  0.3117  0.0679
 4283W        W20177  17.147   9.964   4.179 -0.2527  0.0023  0.0557
 4284W        W20178   6.805   4.257   0.150  0.3525  0.1062  0.0670
 4285W        W20179   0.240   1.882  14.771 -0.4321  0.0838  0.1918
 4286W        W20180  15.854   8.303   1.519 -0.0755  0.0699  0.1953
 4287W        W20181  12.414  17.895   0.629 -0.1910  0.2607 -0.0039
 4288W        W20182  10.500   8.224   5.970  0.4903  0.3009  0.1477
 4289W        W20183   1.628   4.834  16.062 -0.3715  0.1704 -0.0134
 4290W        W20184  12.939   4.766   1.853  0.1872  0.1505 -0.1058
 4291W        W20185  11.967  14.898  11.961 -0.0437 -0.1052  0.2598
 4292W        W20186   1.443  15.027   5.024 -0.0131 -0.0632 -0.0675
 4293W        W20187   2.679   0.179   2.479 -0.1171 -0.0497 -0.0874
 4294W        W20188   3.117   0.376  15.731 -0.1481  0.0609 -0.0267
 4295W        W20189  10.085  13.534  15.263 -0.0018  0.2269 -0.0523
 4296W        W20190  17.731   7.071   0.112  0.0807 -0.3233  0.0047
 4297W        W20191  14.870  13.662   4.740  0.3270 -0.0496 -0.0258
 4298W        W20192  11.844  14.934  12.646  0.2888  0.2506 -0.0179
 4299W        W20193   7.653  12.418  13.086  0.0656  0.3920 -0.2903
 4300W        W20194   1.432   3.260  11.450  0.0268 -0.0241 -0.1086
 4301W        W20195  18.032   1.941  15.652  0.0423  0.1564  0.2415
 4302W        W20196  10.839   9.557   0.542  0.0294  0.1779 -0.3000
 4303W        W20197   4.004  13.553  12.096  0.3262 -0.3980 -0.0757
 4304W        W20198  15.208  16.901  11.883  0.0992  0.0715 -0.0567
 4305W        W20199  15.872  17.231  12.266 -0.2665  0.0381  0.0786
 4306W        W20200   6.061  10.963   4.519 -0.0778  0.3476 -0.1572
 4307W        W20201   4.943  15.187  14.268  0.0534 -0.2923  0.1959
 4308W        W20202  18.231  17.461  12.092  0.1453 -0.0107 -0.0554
 4309W        W20203  10.145   5.942  12.689 -0.0354  0.3608  0.0548
 4310W        W20204   5.198  16.517  16.134  0.2506 -0.1231  0.0661
 4311W        W20205  12.343  16.978   3.868  0.1909 -0.0062 -0.1855
 4312W        W20206   0.189   2.645   0.479 -0.2742  0.0121 -0.0950
 4313W        W20207   8.357  12.199  15.747 -0.1241 -0.0803  0.3360
 4314W        W20208   7.787  15.328   0.486 -0.2349 -0.0708 -0.1419
 4315W        W20209  15.935  14.273   3.224  0.1808  0.0762  0.0535
 4316W        W20210  15.682   5.074   1.172 -0.0276  0.0041  0.1440
 4317W        W20211  12.636   5.021  14.328  0.0522  0.1401 -0.0980
 4318W        W20212  18.237  14.468  12.471 -0.0081 -0.2766 -0.1016
 4319W        W20213   4.335  12.554  14.643  0.1225  0.0097 -0.0202
 4320W        W20214  15.947   5.544  14.636 -0.0367  0.0376  0.0089
 4321W        W20215   8.351   6.496  12.420 -0.3958 -0.0870 -0.2538
 4322W        W20216  12.961  14.420   1.577  0.1647 -0.2892  0.1047
 4323W        W20217   4.037   3.254   5.221  0.3957  0.0991  0.2103
 4324W        W20218   8.663  17.428  13.759  0.0737  0.0454 -0.4569
 4325W        W20219  14.880   4.752   2.408  0.4014 -0.0941 -0.3470
 4326W        W20220  10.449   3.224   3.879 -0.1364 -0.0644 -0.3145
 4327W        W20221   6.852  11.572   0.739  0.3460 -0.3873 -0.0213
 4328W        W20222   6.101  14.543   4.964  0.1702  0.3343 -0.1212
 4329W        W20223   9.897  10.368  11.831 -0.0367  0.1447  0.1512
 4330W        W20224  13.798  14.475   0.361 -0.2462 -0.1857  0.0228
 4331W        W20225  12.043   4.109  15.451 -0.1834  0.1012  0.2687
 4332W        W20226   8.570  13.196   0.451 -0.0187  0.1913  0.1912
 4333W        W20227   8.713   7.292  14.465 -0.2591 -0.3305 -0.1365
 4334W        W20228   9.319   7.540   3.198  0.2971  0.0103 -0.2394
 4335W        W20229   0.012   7.544  14.408  0.3242 -0.2236  0.0961
 4336W        W20230   4.503  18.449   4.203 -0.1177  0.0722  0.2260
 4337W        W20231   2.683   2.416  14.163  0.2240 -0.2543  0.0088
 4338W        W20232  16.168   8.348   3.924 -0.0474 -0.0789  0.1415
 4339W        W20233   2.964  12.276   4.910 -0.0240 -0.1418 -0.2656
 4340W        W20234  15.011  17.181   1.304  0.0260  0.1664  0.1873
 4341W        W20235   7.674  10.162   9.751 -0.0732 -0.0969  0.2323
 4342W        W20236   1.266  10.458  14.262  0.1284  0.1700 -0.0090
 4343W        W20237  14.041   3.868  16.032  0.0018 -0.1110  0.0534
 4344W        W20238   4.575  14.013  12.290  0.4421  0.1480 -0.0117
 4345W        W20239  15.961   9.387   0.386 -0.0308  0.1328 -0.2527
 4346W        W20240   6.855  13.904   3.993  0.1986 -0.1865  0.2907
 4347W        W20241  11.984   4.432  14.814 -0.1908  0.1417 -0.1005
 4348W        W20242   5.659   0.448  12.896 -0.1924 -0.2185  0.0014
 4349W        W20243  18.338   2.803   5.712  0.1866 -0.2190 -0.4879
 4350W        W20244   4.814  12.128   1.587 -0.2200  0.0887  0.0208
 4351W        W20245   0.933   6.260  15.258 -0.1411  0.0335 -0.1890
 4352W        W20246  16.319   7.424  14.224  0.0835  0.0410 -0.1270
 4353W        W20247   6.257   3.789  12.509  0.1110  0.1114  0.1629
 4354W        W20248   1.925  15.803   0.070 -0.1513  0.2159  0.1374
 4355W        W20249   7.457   0.755  11.504  0.2639 -0.1438 -0.1898
 4356W        W20250   6.477   2.090  12.824  0.0294  0.2594 -0.0030
 4357W        W20251   0.477   6.554   2.547  0.1149  0.0353  0.0295
 4358W        W20252  15.220  12.546  11.775  0.1798  0.1859  0.0593
 4359W        W20253  10.309  12.760   3.287 -0.0077  0.0906  0.0445
 4360W        W20254  15.754  15.755  11.927 -0.2167  0.0201  0.4724
 4361W        W20255  16.235  17.260   0.184  0.1437  0.0223 -0.0265
 4362W        W20256  15.681   7.295   0.305  0.2152  0.0311 -0.2953
 4363W        W20257   1.139   1.404  11.318  0.2045  0.3873 -0.1618
 4364W        W20258  16.289  11.273   2.391 -0.4831  0.1256 -0.0174
 4365W        W20259   2.659   5.268   6.237 -0.2360 -0.1933  0.0930
 4366W        W20260  12.034  13.358   3.867  0.1594  0.3511 -0.0355
 4367W        W20261  10.708   7.943   4.881  0.2815 -0.1637  0.2831
 4368W        W20262  13.794   3.979   0.374  0.0190  0.1105  0.1437
 4369W        W20263   4.539   7.024  13.734  0.0947  0.0349 -0.1723
 4370W        W20264  13.658  13.685   2.613 -0.0655  0.0527 -0.1072
 4371W        W20265   7.878   2.293   0.437 -0.0135  0.0125  0.1497
 4372W        W20266  18.278  16.796  15.053  0.1860 -0.0681 -0.3600
 4373W        W20267   4.010  14.879   5.772  0.2921 -0.2177 -0.1963
 4374W        W20268   6.953  10.351   1.264 -0.2813 -0.3305  0.0748
 4375W        W20269   5.473   1.510   2.537 -0.1894  0.1476 -0.0215
 4376W        W20270   7.826   1.668   2.292 -0.1618  0.0212  0.2212
 4377W        W20271  15.969   0.784   5.775 -0.2805 -0.0040  0.1788
 4378W        W20272  17.928   9.325  15.335  0.1705 -0.1611  0.0948
 4379W        W20273  11.493   6.428  14.544 -0.0434  0.0736  0.2891
 4380W        W20274  12.876  17.130  13.496  0.0985  0.0278 -0.0077
 4381W        W20275  13.681   8.581  13.455 -0.0718 -0.0532 -0.0506
 4382W        W20276   2.951   4.176  13.656 -0.0863  0.1627  0.0652
 4383W        W20277   8.530  15.174   2.752  0.0968  0.1471  0.1517
 4384W        W20278   1.994  13.682   0.842 -0.0989  0.1354  0.0972
 4385W        W20279   4.235  10.916   3.553 -0.0696  0.1523 -0.2590
 4386W        W20280  11.688   5.052  11.534  0.1213 -0.0099  0.2440
 4387W        W20281   8.089  14.291   2.500 -0.3005 -0.0521  0.0844
 4388W        W20282  14.652   5.885  11.797 -0.0079 -0.0938  0.1944
 4389W        W20283  10.612  17.039  13.303  0.0708  0.1487  0.0503
 4390W        W20284  16.892  12.233  15.979  0.0963 -0.0563  0.1688
 4391W        W20285   8.787   2.857  10.586  0.0693 -0.0332  0.0148
 4392W        W20286  10.777   3.274  11.720 -0.2106  0.3173 -0.1954
 4393W        W20287   9.089   8.962  12.192 -0.1571  0.1014 -0.2389
 4394W        W20288   2.723   4.575   1.820  0.0520 -0.1293 -0.1827
 4395W        W20289   4.587   5.593  15.781  0.0239  0.0936  0.0371
 4396W        W20290  11.823   0.971   0.927  0.4004 -0.3804 -0.1445
 4397W        W20291   6.646  14.870   3.092 -0.0604  0.0772 -0.0505
 4398W        W20292   7.089  12.917  13.616  0.1187 -0.0219  0.1186
 4399W        W20293  10.475  14.603  15.614 -0.0661  0.0159 -0.4340
 4400W        W20294   5.700   9.409   3.189  0.2679  0.4535  0.1316
 4401W        W20295   9.303   6.358   0.369  0.0710 -0.0355  0.1436
 4402W        W20296  14.491  12.968  11.449  0.0730 -0.0072  0.1734
 4403W        W20297  11.649   8.439   5.107 -0.0781  0.2215  0.3266
 4404W        W20298  12.717  18.461   2.773 -0.2232 -0.2562  0.0543
 4405W        W20299   1.444   4.236   3.299 -0.1333 -0.0787 -0.0115
 4406W        W20300   5.165  11.980   3.940  0.2047 -0.2135 -0.1219
 4407W        W20301  16.499  18.159   4.878 -0.1074 -0.1521 -0.0619
 4408W        W20302   2.721   5.724   6.577 -0.3362 -0.0955  0.0864
 4409W        W20303  18.292   3.002   0.233 -0.0307  0.0968  0.1254
 4410W        W20304   0.139  10.597  11.375 -0.0103  0.0677  0.0766
 4411W        W20305   6.896  16.865  14.737 -0.1603 -0.1322  0.0485
 4412W        W20306   3.048   3.205   4.256 -0.0896  0.2753 -0.2289
 4413W        W20307  17.556   4.321  15.439  0.2493  0.4506 -0.0819
 4414W        W20308  11.985  10.775   2.615 -0.3049  0.4070  0.1183
 4415W        W20309  18.318  18.182  15.731  0.0738 -0.1764 -0.0550
 4416W        W20310   5.731   8.031   3.199  0.1273 -0.2129 -0.0726
 4417W        W20311   0.854   2.440   1.770  0.1542  0.0510 -0.0779
 4418W        W20312   9.026   2.733   3.054  0.1074  0.2249 -0.2599
 4419W        W20313   2.739   9.523  12.304  0.1344 -0.2833  0.1533
 4420W        W20314   4.532   9.190   1.080 -0.0534  0.1204 -0.0323
 4421W        W20315  14.617  15.278  13.006 -0.0496 -0.1474  0.0981
 4422W        W20316  12.876  12.228   3.935 -0.0931 -0.2875 -0.2948
 4423W        W20317  13.248  17.709   1.426 -0.0537  0.4141 -0.3854
 4424W        W20318  12.378  12.394  11.519  0.0457 -0.4590  0.0536
 4425W        W20319  11.575   5.476   0.765  0.1554 -0.2611  0.4527
 4426W        W20320   2.346   7.248  14.246 -0.0575  0.2433 -0.2389
 4427W        W20321  10.010   0.798  12.731 -0.1483  0.0942  0.0007
 4428W        W20322   9.428   0.212   1.408 -0.0823 -0.1121  0.1915
 4429W        W20323  10.968   8.134   0.441 -0.1109 -0.1183 -0.2847
 4430W        W20324   3.541   1.660  11.833 -0.2318  0.0356  0.2640
 4431W        W20325   3.009   2.204   1.221  0.4807  0.1306 -0.0774
 4432W        W20326  15.430   5.334  13.550  0.2470  0.0916  0.2663
 4433W        W20327  16.571   7.478   0.192  0.1736  0.4644 -0.0112
 4434W        W20328  18.222  12.602   2.551  0.2337 -0.2058 -0.2504
 4435W        W20329   6.682  10.048   5.089 -0.0736 -0.4091  0.1411
 4436W        W20330   5.429   6.897   4.430  0.0135 -0.1348  0.0569
 4437W        W20331   3.724  13.332  13.088  0.3579  0.0413 -0.1060
 4438W        W20332  11.946   5.013  12.193 -0.2641  0.2372 -0.0706
 4439W        W20333   8.619  15.722  15.420  0.4482  0.0012  0.1426
 4440W        W20334   9.624   1.689  14.834 -0.0552  0.1706  0.2611
 4441W        W20335  14.738   0.162  13.073  0.3015 -0.1665 -0.0040
 4442W        W20336   5.473   9.769   0.224 -0.2804 -0.1325  0.1333
 4443W        W20337   3.361  15.416   4.113 -0.1172 -0.2697  0.0754
 4444W        W20338  12.828  13.142   3.783  0.1958 -0.1369 -0.0354
 4445W        W20339   5.223  10.465   0.518 -0.1452  0.2067 -0.3336
 4446W        W20340  12.634  11.645  11.253 -0.1277  0.3080  0.0967
 4447W        W20341   6.626   1.858   5.193  0.0738  0.0267 -0.1543
 4448W        W20342   9.113  17.606   4.769 -0.2711 -0.0994  0.0852
 4449W        W20343  16.228   7.988  14.479  0.2956  0.0538 -0.0047
 4450W        W20344  17.788   3.629   4.495  0.1094 -0.0874 -0.0426
 4451W        W20345  18.465  13.469   3.804  0.0585  0.0821  0.1831
 4452W        W20346  17.620  13.795   2.936 -0.2605  0.2477  0.1051
 4453W        W20347  10.036   6.585  15.508 -0.2318 -0.1657  0.0512
 4454W        W20348  15.886   8.488   3.162 -0.2962 -0.1831  0.1633
 4455W        W20349   8.449   5.777  12.026  0.1829  0.1901 -0.1269
 4456W        W20350  10.927  10.094  14.909  0.0519  0.1279 -0.0015
 4457W        W20351   3.753  14.513  12.269 -0.0233 -0.1316  0.1148
 4458W        W20352  12.801  12.750  10.747  0.1475  0.0622  0.2319
 4459W        W20353   0.752   3.192  14.887  0.1018  0.2941  0.2364
 4460W        W20354  17.707   2.949  14.698 -0.2331 -0.0696 -0.0639
 4461W        W20355  10.810  17.762   2.704  0.1303  0.2952  0.0159
 4462W        W20356   9.852   3.781   4.399  0.1245  0.0107 -0.1783
 4463W        W20357   3.417   2.304   2.646 -0.2883  0.2316  0.3116
 4464W        W20358  13.215   8.315   0.938 -0.0616  0.1631  0.1006
 4465W        W20359  10.740  12.701   4.147  0.0908 -0.0409  0.1457
 4466W        W20360  10.387   5.853  11.442 -0.4219 -0.0710  0.3066
 4467W        W20361   3.541  11.536   3.258 -0.1214 -0.2542 -0.1109
 4468W        W20362  11.549   6.186   1.869 -0.1210  0.3037  0.1543
 4469W        W20363   4.150  16.690  12.666  0.0623 -0.1064  0.1657
 4470W        W20364  16.959  14.318  15.253 -0.0211  0.0810  0.1122
 4471W        W20365   5.997  12.193  13.806 -0.0386  0.1260 -0.0456
 4472W        W20366  14.787   3.724  12.374  0.0270 -0.3455 -0.1183
 4473W        W20367   3.706  11.136   0.389  0.0966  0.1707  0.0142
 4474W        W20368   9.842  15.605   1.825  0.0147 -0.0648 -0.0073
 4475W        W20369  16.111  17.280   4.791 -0.2862 -0.0772  0.0359
 4476W        W20370   3.151  12.825   1.446  0.1683 -0.1175  0.3092
 4477W        W20371   3.768   2.674  10.842  0.0610  0.0488 -0.3793
 4478W        W20372   0.194   4.035  13.289  0.0509  0.4817  0.0961
 4479W        W20373  10.446  10.480  13.388  0.1505  0.1737  0.0635
 4480W        W20374   9.990   5.180  13.684  0.0557  0.1168 -0.0362
 4481W        W20375  14.788   8.310   1.960  0.0072  0.0913  0.1383
 4482W        W20376  11.142   6.805   0.389 -0.3822  0.2515  0.4419
 4483W        W20377  11.045   0.138   0.988  0.0219 -0.3005 -0.0209
 4484W        W20378  15.283   6.651  11.689 -0.1130 -0.0288 -0.1056
 4485W        W20379   0.078  14.460   4.780 -0.2360 -0.0154 -0.1206
 4486W        W20380   1.206   3.920   2.931 -0.0935  0.0804 -0.0719
 4487W        W20381   1.357  16.688  11.761  0.0867  0.1790 -0.0215
 4488W        W20382   0.030   1.904  15.296 -0.1144 -0.2819 -0.3099
 4489W        W20383   9.964   8.849   1.540 -0.2239 -0.2742  0.3140
 4490W        W20384   1.993  12.459   2.073 -0.0077 -0.2860  0.4185
 4491W        W20385   5.116   6.955  12.494  0.0379 -0.1565 -0.0737
 4492W        W20386   1.431  13.399   0.128 -0.1165 -0.4928 -0.0328
 4493W        W20387   7.184  10.645   4.731 -0.1195 -0.2043 -0.1239
 4494W        W20388  13.166   9.971  15.062 -0.0585 -0.0103  0.1549
 4495W        W20389  12.703  10.608  12.524 -0.0730 -0.1648  0.0894
 4496W        W20390   9.069   4.707  14.437 -0.4092  0.4824  0.2146
 4497W        W20391  14.064  16.105  10.953 -0.4987  0.1254  0.1349
 4498W        W20392  17.181   0.831  13.374  0.1022 -0.0119  0.0499
 4499W        W20393   6.336   0.505  15.088  0.0576 -0.0042  0.1240
 4500W        W20394   2.368   8.386   0.672  0.1733 -0.2129 -0.1169
 4501W        W20395   9.289  12.190   4.730 -0.0910  0.0298  0.0625
 4502W        W20396  16.821  11.724  15.284 -0.1691  0.0217 -0.0717
 4503W        W20397   5.730  16.878   5.005 -0.2461 -0.3369  0.4706
 4504W        W20398   3.043   1.155   2.090  0.1763 -0.2349 -0.0290
 4505W        W20399  16.375   2.367  14.970  0.0587 -0.3626 -0.2916
 4506W        W20400   2.591   0.271  14.307  0.0348 -0.2049  0.2248
 4507W        W20401  16.900   0.021   2.005  0.1308 -0.0448  0.0574
 4508W        W20402  16.743  16.859   3.065  0.0935  0.2020 -0.0371
 4509W        W20403  12.808   2.837  14.586  0.0186  0.1460  0.0618
 4510W        W20404  17.955   4.129   6.053  0.1278  0.0436 -0.1847
 4511W        W20405   5.832  12.003   5.176  0.1125 -0.2444 -0.4983
 4512W        W20406   9.427  11.276  15.896 -0.2074 -0.0254  0.1844
 4513W        W20407  14.050  16.728   0.772  0.1363 -0.1864  0.2240
 4514W        W20408   5.088  17.023  10.720 -0.0298 -0.1490  0.4229
 4515W        W20409   2.327   1.313   0.407  0.4021 -0.2376 -0.0397
 4516W        W20410  18.272   3.674  15.799  0.3137 -0.0382  0.1879
 4517W        W20411   7.575   5.722   0.424 -0.0569  0.0217  0.2458
 4518W        W20412  15.426   8.819  15.851 -0.1644 -0.2485  0.3053
 4519W        W20413  10.593  15.511  13.346  0.3408 -0.2828  0.0886
 4520W        W20414  13.057   8.117   4.606  0.1402 -0.2620 -0.1124
 4521W        W20415   8.504   4.736   3.793  0.0583 -0.1543  0.3211
 4522W        W20416  16.472   1.253  13.532  0.0358 -0.1589 -0.1085
 4523W        W20417   8.004  18.034  15.540 -0.1291 -0.1304  0.0819
 4524W        W20418  13.811   3.415   1.226 -0.1843 -0.2510  0.0316
 4525W        W20419   7.722  17.578  15.501 -0.0744  0.1042 -0.2600
 4526W        W20420  13.717  17.376  12.512 -0.1535  0.0456  0.1879
 4527W        W20421  14.331  10.187  14.891  0.0640  0.1608 -0.1498
 4528W        W20422   1.053  10.789   4.470  0.6165 -0.1654  0.1777
 4529W        W20423   8.807  17.996   2.017  0.1138 -0.3240 -0.1835
 4530W        W20424   6.547   7.103   0.446 -0.0525 -0.0769  0.2585
 4531W        W20425  11.515  13.245  14.166  0.1755  0.1239  0.0064
 4532W        W20426  15.864   2.144  14.457 -0.2262  0.0191 -0.0815
 4533W        W20427   5.957   3.634  12.892  0.0348 -0.0834  0.0690
 4534W        W20428   4.696   9.384  14.928 -0.1695 -0.2555  0.0534
 4535W        W20429   2.628   5.527   5.203  0.0281  0.0936 -0.2140
 4536W        W20430  15.957   4.285  15.739 -0.4644 -0.1102 -0.0884
 4537W        W20431   6.370   2.813  15.507 -0.0652  0.1495 -0.0046
 4538W        W20432  10.144  17.780   0.415  0.2215  0.2569  0.2359
 4539W        W20433  11.155  15.252  13.900 -0.1941 -0.1005  0.0977
 4540W        W20434   9.294  15.287  12.224 -0.4750 -0.3028 -0.0707
 4541W        W20435   3.721   8.652  12.155 -0.0890 -0.1403  0.0615
 4542W        W20436   8.592  12.963   4.141  0.1685  0.0889  0.0918
 4543W        W20437   7.400   5.746  15.660  0.0240  0.0568  0.0825
 4544W        W20438   4.171  17.679  12.908  0.0722 -0.0602  0.1875
 4545W        W20439  18.195   2.312   5.699 -0.0210 -0.4211  0.2263
 4546W        W20440   1.580   9.172  12.814 -0.0161 -0.0764 -0.1846
 4547W        W20441   3.322   3.957   3.235  0.1633  0.0635 -0.0520
 4548W        W20442   2.370  10.540   2.485  0.0891 -0.3492 -0.1348
 4549W        W20443   2.711  10.210  14.178  0.0802  0.0823  0.2312
 4550W        W20444  14.414  16.412   2.713  0.0238  0.0558 -0.1591
 4551W        W20445   0.971  12.001   2.077  0.0004  0.0702 -0.1852
 4552W        W20446   6.882   8.620   0.133 -0.0610  0.2599 -0.2745
 4553W        W20447   5.491   7.221   2.356  0.0744 -0.1450 -0.0925
 4554W        W20448   7.782  14.897  15.159 -0.0262 -0.0283 -0.0485
 4555W        W20449  10.369  17.874  13.265 -0.3116  0.1257  0.1732
 4556W        W20450   1.849   4.683  13.206  0.0306  0.2000 -0.2020
 4557W        W20451  14.773  11.766  13.681  0.1809 -0.1800 -0.1636
 4558W        W20452  11.906   8.279  15.740  0.2506 -0.2597 -0.0770
 4559W        W20453  13.907  17.724  10.627  0.2546 -0.3615 -0.0424
 4560W        W20454   1.854   0.509   2.065  0.1570  0.2276  0.0192
 4561W        W20455   7.838   3.953   1.924  0.3364  0.4103  0.2122
 4562W        W20456   6.545   1.941  11.224 -0.1127  0.0568 -0.1287
 4563W        W20457   0.354   1.778   4.375  0.2302 -0.1723 -0.0454
 4564W        W20458   2.892  13.263  14.164 -0.4039 -0.1076  0.1589
 4565W        W20459   2.805  17.301  14.453 -0.1552  0.0125 -0.0385
 4566W        W20460   9.092  18.082   4.915 -0.1958  0.2159  0.1328
 4567W        W20461   3.632   2.760   2.998 -0.1518 -0.0825 -0.0049
 4568W        W20462   9.102   7.604   4.973  0.2075  0.3289 -0.0169
 4569W        W20463   3.665  14.013   5.344 -0.1809  0.0140 -0.3247
 4570W        W20464   8.744  16.730   2.860  0.3344  0.1390  0.1569
 4571W        W20465   7.755   2.111   4.917  0.3044 -0.0243 -0.1974
 4572W        W20466  16.692   2.204   2.383 -0.2399 -0.1002  0.1754
 4573W        W20467  15.321   9.372   3.072  0.0287  0.1183  0.0074
 4574W        W20468   0.880  17.297  12.665  0.2701 -0.0768 -0.0611
 4575W        W20469  17.178   4.632   3.584  0.2491  0.2514  0.1559
 4576W        W20470  10.858   1.735  11.249 -0.1191 -0.0562  0.0135
 4577W        W20471  11.935  12.676  15.335  0.1202  0.1771 -0.1808
 4578W        W20472   7.688   1.764  11.885 -0.1214  0.1795 -0.1090
 4579W        W20473   7.125  17.874  13.995 -0.1684  0.1497 -0.0368
 4580W        W20474  16.035   2.746  15.829  0.0737  0.0632  0.1705
 4581W        W20475   6.560   0.763  13.674  0.1337  0.2299  0.1115
 4582W        W20476   3.736   3.464  15.758  0.4867 -0.2397 -0.0385
 4583W        W20477  11.203   4.119  15.825  0.3351  0.2563  0.2582
 4584W        W20478  14.375  13.922   1.974  0.3287 -0.0854  0.1136
 4585W        W20479   5.182   8.147  13.548  0.0237  0.1848  0.3009
 4586W        W20480  12.805   0.882  15.829  0.1138  0.2788 -0.3254
 4587W        W20481   4.596   6.080  16.020 -0.4067 -0.3837 -0.0887
 4588W        W20482  16.555   3.737  15.980  0.0970  0.0692 -0.0804
 4589W        W20483  15.362   0.186  14.291  0.0241  0.0437 -0.1032
 4590W        W20484   5.997  15.786  11.800 -0.1870 -0.0969 -0.3966
 4591W        W20485  15.410  16.336  15.118 -0.0439  0.1931 -0.1879
 4592W        W20486  14.324   1.577   3.296  0.1321 -0.0810  0.0989
 4593W        W20487   7.304   7.513  15.654  0.2627  0.0419  0.0797
 4594W        W20488   3.588   8.406   0.910 -0.0104 -0.1646  0.0476
 4595W        W20489  11.227   6.774   4.566 -0.1166  0.0648  0.2777
 4596W        W20490  16.732  12.771  13.502  0.1539  0.0448 -0.0759
 4597W        W20491   4.615  15.143  13.324 -0.4830 -0.3447 -0.2036
 4598W        W20492   9.784  16.516   1.999  0.1601 -0.1672 -0.1829
 4599W        W20493   4.704  14.471  15.948 -0.1958 -0.2274  0.3666
 4600W        W20494  16.004  13.280   2.603  0.0027 -0.1147  0.0052
 4601W        W20495   0.258  16.250   1.143  0.1546  0.1148 -0.2967
 4602W        W20496  10.708  12.442  15.355  0.2492 -0.1250  0.1597
 4603W        W20497   5.717  14.559  15.986 -0.1609 -0.0624 -0.0744
 4604W        W20498   3.474  11.381  15.329 -0.0719  0.0072 -0.4359
 4605W        W20499   9.248  18.400  14.639 -0.0664  0.0679 -0.0096
 4606W        W20500   3.582  14.444  15.703 -0.1699 -0.0508  0.0531
 4607W        W20501   3.918  11.460  13.200 -0.1517 -0.1976  0.1509
 4608W        W20502   4.709  17.189  13.063  0.0237 -0.0004  0.2213
 4609W        W20503  10.999  13.390  14.994  0.3687  0.0590  0.0244
 4610W        W20504   8.692   4.541   0.390  0.3793 -0.0105 -0.1326
 4611W        W20505   9.773  10.150  15.960 -0.2234  0.2844 -0.1215
 4612W        W20506   8.759   5.577   4.113 -0.1395 -0.0424  0.1331
 4613W        W20507  14.159   3.707  12.185 -0.3211 -0.0486  0.1561
 4614W        W20508  11.770  13.171  14.638  0.1256 -0.0342 -0.0605
 4615W        W20509   2.544  17.333   3.244  0.1833 -0.4227  0.1386
 4616W        W20510   1.338  12.017   0.227  0.0067  0.0721  0.4860
 4617W        W20511   8.470   8.226   2.385  0.0855  0.0705 -0.2338
 4618W        W20512   2.482   0.760  13.998 -0.0013  0.0534 -0.0631
 4619W        W20513   7.866   6.893   3.425  0.0169  0.2400  0.0472
 4620W        W20514   2.781  10.975   3.073  0.0031 -0.4851 -0.3011
 4621W        W20515  14.582  10.071  12.876  0.0218  0.2154  0.0249
 4622W        W20516   4.225   8.168   1.386 -0.2657  0.1574 -0.0224
 4623W        W20517   1.420   8.913   1.599 -0.0809 -0.2402 -0.1686
 4624W        W20518   3.242  13.041  12.456 -0.4863 -0.1182  0.1357
 4625W        W20519  13.783  18.091   5.841 -0.0044  0.0648  0.1604
 4626W        W20520   3.302  13.447  14.481  0.1913  0.0588  0.1874
 4627W        W20521   4.405  14.155  15.446  0.0389  0.0729  0.1016
 4628W        W20522  18.198  10.444   1.718 -0.1115  0.0343 -0.0759
 4629W        W20523  18.268  17.488   5.732  0.1912 -0.3841 -0.0340
 4630W        W20524  15.755   1.565  13.929 -0.0697  0.0597  0.0447
 4631W        W20525  13.381   4.039   5.774 -0.1231 -0.3434 -0.0403
 4632W        W20526   7.856  11.722   0.017  0.3733 -0.1455 -0.2404
 4633W        W20527  10.227  16.371   4.055 -0.0837  0.0633 -0.0035
 4634W        W20528  15.012   1.207  12.995 -0.2360 -0.0486  0.2061
 4635W        W20529   6.103   2.889  14.411  0.0039  0.0449  0.0887
 4636W        W20530   4.640  10.196   0.926 -0.0934  0.0568 -0.2195
 4637W        W20531  15.992  13.317   0.565  0.1568 -0.3479  0.1536
 4638W        W20532   2.845   2.616  15.923  0.2872  0.3686  0.1328
 4639W        W20533  18.118   9.968  13.110  0.2817 -0.0284  0.0645
 4640W        W20534   4.231   6.041   1.632 -0.1570  0.0967  0.3410
 4641W        W20535  16.666   0.949  14.652 -0.2117  0.0256  0.3257
 4642W        W20536  11.689   8.400  12.454 -0.0652 -0.0659 -0.0475
 4643W        W20537   9.870   4.315   1.167 -0.0397  0.1330 -0.5547
 4644W        W20538  12.881   6.244   5.272  0.0303 -0.1845 -0.2033
 4645W        W20539  17.472   1.066  13.051 -0.0210  0.0813 -0.1851
 4646W        W20540   9.579   0.117  12.107 -0.1605  0.0978 -0.2975
 4647W        W20541  17.964  12.560  15.173  0.2101  0.0335  0.0819
 4648W        W20542   8.132   8.227   4.227  0.2029  0.3400 -0.0256
 4649W        W20543   6.735   7.217   3.054 -0.1376  0.1409 -0.2070
 4650W        W20544   3.327   3.738   0.514 -0.1075  0.1013  0.1649
 4651W        W20545   2.914   3.365  14.438  0.1278 -0.1050 -0.1207
 4652W        W20546   6.999  11.001  15.399 -0.2557 -0.0521  0.4147
 4653W        W20547  18.344  13.939  12.123  0.1082  0.1872  0.0997
 4654W        W20548   8.474   9.151   2.516  0.0085  0.2092  0.2925
 4655W        W20549   5.424   9.362   2.682 -0.2113  0.2267  0.1667
 4656W        W20550   2.275  13.832   5.551 -0.1187  0.1756  0.0136
 4657W        W20551   3.759  10.699   2.413 -0.1900  0.3040 -0.0643
 4658W        W20552   6.682  10.268  15.708 -0.0974  0.0890 -0.0841
 4659W        W20553   3.380   7.070   0.403 -0.0805 -0.1547 -0.0978
 4660W        W20554   1.504   7.655   0.582  0.1370 -0.1673  0.3145
 4661W        W20555  14.750  12.327   1.122 -0.1376  0.1059  0.0502
 4662W        W20556   7.725   8.373   1.936 -0.0127  0.2308 -0.1595
 4663W        W20557   0.168   2.450  13.432 -0.2208 -0.2945  0.2149
 4664W        W20558   9.439   5.830   2.489 -0.1258  0.1145 -0.0489
 4665W        W20559  10.963   6.923  11.318  0.0648  0.1786  0.0615
 4666W        W20560  15.896  12.595   3.628 -0.1879  0.2829 -0.0890
 4667W        W20561  17.075   6.835   4.354  0.0354  0.1159 -0.1309
 4668W        W20562   2.831   9.091   0.487 -0.2581 -0.2018 -0.0734
 4669W        W20563  16.166   5.828   0.285 -0.1781  0.2174  0.1102
 4670W        W20564   1.874   7.989  13.339  0.3501  0.0339 -0.2166
 4671W        W20565   1.210  13.239  11.956  0.0649  0.3350  0.0688
 4672W        W20566   0.354  11.100  11.193  0.0845 -0.1969  0.0718
 4673W        W20567   8.751   0.713   9.769  0.2664  0.0636  0.1393
 4674W        W20568   8.254  12.068   1.630 -0.1138  0.0490 -0.0302
 4675W        W20569   8.586   4.719   1.792  0.0355 -0.1639 -0.1526
 4676W        W20570   6.360  13.736   0.922  0.0562 -0.3603 -0.3066
 4677W        W20571  13.576   2.971   4.644 -0.0589 -0.0307  0.1453
 4678W        W20572   0.015   3.438  12.494  0.0604 -0.1681  0.3112
 4679W        W20573   9.820   8.113   4.504 -0.0855  0.0115  0.3862
 4680W        W20574   8.436  14.549   4.958 -0.3851  0.0136 -0.2953
 4681W        W20575  17.962  10.506  13.889  0.1785 -0.0943 -0.1452
 4682W        W20576   7.607  12.967   0.877 -0.0966  0.1577  0.5565
 4683W        W20577  12.457   7.208  11.215  0.1197 -0.1571  0.0657
 4684W        W20578  15.182  15.085  15.169 -0.1289 -0.1099  0.1891
 4685W        W20579  14.356  13.918   4.704 -0.1858 -0.0140 -0.2527
 4686W        W20580  16.189  13.621  15.085  0.2911  0.3292  0.1829
 4687W        W20581  11.228   0.208  11.940 -0.1735 -0.4601 -0.0042
 4688W        W20582  11.341   7.057   4.941  0.0597  0.1938  0.0764
 4689W        W20583  17.461   7.064  15.851 -0.0616  0.1024  0.0956
 4690W        W20584   4.060  14.392  13.669  0.1428 -0.1098  0.2529
 4691W        W20585   7.994  11.019  15.099 -0.2440 -0.0104 -0.0638
 4692W        W20586   2.371  14.995  13.260 -0.2735  0.1604 -0.1767
 4693W        W20587   6.974   6.733   1.855 -0.0694  0.3146  0.0262
 4694W        W20588  14.976   8.653   0.704 -0.1960 -0.1884 -0.1169
 4695W        W20589   8.767  10.011   1.547 -0.1470  0.0829  0.0594
 4696W        W20590   0.415  13.425  15.848 -0.0136  0.5456  0.0748
 4697W        W20591  14.729  17.660   4.244  0.0904  0.0163 -0.0584
 4698W        W20592   9.425   6.992   1.190  0.2351  0.1145 -0.0087
 4699W        W20593   7.718   9.453   0.170 -0.2123  0.1252 -0.1229
 4700W        W20594   9.523   2.476  11.790  0.0079  0.3857 -0.1472
 4701W        W20595  13.407   0.597  13.040  0.1234 -0.3359 -0.1717
 4702W        W20596   9.009   5.098  12.939  0.0092  0.1008  0.2728
 4703W        W20597  11.102  10.251  15.957 -0.1318 -0.1402 -0.0006
 4704W        W20598   4.521  17.813  14.688 -0.4003 -0.0395 -0.1414
 4705W        W20599   9.100  17.621  13.541  0.2628  0.3457  0.1518
 4706W        W20600   1.148   8.233   4.965 -0.1527  0.1031  0.0324
 4707W        W20601   8.880   0.736   0.530  0.2635 -0.0610  0.0553
 4708W        W20602  13.722   0.580   4.529  0.1871  0.1258 -0.3138
 4709W        W20603   4.070   6.590   0.463  0.0451  0.2695  0.3639
 4710W        W20604   6.499  10.279  12.562 -0.0611 -0.3026  0.0566
 4711W        W20605   3.671   6.136  14.227  0.0259 -0.0435 -0.1019
 4712W        W20606  18.223   4.669   4.323 -0.0267 -0.0012  0.0388
 4713W        W20607   8.572   1.959  16.121  0.3941  0.1631  0.1077
 4714W        W20608   6.497   3.708  16.005 -0.1082 -0.3495  0.0150
 4715W        W20609  11.957   2.510  12.092  0.2851 -0.3226  0.1579
 4716W        W20610  15.852  14.961   1.215  0.2608  0.0625  0.1509
 4717W        W20611   6.178  15.972  15.787  0.3015  0.0868  0.2208
 4718W        W20612   3.993   3.161   2.012  0.0691  0.2637 -0.0506
 4719W        W20613  10.833  12.551   4.943 -0.4834 -0.1248  0.0706
 4720W        W20614   9.697   5.110  15.983 -0.0198  0.1992  0.0460
 4721W        W20615  14.374   0.717   2.336 -0.0182  0.1291 -0.2374
 4722W        W20616   5.108  10.550   2.374 -0.2131 -0.2971  0.0157
 4723W        W20617  13.115   7.491   5.260  0.4516 -0.2363 -0.0024
 4724W        W20618   6.948   7.646   5.014 -0.4880  0.0556 -0.2434
 4725W        W20619  17.649  11.878  13.214 -0.1524 -0.0262 -0.0311
 4726W        W20620  18.296  13.825   1.710 -0.3642 -0.0286 -0.0187
 4727W        W20621  17.682   4.893  14.087 -0.3353 -0.0392 -0.0064
 4728W        W20622   9.583  16.315   3.701 -0.0209  0.1222  0.1356
 4729W        W20623   2.490  11.469  15.902  0.0946  0.1706 -0.3072
 4730W        W20624  11.093  11.434  13.773  0.1902 -0.2017 -0.0638
 4731W        W20625  13.936  15.247  14.782  0.0982 -0.1661 -0.2501
 4732W        W20626   4.158   0.781   3.517  0.0877  0.0190 -0.0014
 4733W        W20627  11.501   3.349  13.409 -0.0631  0.2653 -0.0877
 4734W        W20628   3.475  10.602  14.754  0.1691  0.1042  0.2865
 4735W        W20629   0.762  14.549  13.791 -0.1080 -0.0447  0.5298
 4736W        W20630  16.593  12.087   3.447  0.0792 -0.0586 -0.1965
 4737W        W20631   3.625   1.086   2.702  0.2113 -0.0078 -0.2119
 4738W        W20632   0.410   1.155   5.240  0.0591  0.3425  0.2786
 4739W        W20633   7.837   8.680  11.599  0.0551  0.0325  0.4179
 4740W        W20634   8.678  16.655   3.740 -0.2064 -0.2277  0.1832
 4741W        W20635  13.803  14.188  11.478 -0.1676 -0.3730  0.4642
 4742W        W20636   4.497   3.385   1.879 -0.0961 -0.2059 -0.0418
 4743W        W20637  15.167  17.531  14.650  0.2797  0.2973 -0.1517
 4744W        W20638  18.209  16.694   1.629  0.0423  0.1584 -0.0207
 4745W        W20639   4.510  18.168  13.217  0.3953 -0.0536 -0.2853
 4746W        W20640   1.395  11.587  14.369  0.2325 -0.1323 -0.0313
 4747W        W20641   4.240  11.405   1.197 -0.1158  0.0319  0.0397
 4748W        W20642   5.683   9.606  13.851 -0.0386 -0.1887 -0.1322
 4749W        W20643  12.522  10.833  14.667  0.1701 -0.2753 -0.0084
 4750W        W20644  18.203  11.123   0.112 -0.0287  0.0984 -0.1626
 4751W        W20645   5.321   9.851   1.115  0.3093  0.1607  0.0023
 4752W        W20646   7.719  15.164   5.235  0.2330  0.1575  0.1636
 4753W        W20647  14.501   4.667   2.858 -0.0751  0.0468  0.0020
 4754W        W20648  12.589  15.978  16.137 -0.1638  0.0839  0.2187
 4755W        W20649  13.969   6.886   2.558 -0.2220 -0.2386 -0.0548
 4756W        W20650  14.528   8.751  15.093 -0.1607  0.1006  0.0225
 4757W        W20651  10.504  10.733  11.035  0.1181 -0.0231  0.1261
 4758W        W20652   5.569   7.161   3.991 -0.2407  0.2198 -0.1077
 4759W        W20653  17.581   2.774  15.804 -0.1600 -0.2198 -0.3306
 4760W        W20654  14.941   3.103   5.766 -0.1741 -0.2993 -0.1216
 4761W        W20655  11.389   2.633  15.284  0.0762 -0.0887 -0.2136
 4762W        W20656   4.367  17.866  12.241 -0.0541  0.2186 -0.0161
 4763W        W20657  11.586   1.403   0.828 -0.2940  0.2241 -0.1485
 4764W        W20658  11.886   4.608  11.778 -0.2472 -0.3438 -0.1500
 4765W        W20659  17.658  15.558  11.224 -0.1297 -0.0397 -0.1378
 4766W        W20660   6.999  14.400   0.957 -0.3382  0.4191  0.2690
 4767W        W20661  14.175  11.613  15.168 -0.1017 -0.1517  0.1091
 4768W        W20662  16.404  15.720  12.579  0.0743  0.0892  0.1064
 4769W        W20663  16.605   0.965   0.356  0.1197 -0.3510 -0.2915
 4770W        W20664   4.470   9.770  13.267  0.1842 -0.0061  0.0344
 4771W        W20665   0.548   9.142  12.267 -0.3970 -0.1238  0.0393
 4772W        W20666  15.938   7.834  13.996  0.2488  0.3260 -0.0721
 4773W        W20667   1.624   7.112  11.300  0.5191  0.3086 -0.1428
 4774W        W20668  13.623  14.849   2.919 -0.0519  0.3738 -0.1442
 4775W        W20669  16.173  16.355  15.750 -0.0550  0.1324 -0.3075
 4776W        W20670   6.521  13.825  14.472  0.2182  0.0795 -0.1091
 4777W        W20671  17.668   8.170  14.060  0.0481  0.0381 -0.0702
 4778W        W20672   9.013   8.187  11.932 -0.1390  0.0141 -0.1391
 4779W        W20673  17.969  10.708   2.033  0.1031  0.0995 -0.1049
 4780W        W20674   0.229   5.756   3.522 -0.0017 -0.5276  0.1446
 4781W        W20675  18.283  11.091  11.786  0.0396 -0.0064  0.0367
 4782W        W20676   1.970   4.243   4.619  0.1177  0.1492 -0.1056
 4783W        W20677  16.686   9.461   1.925  0.0228 -0.1743 -0.0283
 4784W        W20678   3.660   2.483  12.629 -0.0021 -0.1857 -0.0763
 4785W        W20679   8.814  17.669   0.445  0.0201  0.0452 -0.2489
 4786W        W20680   3.159   9.469   2.848 -0.2640 -0.5216  0.0758
 4787W        W20681  14.935   2.634  15.311 -0.3469 -0.3136 -0.1723
 4788W        W20682  15.786   3.655   2.403 -0.1510  0.0462  0.0720
 4789W        W20683   9.644   3.641  15.082 -0.4188  0.2960  0.1333
 4790W        W20684   5.735   1.999   0.926 -0.3860  0.0599  0.2193
 4791W        W20685   0.065   5.284   1.774  0.0346  0.0169 -0.2737
 4792W        W20686   4.528   7.209  10.181 -0.0958 -0.1951 -0.1572
 4793W        W20687  16.024  10.991  12.070  0.0176 -0.1603  0.2692
 4794W        W20688   7.390   0.624   1.431 -0.0846 -0.0698 -0.1516
 4795W        W20689   5.996   3.884   0.035  0.1063  0.2027 -0.2655
 4796W        W20690   8.905  14.771   0.504 -0.1197  0.1451  0.0886
 4797W        W20691   5.677  16.170  15.175 -0.0639  0.0962 -0.0574
 4798W        W20692   6.877   9.361  12.182 -0.1178 -0.0411  0.0531
 4799W        W20693   0.444  14.837  15.520 -0.3292 -0.1048 -0.0140
 4800W        W20694   0.444  15.738   3.446 -0.2541 -0.0644 -0.2455
 4801W        W20695  13.906   1.476   2.519  0.2176 -0.0111  0.0808
 4802W        W20696  13.591   8.667  11.536 -0.2038 -0.4170  0.1418
 4803W        W20697  13.641  13.061   3.851 -0.0950 -0.3251  0.2000
 4804W        W20698  15.308   1.899  10.596 -0.1162  0.0803  0.0541
 4805W        W20699   1.080   2.154   4.298  0.0435 -0.0061  0.1064
 4806W        W20700  14.689  17.268  14.384  0.1293 -0.0429  0.1926
 4807W        W20701  17.613  12.857  14.306  0.2501  0.0208  0.0215
 4808W        W20702  18.275  12.703   5.234  0.0285  0.1312 -0.2127
 4809W        W20703   8.261  12.502  13.848 -0.1807 -0.0853 -0.4165
 4810W        W20704  16.131  12.046   4.030 -0.0768  0.0073  0.1583
 4811W        W20705  11.489  13.974  14.363  0.0523 -0.4178  0.0792
 4812W        W20706  16.440  10.405  11.918  0.0541  0.3691 -0.2473
 4813W        W20707   6.661  13.251  15.619  0.0624  0.2097 -0.0597
 4814W        W20708   7.659  17.531   5.428 -0.1647  0.1010 -0.5198
 4815W        W20709  15.695   1.663  12.296 -0.0126  0.0136 -0.2400
 4816W        W20710   5.410  12.105   4.877  0.1384  0.4597  0.0832
 4817W        W20711  13.371  10.302  14.660  0.0127  0.1125 -0.4270
 4818W        W20712  17.299   4.784   4.119  0.0310  0.0882  0.0747
 4819W        W20713   2.221   7.548  13.373  0.0171 -0.1431  0.4331
 4820W        W20714   5.754   1.097  11.563  0.1956  0.2837  0.0367
 4821W        W20715  18.230   4.628  14.848 -0.0453 -0.2565 -0.1287
 4822W        W20716   0.379   2.390   1.132  0.0515  0.0369 -0.0624
 4823W        W20717   6.007   1.296   2.582  0.1129  0.1849 -0.0948
 4824W        W20718   5.978   2.958  14.926 -0.2851  0.0706  0.1382
 4825W        W20719   7.443   9.297  14.272  0.3223  0.1671  0.1226
 4826W        W20720  18.112   2.173  12.331 -0.2483 -0.1070 -0.1106
 4827W        W20721   8.333  14.107   4.726 -0.0590 -0.3631 -0.0032
 4828W        W20722   8.212   7.823  12.896  0.0192 -0.0397  0.2475
 4829W        W20723  17.923   8.173  13.185  0.2570 -0.0311 -0.0042
 4830W        W20724   6.077  13.837   2.752 -0.0064 -0.2657  0.1516
 4831W        W20725  10.486  12.368  12.338  0.0368 -0.0455 -0.0039
 4832W        W20726  12.380   1.991  12.144 -0.1560 -0.3490  0.0472
 4833W        W20727  15.803  13.082   3.460  0.2452  0.0730 -0.1379
 4834W        W20728  17.745  11.144   1.746 -0.0563 -0.2121  0.1729
 4835W        W20729   3.315  16.342   5.299 -0.1242  0.0179 -0.1937
 4836W        W20730  12.319   5.658   1.047 -0.0947 -0.0275  0.0098
 4837W        W20731   1.235   7.132   2.641 -0.1983  0.0047  0.1933
 4838W        W20732  13.828  11.754  12.203 -0.2544 -0.0349 -0.0832
 4839W        W20733  10.537  10.412  12.427 -0.0160  0.0040  0.4195
 4840W        W20734   1.607   1.946   2.258 -0.0075 -0.1209  0.0075
 4841W        W20735  13.273  10.902  11.054  0.1044  0.3431 -0.0472
 4842W        W20736  13.966  10.139  14.437 -0.3093  0.0989  0.0620
 4843W        W20737   8.687   3.838  12.497 -0.2452 -0.0018  0.1561
 4844W        W20738  15.461   9.395   0.342  0.1354 -0.1047 -0.2945
 4845W        W20739  16.214  11.431  13.766 -0.0582  0.1892  0.0195
 4846W        W20740   2.600  12.674  15.878  0.0718  0.0847  0.0728
 4847W        W20741   8.738   2.703  13.497  0.0168 -0.0774  0.0782
 4848W        W20742  16.821   6.272   2.496  0.1656  0.0220 -0.3494
 4849W        W20743  12.880  14.803   0.264 -0.2699 -0.1683 -0.1075
 4850W        W20744   6.023   8.230  10.024  0.2698  0.1399 -0.0105
 4851W        W20745   1.883  13.302  12.423 -0.1824  0.2885 -0.3829
 4852W        W20746  11.641  12.422  13.659  0.0323 -0.1869  0.1605
 4853W        W20747  11.375  10.423   1.757 -0.2811  0.1241  0.0249
 4854W        W20748  14.990  16.960   0.016 -0.4004 -0.2060 -0.0469
 4855W        W20749   2.165   1.522  16.129  0.1474  0.1245 -0.1241
 4856W        W20750  15.611   1.977   3.601 -0.0020 -0.0379 -0.0743
 4857W        W20751  10.176   1.681   4.414 -0.1812 -0.3895  0.2145
 4858W        W20752   4.983  11.161  15.129 -0.1736  0.1097  0.2314
 4859W        W20753  16.825  11.774   4.948  0.1047 -0.0729  0.2444
 4860W        W20754   8.719   1.212   2.511  0.1744  0.0999  0.1301
 4861W        W20755  12.777   1.704  11.991  0.3862  0.3627  0.0952
 4862W        W20756  17.819   0.009   4.215  0.0202  0.2190 -0.1355
 4863W        W20757  10.426  17.081  14.462  0.1726 -0.0898  0.0947
 4864W        W20758   9.640  14.178   2.782 -0.1111 -0.2180 -0.0094
 4865W        W20759  13.498  17.171   5.620 -0.0240  0.0516 -0.0373
 4866W        W20760   2.982   7.194  13.116  0.2375 -0.2161  0.2424
 4867W        W20761   8.189  10.102  13.602 -0.0385  0.1281 -0.3840
 4868W        W20762   8.879  18.331   5.320 -0.3048  0.1820  0.1667
 4869W        W20763   6.485   9.959   0.437 -0.0308  0.1030 -0.1060
 4870W        W20764   9.183   6.544   2.748 -0.2266 -0.1006  0.2288
 4871W        W20765   8.161   6.993   1.729 -0.2653 -0.0370 -0.1755
 4872W        W20766  13.305  10.456   1.495  0.0854 -0.0569 -0.1372
 4873W        W20767  17.130  13.604   1.726 -0.2020  0.1949  0.1689
 4874W        W20768  10.871   8.228   1.863 -0.1044  0.1168 -0.3385
 4875W        W20769  18.384   6.010  15.694  0.0625  0.0711 -0.0125
 4876W        W20770   1.924  14.892  10.241  0.1618  0.0901 -0.1097
 4877W        W20771  17.244  13.161  15.607 -0.3050  0.0614 -0.0368
 4878W        W20772   9.720   4.255   4.544 -0.0281 -0.1069 -0.1452
 4879W        W20773   1.183  17.205  12.306 -0.1722 -0.2981 -0.2651
 4880W        W20774   3.477   2.978   2.120  0.1902 -0.2234 -0.2965
 4881W        W20775   3.057   4.643  13.878 -0.1872 -0.0650 -0.2802
 4882W        W20776   0.325   9.461   0.867 -0.0006 -0.0996 -0.1344
 4883W        W20777   0.973  11.781   1.155  0.1309 -0.2240 -0.2565
 4884W        W20778   3.024   6.148  12.120 -0.0388 -0.0536  0.2693
 4885W        W20779   0.230   3.345   1.795 -0.1259 -0.0647 -0.0054
 4886W        W20780   1.240   0.572  13.767  0.1084 -0.1372 -0.1068
 4887W        W20781   4.084  16.630  11.371 -0.1460  0.1117 -0.1079
 4888W        W20782  13.306   6.931   4.454  0.1593 -0.1804 -0.2186
 4889W        W20783   9.362   3.838   4.474 -0.0683 -0.0193  0.3138
 4890W        W20784  10.635  15.465   0.606  0.0517 -0.0052 -0.0871
 4891W        W20785  17.347   7.721   0.772  0.0622 -0.0220 -0.2573
 4892W        W20786  12.402   9.036  12.245  0.1429  0.0638  0.2985
 4893W        W20787  14.254  10.401  12.627 -0.1002  0.0246 -0.1268
 4894W        W20788   6.228  13.627  12.670 -0.2467 -0.1967 -0.0906
 4895W        W20789   5.404   3.196  11.799  0.2576 -0.0623 -0.0420
 4896W        W20790   5.499  10.841   2.512 -0.0669 -0.3274  0.2595
 4897W        W20791  17.905  10.811   3.179  0.0488  0.0470  0.2459
 4898W        W20792  11.859  11.640   0.361 -0.0455 -0.1398  0.1350
 4899W        W20793  11.311   7.975  12.517  0.0636  0.0792 -0.1894
 4900W        W20794   4.807   2.089   1.649  0.3250  0.1573 -0.0867
 4901W        W20795  14.059   1.199  12.384 -0.1246 -0.0241  0.3559
 4902W        W20796   7.346   6.084   0.693 -0.3812  0.1807 -0.0574
 4903W        W20797  13.784   2.562   5.462 -0.4094  0.1025  0.0348
 4904W        W20798   4.616   7.291  14.740 -0.0051  0.3233  0.1771
 4905W        W20799  17.704  17.172  15.709 -0.3596 -0.2985 -0.0085
 4906W        W20800  11.621  16.013  14.565  0.0926 -0.1935 -0.1003
 4907W        W20801   3.658   5.644   2.863  0.0999  0.2850 -0.1541
 4908W        W20802  17.072  15.945  11.850  0.0945  0.0001  0.2818
 4909W        W20803   9.482   0.384   4.442 -0.0339 -0.2662 -0.0933
 4910W        W20804  10.405   7.120   1.404  0.4943 -0.2726 -0.2720
 4911W        W20805   4.544  15.031  11.932  0.1149  0.2813 -0.0130
 4912W        W20806  15.173  18.070  13.810  0.0702 -0.1440  0.0770
 4913W        W20807   7.736   3.515   2.107 -0.2404 -0.0911 -0.0104
 4914W        W20808  13.724   0.605   3.602 -0.1150 -0.0788 -0.1556
 4915W        W20809  13.078   1.027   2.755 -0.1702  0.3207  0.2876
 4916W        W20810   5.874   7.737  14.905 -0.1905  0.0638  0.0817
 4917W        W20811   6.931   2.456  16.092  0.2427 -0.0339  0.1282
 4918W        W20812   6.154   0.291   4.192 -0.0739  0.1340 -0.0118
 4919W        W20813   8.477  12.921  12.233  0.0667  0.1226 -0.1050
 4920W        W20814  12.904   9.885  13.833 -0.0382 -0.2141  0.1072
 4921W        W20815   4.723   6.853  14.451 -0.0406 -0.0198  0.0457
 4922W        W20816  13.834   3.409  12.291  0.0451  0.0303  0.1639
 4923W        W20817   5.522  17.534   2.808  0.0211  0.1307  0.1986
 4924W        W20818  10.767   9.368   3.259  0.1468 -0.0866  0.1459
 4925W        W20819   9.903  17.770   2.732  0.0815 -0.0981  0.1032
 4926W        W20820   0.267  11.080   5.365 -0.0106  0.0956 -0.2495
 4927W        W20821   6.808   5.464   3.201  0.4164 -0.0748  0.2807
 4928W        W20822   4.575  12.687   1.112  0.0768  0.0910  0.2258
 4929W        W20823   8.273   6.309   5.761 -0.2008 -0.1089  0.3431
 4930W        W20824   1.865   7.323   0.844  0.2411 -0.0180  0.2356
 4931W        W20825   9.560  13.841  10.565 -0.1119  0.1074 -0.0095
 4932W        W20826   1.222   5.647   0.758 -0.2189 -0.0331 -0.0166
 4933W        W20827   3.332   1.576  14.137 -0.0900 -0.1425 -0.0545
 4934W        W20828   0.068  10.046   0.134 -0.2840  0.3709 -0.1574
 4935W        W20829  15.608   7.515  12.638 -0.1800  0.3888 -0.0484
 4936W        W20830   6.913   0.033   2.571  0.1555 -0.2052  0.3901
 4937W        W20831   0.992  15.956  14.634 -0.0290  0.0442  0.0052
 4938W        W20832   3.972  18.255  12.271 -0.1561  0.2190 -0.0084
 4939W        W20833  14.157   2.115  15.100 -0.0923  0.1316  0.2308
 4940W        W20834   4.168   8.685   1.691  0.1074 -0.1848  0.2960
 4941W        W20835  12.051  10.106  13.966  0.1672 -0.1136  0.1831
 4942W        W20836   4.324  13.748  12.576  0.1576  0.1509  0.1333
 4943W        W20837  10.328  10.222  12.874 -0.0412  0.1657 -0.0837
 4944W        W20838   4.011   6.943   1.196  0.1764 -0.2290  0.0487
 4945W        W20839  16.133   6.198  11.995 -0.2754 -0.1902 -0.0274
 4946W        W20840   4.177  10.086  14.231  0.3063  0.3221 -0.2235
 4947W        W20841   0.219  12.839  13.485  0.2145 -0.0874 -0.0169
 4948W        W20842   5.805   9.819  13.454 -0.1041 -0.0223 -0.2608
 4949W        W20843   2.082  12.674  12.662  0.3106 -0.1625  0.1348
 4950W        W20844   0.454   7.038   0.583 -0.0634 -0.1613  0.1580
 4951W        W20845  16.457   0.069  13.269  0.3383 -0.3229  0.1135
 4952W        W20846   3.860   4.963  13.451 -0.0705 -0.2564  0.1639
 4953W        W20847   4.273  17.852  11.304  0.0036 -0.1655 -0.0762
 4954W        W20848   9.496  17.832  13.764 -0.2641  0.1811 -0.0135
 4955W        W20849  15.354   0.707   4.176 -0.1988  0.0023 -0.3386
 4956W        W20850   4.582   6.796  14.914  0.1882  0.1669  0.0892
 4957W        W20851   5.003   3.193  14.696 -0.4065 -0.1580 -0.0888
 4958W        W20852   4.255  12.771   2.023 -0.5740 -0.1669 -0.2623
 4959W        W20853   8.031  16.146   2.478  0.2330  0.3209 -0.0287
 4960W        W20854   5.748  15.812   2.879  0.1745  0.0769 -0.0802
 4961W        W20855  16.462  11.454   5.041  0.1858 -0.0046 -0.3202
 4962W        W20856   1.253  12.596   5.119  0.1468  0.2015 -0.3910
 4963W        W20857   3.262   4.593  14.376  0.0106 -0.2017 -0.0086
 4964W        W20858   1.397   8.659  16.034  0.1301  0.1402 -0.0093
 4965W        W20859  17.844  16.028  15.362 -0.1648 -0.2525  0.2286
 4966W        W20860  11.216   5.502   4.168 -0.0345 -0.0901 -0.2351
 4967W        W20861  11.402   2.943  14.890 -0.2165 -0.2584  0.2431
 4968W        W20862  18.041   6.822   4.373 -0.1049 -0.0914  0.1123
 4969W        W20863  14.684  11.109   2.412 -0.1802 -0.1940 -0.0971
 4970W        W20864  16.178  16.233  11.829 -0.1025 -0.1913 -0.0677
 4971W        W20865  14.037   7.427   0.539 -0.0697  0.1329 -0.1032
 4972W        W20866   7.711   0.329   3.641  0.3274 -0.0646  0.0881
 4973W        W20867   7.703  16.242   1.997  0.1372 -0.0273 -0.0793
 4974W        W20868   7.430  18.244   0.387 -0.1496 -0.0779 -0.3032
 4975W        W20869   3.380   4.753   2.064  0.0547 -0.1997  0.1147
 4976W        W20870  11.380  17.053  10.960 -0.0147 -0.1443 -0.1970
 4977W        W20871  18.076   0.179   3.749 -0.0671  0.0452 -0.3832
 4978W        W20872   8.694   4.882  10.983  0.0568  0.1015  0.1119
 4979W        W20873   7.609  10.137   5.392 -0.1598  0.3575 -0.1235
 4980W        W20874  18.271  11.328  14.975  0.0979 -0.2776  0.0197
 4981W        W20875   9.875  13.640   4.662  0.0889  0.3400  0.2346
 4982W        W20876  14.066   9.759  14.070  0.3121  0.0983 -0.0618
 4983W        W20877   2.778   6.709   2.247 -0.2798 -0.0726  0.0841
 4984W        W20878  10.103  10.551  12.490  0.2693  0.4653 -0.1775
 4985W        W20879   8.935   6.633  12.189  0.1180 -0.1271 -0.2291
 4986W        W20880   7.415  11.449  15.967 -0.0461  0.3585  0.3896
 4987W        W20881  15.825  10.379   3.130 -0.0598  0.1399  0.4941
 4988W        W20882  17.691   2.099  12.718  0.0065  0.1039 -0.1013
 4989W        W20883  18.131   5.269   2.785  0.2296  0.3071  0.0677
 4990W        W20884   6.764   2.430   1.715 -0.0100  0.3573  0.0863
 4991W        W20885   5.750  12.575  12.457 -0.0578  0.3188 -0.1649
 4992W        W20886   2.219   9.037   4.278  0.0284 -0.4508 -0.0994
 4993W        W20887  16.687  10.659   3.890  0.0857  0.1276 -0.0668
 4994W        W20888   2.731  10.035  16.101  0.1278 -0.0003  0.1567
 4995W        W20889  10.184   9.362  14.365  0.1661 -0.0545  0.4084
 4996W        W20890   1.252   1.941  14.355 -0.1737  0.3814 -0.0129
 4997W        W20891   4.361   5.515  15.252 -0.0906 -0.0287  0.4496
 4998W        W20892   6.433   0.284  16.074  0.1848 -0.2601  0.2979
 4999W        W20893   6.561   9.083   0.587  0.1517  0.1300  0.0675
 5000W        W20894   0.519   6.592  14.988 -0.0978  0.1590  0.1726
 5001W        W20895   8.735   9.766   2.667 -0.1327  0.1860  0.1333
 5002W        W20896   8.974  12.822   4.449 -0.2197  0.3168  0.0730
 5003W        W20897  16.656  14.383   3.330  0.1532  0.2943  0.1445
 5004W        W20898  18.243   4.604  11.751  0.1272  0.1201 -0.1375
 5005W        W20899   5.976   6.231   4.248  0.3746  0.1034  0.0383
 5006W        W20900   3.317   6.191  15.953  0.0541 -0.2845  0.0696
 5007W        W20901  17.073  16.399  15.835 -0.1577  0.0455 -0.1644
 5008W        W20902  12.407   3.870   0.476 -0.3822 -0.1744  0.0875
 5009W        W20903  15.695  10.013  15.501 -0.0515 -0.1447  0.1598
 5010W        W20904   5.315  12.117  13.270 -0.2084 -0.1251 -0.0687
 5011W        W20905  16.554  14.856   3.414 -0.0244  0.3952  0.1957
 5012W        W20906   0.567   6.440   3.654  0.1520  0.1794 -0.0572
 5013W        W20907  17.878   9.367  15.881 -0.1560  0.1674 -0.0657
 5014W        W20908   0.203  11.208   4.807  0.1359  0.3025  0.3947
 5015W        W20909  14.371   8.306   5.223 -0.1761 -0.3419  0.1826
 5016W        W20910   4.345  14.493  13.195  0.0663 -0.2479 -0.3744
 5017W        W20911  16.030   1.602   0.339 -0.0437 -0.1383 -0.0478
 5018W        W20912   2.076   9.064  14.403 -0.0256 -0.0375  0.1268
 5019W        W20913   4.692   0.459   0.677  0.2324  0.2502 -0.1445
 5020W        W20914  12.411  10.552  12.913 -0.2529  0.0827  0.4427
 5021W        W20915   9.439  13.517  11.864  0.2204  0.0414  0.1028
 5022W        W20916  13.376  10.995  13.699 -0.1658 -0.0823 -0.0786
 5023W        W20917   1.430  15.279  15.700  0.0493  0.2061 -0.3651
 5024W        W20918  17.062   8.135   3.953 -0.2086  0.0802 -0.1460
 5025W        W20919   2.737  10.891   5.107 -0.0134 -0.1492  0.2650
 5026W        W20920   8.267  13.040  12.833  0.0455  0.1205  0.0118
 5027W        W20921   9.715  16.496  14.033  0.3527 -0.1622 -0.1117
 5028W        W20922  10.772   7.909   0.886  0.1052 -0.3781  0.1018
 5029W        W20923   9.531   0.584   3.599  0.1128 -0.1336  0.1206
 5030W        W20924   4.160   7.981   2.336 -0.0747  0.2493 -0.3000
 5031W        W20925  13.059  18.283   0.355  0.1243  0.0135  0.0449
 5032W        W20926  13.210  16.798  11.389  0.0554  0.3077  0.0020
 5033W        W20927  10.182   7.044  15.675 -0.1165 -0.0342  0.1210
 5034W        W20928  11.540  13.746   2.825 -0.2459  0.0870 -0.3500
 5035W        W20929  10.347   7.919   4.464  0.0981  0.0202 -0.0556
 5036W        W20930   9.655  16.825  12.083 -0.2612 -0.2791 -0.0685
 5037W        W20931   0.525  12.534   1.187  0.0863  0.1576 -0.2471
 5038W        W20932   7.332   7.089  12.955 -0.3012  0.3565  0.0660
 5039W        W20933  17.826   3.410  15.074  0.1499 -0.0448  0.1661
 5040W        W20934   7.257   6.640   0.047  0.1661  0.1775  0.0236
 5041W        W20935   4.241   2.893   0.389  0.3619  0.0493  0.2254
 5042W        W20936   2.250   1.795   4.020  0.1158 -0.0647  0.1010
 5043W        W20937  16.077  11.636  12.612  0.4507 -0.1065 -0.0815
 5044W        W20938   6.757   3.547   5.580 -0.1885 -0.2878 -0.3858
 5045W        W20939  13.853   0.511   3.112  0.2269 -0.1548  0.3033
 5046W        W20940   2.698   4.548  12.351  0.2675 -0.2510  0.3055
 5047W        W20941  15.825   6.814  14.153 -0.2474  0.1538  0.0151
 5048W        W20942   4.035  11.438  11.411  0.0501 -0.0162 -0.0718
 5049W        W20943   1.130   5.556  11.454 -0.2025  0.1408 -0.3278
 5050W        W20944  17.169   9.394   4.955 -0.2821  0.2136  0.1359
 5051W        W20945  10.214   5.396  14.296  0.1558  0.0196 -0.2458
 5052W        W20946   9.634   8.014   1.556 -0.0885  0.5648 -0.0393
 5053W        W20947  10.835   8.981  12.492  0.0398  0.2489  0.0732
 5054W        W20948   4.656  15.306  12.547  0.0864 -0.3050  0.0960
 5055W        W20949  14.501   5.051   3.212 -0.0189  0.5021 -0.2204
 5056W        W20950   1.921   9.682  15.906  0.2715  0.1008  0.0434
 5057W        W20951   0.032   2.875   4.864  0.2390  0.3096  0.0869
 5058W        W20952   3.047  18.433   1.192 -0.0951  0.3630 -0.3962
 5059W        W20953  14.391   1.982  14.649  0.2247  0.0725  0.0831
 5060W        W20954  17.485  15.102   3.434 -0.5223 -0.1559 -0.1265
 5061W        W20955  14.738   4.667  15.900  0.3102 -0.1364 -0.0819
 5062W        W20956   5.412  16.446  10.245 -0.0730  0.2541  0.2292
 5063W        W20957  16.511   9.269   2.348  0.0476  0.2153  0.0440
 5064W        W20958   2.850   9.583  15.828  0.2446 -0.0392 -0.0238
 5065W        W20959  14.653  16.122   0.607 -0.1448  0.1047  0.0617
 5066W        W20960   2.577  13.732   3.473  0.0459  0.0548  0.2170
 5067W        W20961  17.459   8.192   1.670 -0.3514 -0.3120 -0.0921
 5068W        W20962  14.079  16.825  13.926  0.2258  0.2796 -0.1694
 5069W        W20963   4.672   3.926   3.139  0.1997  0.2569 -0.1539
 5070W        W20964   3.016  12.681   5.183  0.0088  0.3152 -0.1746
 5071W        W20965   0.947   2.994   1.660  0.0120  0.5974  0.2150
 5072W        W20966   5.912  15.501  15.142  0.0119 -0.2424 -0.0178
 5073W        W20967  10.945   6.156   3.323  0.2461 -0.0929  0.3271
 5074W        W20968  10.353  15.060  11.976 -0.3370 -0.2043  0.4161
 5075W        W20969   7.102   2.080   1.252 -0.1161  0.0394  0.1208
 5076W        W20970   0.099   3.539  14.099 -0.0029 -0.2268 -0.1842
 5077W        W20971   8.775  11.575  11.926 -0.0590  0.2534  0.0570
 5078W        W20972  10.182   7.247  12.654 -0.2226  0.3276 -0.1178
 5079W        W20973  15.389   4.513   3.830 -0.1832  0.0567 -0.1090
 5080W        W20974   9.738   2.466  15.947 -0.1131 -0.2676 -0.0163
 5081W        W20975  14.402   9.740   5.380 -0.2713  0.2036  0.0366
 5082W        W20976   2.170   1.032  13.176 -0.2975 -0.1561 -0.2342
 5083W        W20977   8.425  10.158  14.533 -0.2762  0.0829  0.1084
 5084W        W20978   6.223   4.299   0.679  0.0733  0.1949  0.3522
 5085W        W20979  10.923   5.892   4.075 -0.0755  0.0950 -0.1330
 5086W        W20980  17.706   6.639   2.385  0.0159  0.0898  0.1611
 5087W        W20981  14.270  11.377   0.392 -0.0534 -0.0873 -0.0548
 5088W        W20982   8.149  12.625  12.559 -0.0218 -0.3395  0.0875
 5089W        W20983  12.319  15.539   2.335 -0.1777 -0.1568 -0.0064
 5090W        W20984  13.931   0.463   6.230 -0.1096  0.0919 -0.2652
 5091W        W20985   8.652  13.139   5.633  0.1010  0.1289 -0.3940
 5092W        W20986   2.804  16.835   1.707 -0.1481  0.0274 -0.1247
 5093W        W20987   4.822  15.389  14.805  0.0297 -0.0592 -0.1615
 5094W        W20988   0.801   2.583  14.757  0.0358 -0.3425  0.1932
 5095W        W20989   1.757   0.165   1.505  0.3966 -0.0007 -0.1757
 5096W        W20990   6.458   9.304  15.793 -0.1192 -0.0276  0.3449
 5097W        W20991   8.120  17.248   2.045 -0.0234 -0.2374  0.1196
 5098W        W20992   7.650  14.297   0.167  0.1274 -0.1598 -0.2681
 5099W        W20993   0.423  13.223  12.370  0.1001  0.0484 -0.2588
 5100W        W20994  10.902  17.804   1.896 -0.0539 -0.1904  0.0528
 5101W        W20995  14.589   6.459  15.476  0.0584  0.0154  0.0681
 5102W        W20996  16.352   3.056   3.253 -0.2225 -0.0424  0.1073
 5103W        W20997   7.180  11.185  15.005 -0.0034  0.0466  0.0080
 5104W        W20998   7.096   6.333  13.011 -0.1330 -0.1704 -0.1349
 5105W        W20999  12.338  10.654  11.683  0.1608 -0.1015 -0.4250
 5106W        W21000  12.339   1.470  12.250  0.0652 -0.1403  0.4261
 5107W        W21001   2.966   8.458  11.690  0.0253  0.1422 -0.0843
 5108W        W21002   0.901   9.640   0.671 -0.0701 -0.0988 -0.1408
 5109W        W21003  12.998   3.700   4.408 -0.2596 -0.3972  0.1840
 5110W        W21004   4.033   3.866  11.658  0.0657 -0.2564  0.0381
 5111W        W21005   4.252  13.645   2.159 -0.3362 -0.2392  0.3551
 5112W        W21006  13.248  17.406  16.085  0.2965  0.0718 -0.0411
 5113W        W21007   5.665  14.517   2.539 -0.2622  0.0595 -0.0099
 5114W        W21008  13.957   8.930  16.098  0.2313  0.0909  0.5990
 5115W        W21009  12.600   8.173   4.814 -0.2085 -0.0814  0.0400
 5116W        W21010   2.809  14.929   2.721 -0.0837 -0.2254 -0.0149
 5117W        W21011  15.200  11.365   4.435  0.2039 -0.0399 -0.0717
 5118W        W21012  18.056   0.977  14.368 -0.2084 -0.1573  0.1397
 5119W        W21013  11.669   1.653  13.493 -0.0197 -0.0762 -0.3815
 5120W        W21014   5.589  14.310  12.144 -0.2334  0.1383  0.1351
 5121W        W21015   7.710  15.330   2.433 -0.1008 -0.3102 -0.1100
 5122W        W21016   8.982   3.203  13.789  0.0829 -0.0454 -0.1466
 5123W        W21017  10.373  10.140   4.787 -0.2005 -0.4480 -0.1920
 5124W        W21018  16.293   8.014  12.154  0.2068 -0.5015 -0.1746
 5125W        W21019   3.252  13.341   0.746  0.2995 -0.2383 -0.0193
 5126W        W21020  18.181  14.279   0.941  0.2680  0.1795 -0.3341
 5127W        W21021  17.129   9.658   2.123 -0.3889 -0.4172 -0.1924
 5128W        W21022   3.636   2.172   2.152 -0.0794 -0.0809 -0.0060
 5129W        W21023  11.660   2.639  10.146 -0.0740 -0.2842 -0.1953
 5130W        W21024   3.413  16.383   2.330 -0.3461  0.4250 -0.0214
 5131W        W21025   8.404   9.063  14.195 -0.3079  0.2577 -0.1759
 5132W        W21026   5.335  16.878   4.428  0.0111 -0.0081  0.4915
 5133W        W21027  16.365   5.313   2.914  0.0662  0.2766 -0.0055
 5134W        W21028  13.005  16.755   2.992 -0.1758  0.2529 -0.2949
 5135W        W21029   5.438   9.414   6.046  0.0600  0.1341  0.1815
 5136W        W21030  12.264  18.131  11.559  0.0123 -0.0035  0.2287
 5137W        W21031   0.789   7.594  11.508 -0.0095  0.0895 -0.0787
 5138W        W21032  10.665   3.943   5.004 -0.2905 -0.1676 -0.0436
 5139W        W21033   8.482  16.917  13.047 -0.2907  0.0384 -0.1675
 5140W        W21034   1.191  11.092   5.006  0.0698 -0.1157  0.0395
 5141W        W21035   1.329  17.898  15.049  0.0080 -0.1220  0.1278
 5142W        W21036   5.588   8.394   4.871 -0.2197  0.2671 -0.0701
 5143W        W21037  13.178  12.971  15.599  0.2327 -0.0254  0.3906
 5144W        W21038  15.390   1.137  16.023  0.0869  0.1952 -0.3849
 5145W        W21039  17.541   4.179   3.805 -0.3032 -0.0822 -0.1622
 5146W        W21040   5.994  12.811  12.046 -0.2825 -0.2770  0.3071
 5147W        W21041  11.672   9.574  15.782 -0.2162  0.2437  0.1464
 5148W        W21042   5.335   8.990  11.676 -0.3491 -0.0564  0.0961
 5149W        W21043   7.822  10.880  12.921 -0.1275  0.2313 -0.3191
 5150W        W21044  10.003   2.542  15.476 -0.1722 -0.0239 -0.1119
 5151W        W21045   5.749  17.903   0.040  0.1492 -0.3544  0.1026
 5152W        W21046  14.841   6.400   0.243  0.2155 -0.0826 -0.3050
 5153W        W21047  14.586   7.547  15.346  0.1602  0.2564 -0.2446
 5154W        W21048  11.473  17.168  15.988  0.4005 -0.0091 -0.0945
 5155W        W21049   5.596  17.639   0.593  0.0076 -0.0158 -0.4135
 5156W        W21050   3.736  12.851   4.358  0.1089  0.1059  0.1420
 5157W        W21051   0.269   9.040  14.093 -0.1312 -0.1772  0.2270
 5158W        W21052   1.446  11.177  15.771 -0.0960  0.0832  0.0945
 5159W        W21053   0.755  14.086  11.401  0.0064  0.2096  0.0088
 5160W        W21054   7.812   9.384   1.515  0.1244  0.0929 -0.1666
 5161W        W21055  12.338  12.825  11.211  0.2254  0.2885 -0.1044
 5162W        W21056  11.953   5.367  14.752  0.1073 -0.1915 -0.1691
 5163W        W21057  12.882   4.887   4.528  0.0438  0.0241  0.2244
 5164W        W21058   5.106   5.765  14.415 -0.0990 -0.1620  0.2131
 5165W        W21059  16.737  16.525  13.928  0.1192  0.1166 -0.0057
 5166W        W21060   7.861   6.609  12.958  0.0088 -0.0074 -0.0466
 5167W        W21061   6.547  11.317  15.962 -0.0227  0.1335  0.0393
 5168W        W21062   4.580   3.679   3.654 -0.2763 -0.0419 -0.1147
 5169W        W21063   6.345  10.908  11.611  0.1026  0.2102  0.0244
 5170W        W21064   3.594   0.804   3.569 -0.1222  0.0180 -0.0058
 5171W        W21065   3.644  17.163   2.879  0.3153  0.1497  0.0086
 5172W        W21066  10.394  11.147  13.207  0.0097 -0.2001 -0.2278
 5173W        W21067  17.605   3.022  14.111 -0.2972 -0.0232 -0.1677
 5174W        W21068   1.121   7.549   0.198 -0.1532  0.1592 -0.1643
 5175W        W21069   9.339   7.280  15.643  0.2853 -0.0549 -0.1172
 5176W        W21070   1.186   3.699   4.755  0.4178 -0.1690  0.3414
 5177W        W21071  18.116   6.838  13.475 -0.1426 -0.1178 -0.2226
 5178W        W21072  15.211   3.502  12.849 -0.3621 -0.0802  0.2244
 5179W        W21073  13.178  10.483  12.192 -0.1018 -0.1828  0.1622
 5180W        W21074  15.316  16.614   0.703 -0.0315  0.1935  0.0055
 5181W        W21075  18.369   3.352  15.159 -0.0816  0.0088  0.2940
 5182W        W21076   1.852  10.650   4.924  0.1503  0.3377  0.2465
 5183W        W21077   3.640  11.906  12.807 -0.0750 -0.0579 -0.1368
 5184W        W21078   7.888  15.371   1.945  0.4021  0.0878  0.1187
 5185W        W21079  10.179   2.988   0.236  0.3604 -0.3135  0.0007
 5186W        W21080   8.968   0.626   1.254  0.2499 -0.0409 -0.0251
 5187W        W21081  18.267   0.437  12.563  0.0510  0.1359  0.0745
 5188W        W21082  13.489  15.584   0.950 -0.1442 -0.0033 -0.0623
 5189W        W21083   6.727  14.409   0.543  0.4917  0.2904 -0.1580
 5190W        W21084   0.955  15.027   5.327  0.0444 -0.1934  0.3148
 5191W        W21085   2.842  11.614   3.748  0.1424  0.2633 -0.0742
 5192W        W21086  17.126  14.470   4.131 -0.0233 -0.0529  0.0218
 5193W        W21087   6.972  15.628  15.840 -0.4560  0.1812 -0.0559
 5194W        W21088   0.046   6.903  12.663 -0.1012  0.0299  0.0400
 5195W        W21089   7.987  13.942  14.109 -0.2532  0.1916  0.1953
 5196W        W21090   7.347  10.047   3.657 -0.3280  0.2046 -0.1089
 5197W        W21091   4.463  15.321   5.204 -0.1443 -0.2608  0.2287
 5198W        W21092   1.996   1.167  12.417  0.1151  0.0532 -0.0731
 5199W        W21093  17.055   5.167   3.715  0.0172 -0.2260 -0.4583
 5200W        W21094   2.843   1.504  15.375 -0.1772  0.1438 -0.4042
 5201W        W21095   2.795   0.030  13.762  0.0011  0.1047  0.3501
 5202W        W21096   0.003   4.181  11.809 -0.2915  0.0316  0.0445
 5203W        W21097   3.274  11.679  15.708  0.0412 -0.0418  0.1840
 5204W        W21098   5.170   0.194   4.931  0.2906 -0.1742  0.0556
 5205W        W21099   0.414   0.115   2.635  0.2240 -0.0431  0.0301
 5206W        W21100   8.796   7.690   1.557  0.0795  0.0547 -0.2796
 5207W        W21101  13.407  14.619   0.622 -0.0554  0.2071 -0.1381
 5208W        W21102  15.527   1.814  14.433  0.0443  0.0123 -0.1731
 5209W        W21103  13.474   1.835   2.501  0.0095 -0.1905 -0.1174
 5210W        W21104  11.910   3.371  15.493  0.1069 -0.2876  0.2045
 5211W        W21105   4.151   7.251   0.149 -0.0388  0.1686  0.2202
 5212W        W21106  14.872  16.254   4.518  0.0161 -0.6309 -0.0807
 5213W        W21107  16.073  18.225  14.057 -0.3853 -0.0537  0.1941
 5214W        W21108   2.075   5.561  13.681 -0.0797  0.0864  0.0429
 5215W        W21109   1.316  12.482   0.491 -0.0045 -0.0391 -0.0665
 5216W        W21110  11.610   2.660   1.439 -0.0696  0.0701  0.2284
 5217W        W21111   7.521   5.608   1.255  0.0876 -0.2117 -0.1709
 5218W        W21112  13.207   8.218  14.304  0.2626 -0.1460  0.0167
 5219W        W21113   8.239  11.039  13.685  0.1320 -0.3071 -0.2905
 5220W        W21114  11.857   9.903  11.967 -0.0046 -0.1344  0.3400
 5221W        W21115   8.946   7.018  15.894 -0.2126 -0.1101  0.0757
 5222W        W21116   2.551   7.978   1.690  0.2042 -0.1133  0.2510
 5223W        W21117   6.666   9.671   2.133  0.2709  0.1389 -0.2579
 5224W        W21118   8.485  14.302  15.950  0.0738  0.2441 -0.1630
 5225W        W21119   5.623  14.320  10.794  0.0267  0.0417 -0.0519
 5226W        W21120  12.793  14.757   4.762  0.2211  0.0416  0.4696
 5227W        W21121  10.744  13.523  11.279  0.2387 -0.1472  0.4263
 5228W        W21122   4.773   9.407   0.104  0.3326 -0.3418 -0.0537
 5229W        W21123   9.128   4.946   2.920  0.0107 -0.1458 -0.0422
 5230W        W21124  12.355  10.140  12.473  0.1260 -0.0538 -0.7173
 5231W        W21125   7.637   0.554   1.901  0.1095  0.0883  0.0654
 5232W        W21126   2.189   0.096  12.114  0.0706  0.0204  0.1224
 5233W        W21127  12.745  13.512  10.471  0.1122  0.2001 -0.4359
 5234W        W21128  17.349   3.630  11.975  0.0192  0.0051 -0.0789
 5235W        W21129   7.484  18.206  14.233  0.0544 -0.3028  0.0442
 5236W        W21130   4.756   9.147   4.245  0.0446  0.0940 -0.2911
 5237W        W21131  17.334  10.982   5.185  0.0846  0.0822 -0.0342
 5238W        W21132   2.266   7.512   1.095 -0.3679  0.1044 -0.0461
 5239W        W21133   1.418  11.098  13.424 -0.1280 -0.0630 -0.1798
 5240W        W21134   9.889  16.512  16.150  0.0590 -0.1211 -0.1926
 5241W        W21135   7.497  13.356   2.209  0.1401 -0.0199  0.2027
 5242W        W21136   0.469  12.974   4.614 -0.2167  0.1599 -0.2693
 5243W        W21137  11.505  10.546  16.040  0.1017 -0.0990 -0.2906
 5244W        W21138   6.773  15.740   5.502  0.1716 -0.0887 -0.0600
 5245W        W21139   3.216  10.973  14.392  0.0590  0.0042  0.2220
 5246W        W21140   2.629  14.406   1.082  0.1770  0.1253  0.2481
 5247W        W21141  18.340   5.742  12.723 -0.0471 -0.0655 -0.1828
 5248W        W21142   5.542   0.849   4.775  0.0685 -0.1939  0.0888
 5249W        W21143  10.144  14.618   3.713  0.0887  0.0040 -0.0053
 5250W        W21144   0.996  17.645   3.482  0.2885 -0.3266 -0.2066
 5251W        W21145  17.351   2.522   0.067  0.0847 -0.1028 -0.0857
 5252W        W21146   0.689  16.836  12.525 -0.0153  0.2962 -0.0072
 5253W        W21147  17.470   9.049  14.744  0.2538  0.0297 -0.3249
 5254W        W21148   6.714   3.466   0.922  0.0623  0.0534  0.1053
 5255W        W21149  12.680   6.495  14.450 -0.2361  0.1803  0.3386
 5256W        W21150   4.064   9.732  13.569 -0.0984 -0.0621 -0.1132
 5257W        W21151  17.364   1.720   3.354 -0.2425 -0.1210 -0.0241
 5258W        W21152  15.098  18.272   5.153 -0.3226 -0.2495  0.0144
 5259W        W21153  10.949  12.263  11.406 -0.0137 -0.2068 -0.1496
 5260W        W21154   7.796   7.536   1.211 -0.1483 -0.1162  0.0832
 5261W        W21155  17.893  13.947  11.969 -0.4695 -0.1351 -0.3106
 5262W        W21156   4.849  13.094   5.937  0.2408  0.0287  0.0609
 5263W        W21157   9.934   6.831   4.335 -0.1754 -0.4383 -0.1788
 5264W        W21158   6.354  17.709   3.267 -0.0265  0.0562  0.0106
 5265W        W21159  14.849  14.166  12.734  0.0028 -0.2894  0.1126
 5266W        W21160   5.013   2.121  14.636  0.0088 -0.1252 -0.1559
 5267W        W21161   7.838  17.478  11.126  0.0078  0.4254 -0.1338
 5268W        W21162  11.774   5.783  14.100  0.1773  0.0127 -0.2631
 5269W        W21163  13.854  13.030  12.747 -0.0638 -0.0135  0.0571
 5270W        W21164   7.455   9.822   4.993  0.1747  0.0979  0.2015
 5271W        W21165   3.689  15.101   1.891 -0.2386 -0.0530 -0.3142
 5272W        W21166   6.896   1.650   2.577  0.1074  0.1268  0.0818
 5273W        W21167   8.002   1.566   3.687  0.1237 -0.1571 -0.3175
 5274W        W21168  13.448   2.565   3.771  0.4942 -0.1080 -0.0239
 5275W        W21169   4.693  12.392  16.044  0.1506  0.0058 -0.1433
 5276W        W21170   5.569   5.302   0.400  0.1599 -0.1507  0.0280
 5277W        W21171   1.283  15.596  14.387  0.0162  0.1315 -0.2808
 5278W        W21172   9.809   3.883   3.908  0.3313  0.1143  0.2168
 5279W        W21173  17.886   5.829  12.465 -0.1348 -0.0706 -0.0091
 5280W        W21174  18.044  13.007   2.811  0.1333 -0.1587 -0.2561
 5281W        W21175  16.696   7.768   2.238  0.2608 -0.2319 -0.2504
 5282W        W21176   3.137   5.770   2.778 -0.2101  0.2658 -0.0206
 5283W        W21177   6.642   5.297  15.620  0.1421  0.1868 -0.3036
 5284W        W21178   5.212   8.424  11.467  0.0008 -0.0370 -0.0571
 5285W        W21179   2.595  17.430  15.692 -0.0821  0.2078 -0.0677
 5286W        W21180   3.663  16.098   2.756  0.1717 -0.2023  0.1816
 5287W        W21181   2.893  10.757  12.873  0.2797  0.2399  0.2092
 5288W        W21182   1.419   0.056  12.762  0.0006 -0.3169 -0.2521
 5289W        W21183   0.973   0.309  12.831  0.1012  0.1906 -0.3381
 5290W        W21184   9.180   0.330  16.060 -0.2471 -0.0105 -0.0307
 5291W        W21185   9.030  17.848  12.570  0.1066  0.1757 -0.1560
 5292W        W21186   5.936  15.406   3.161 -0.0348  0.2076  0.4225
 5293W        W21187   6.145  12.632   9.774 -0.1351  0.0667 -0.2551
 5294W        W21188  12.524  14.673  13.808 -0.0198 -0.3062 -0.0844
 5295W        W21189   3.203  16.108  14.035  0.0304  0.1107  0.0948
 5296W        W21190   2.690  14.258  14.549  0.0369  0.1590 -0.0688
 5297W        W21191   7.245   4.859  15.556  0.1817 -0.2641 -0.3475
 5298W        W21192  10.142   5.849   3.453  0.0974  0.2630  0.0411
 5299W        W21193   8.304   9.947   2.459 -0.2055 -0.2438 -0.1158
 5300W        W21194   0.333  16.564   1.534 -0.0270 -0.0648  0.1289
 5301W        W21195  11.489  13.036  13.022 -0.2188 -0.0759 -0.4221
 5302W        W21196   7.302  14.896  12.625  0.2928 -0.0388 -0.2302
 5303W        W21197  11.493  15.202   3.674  0.1749  0.4053 -0.1660
 5304W        W21198  10.632  18.162  12.335 -0.1551  0.1615 -0.0860
 5305W        W21199  14.952   6.048  15.584  0.2194  0.0323  0.2355
 5306W        W21200  12.067  16.571   3.626 -0.2485 -0.4133 -0.2340
 5307W        W21201  15.150   4.604   4.706 -0.0722  0.3284 -0.1693
 5308W        W21202  12.312   7.418   4.158 -0.0163 -0.0458  0.0718
 5309W        W21203   7.424   0.374  14.079  0.2660  0.3025  0.2022
 5310W        W21204   6.292  11.745   5.269  0.0075  0.0428 -0.2983
 5311W        W21205   6.246   2.218  13.248  0.1896  0.1772 -0.1633
 5312W        W21206  15.172   0.505   5.707  0.4019 -0.2493 -0.1062
 5313W        W21207   7.719  17.043  14.156 -0.0083  0.1312  0.1233
 5314W        W21208  10.801  13.356  13.709 -0.1933 -0.2119  0.1541
 5315W        W21209  14.651  17.438   3.738  0.2780 -0.0221 -0.0385
 5316W        W21210  14.670   8.675   0.262 -0.0259  0.4044  0.0663
 5317W        W21211   1.745   1.390   0.303  0.0862 -0.1026  0.2875
 5318W        W21212  18.165   1.498  14.268 -0.1684 -0.1576 -0.0630
 5319W        W21213   3.039  13.321   1.722 -0.1129  0.0579  0.0426
 5320W        W21214   8.066  14.983   1.640  0.2512  0.2116 -0.0622
 5321W        W21215  12.457  13.389   0.456 -0.0060  0.0814  0.1609
 5322W        W21216   4.310   4.818  12.526 -0.0420  0.3424  0.1456
 5323W        W21217  14.644  16.079  11.867  0.2111  0.1040 -0.1381
 5324W        W21218  13.685   4.554   2.364  0.0188 -0.0776 -0.0553
 5325W        W21219  11.402   1.924   1.004  0.2344 -0.1584 -0.0083
 5326W        W21220  10.104  10.485  14.995 -0.1491 -0.3091 -0.1643
 5327W        W21221  18.067   7.709  14.155 -0.1012 -0.1607  0.1904
 5328W        W21222   3.641  11.875  12.014 -0.0846  0.1250 -0.0425
 5329W        W21223  18.183  15.797  12.024  0.0409  0.0369 -0.0053
 5330W        W21224   2.388   4.916   4.202 -0.2539  0.0796  0.1552
 5331W        W21225  11.429  11.821   0.653  0.0509 -0.2212 -0.2150
 5332W        W21226   1.948   9.515  14.486 -0.0241  0.1460 -0.0693
 5333W        W21227  18.218  15.086  11.528 -0.0175  0.1918  0.0591
 5334W        W21228  15.273   0.740  11.766 -0.0623  0.2173  0.2198
 5335W        W21229   6.254   9.276  14.824 -0.1444 -0.0777 -0.0000
 5336W        W21230  14.154   2.733   2.421 -0.0892 -0.0940 -0.0397
 5337W        W21231   3.110   6.912  15.369 -0.0386  0.0971 -0.3085
 5338W        W21232  11.509  16.179   5.203 -0.4433 -0.1993 -0.0863
 5339W        W21233  12.032  11.249   0.647 -0.1940  0.1251  0.1636
 5340W        W21234   9.691   6.296  15.339 -0.1183 -0.1329 -0.0733
 5341W        W21235   0.649   9.865   2.828 -0.1281 -0.2699  0.1914
 5342W        W21236   5.918  11.487   1.001  0.0984  0.0272  0.0117
 5343W        W21237  11.188   0.876   3.515 -0.1834 -0.2409 -0.2755
 5344W        W21238  17.697   7.089  13.846 -0.3296  0.2771 -0.1147
 5345W        W21239  17.905   5.936   4.733  0.0955  0.0796  0.1635
 5346W        W21240   8.471   6.920  11.990  0.1215 -0.0329  0.0238
 5347W        W21241   6.186   9.861   4.288  0.3503  0.0891 -0.0620
 5348W        W21242   2.862  15.367   2.485  0.1948  0.5199 -0.3256
 5349W        W21243   7.020  13.632   2.211 -0.0961  0.1707 -0.2702
 5350W        W21244   6.056   6.591  13.384 -0.1160 -0.0161 -0.2818
 5351W        W21245  12.908   7.926   1.835 -0.2264 -0.1103 -0.1259
 5352W        W21246  13.320   6.551   5.292 -0.0840 -0.0624  0.1381
 5353W        W21247  17.822  13.910  14.016  0.1278  0.1996 -0.0035
 5354W        W21248  17.361  10.582   5.682 -0.2225 -0.1468 -0.1677
 5355W        W21249  11.437   3.500   1.693 -0.0625  0.2167  0.0461
 5356W        W21250   6.232   9.462   5.531  0.1321 -0.1773  0.1802
 5357W        W21251   1.972  15.331  16.027  0.1482  0.1006  0.1661
 5358W        W21252   8.827   0.970   1.592  0.0937  0.1156 -0.1430
 5359W        W21253   1.616   1.336  15.522  0.3084  0.2051  0.5399
 5360W        W21254   2.249   5.474  12.403  0.0704  0.2598  0.0174
 5361W        W21255   1.066   7.902  14.074 -0.0883 -0.0802  0.0030
 5362W        W21256  17.843  16.745   5.066 -0.1394 -0.1348  0.1644
 5363W        W21257  14.675   4.194  14.534  0.3352  0.0264 -0.1819
 5364W        W21258  15.146   5.724  12.886  0.3219 -0.1332  0.0992
 5365W        W21259   6.793  15.590  14.283 -0.1429 -0.0916  0.0350
 5366W        W21260   4.847  13.219  10.674 -0.0857  0.0023 -0.1803
 5367W        W21261  13.284  17.461  13.502 -0.2815  0.1688 -0.3501
 5368W        W21262   5.561  10.274  13.365 -0.0991 -0.1382  0.0192
 5369W        W21263  16.230  15.480  12.998  0.1123 -0.2276 -0.1173
 5370W        W21264   6.196  11.732  11.569 -0.1505  0.0751 -0.0106
 5371W        W21265  17.373   4.747  15.599  0.1583  0.4101 -0.0153
 5372W        W21266  10.918   5.949   4.589 -0.2147 -0.0504  0.0275
 5373W        W21267  15.804  12.777  12.251 -0.2331  0.1709  0.0293
 5374W        W21268   3.990   4.175  14.139 -0.2204 -0.0969  0.2518
 5375W        W21269  10.827  16.546  15.149 -0.3150 -0.0004  0.1826
 5376W        W21270  13.060   8.693   1.201 -0.0368  0.0160 -0.2790
 5377W        W21271  12.747  16.104  13.476  0.1077 -0.3860 -0.2037
 5378W        W21272   6.757  13.239   4.090 -0.4063  0.0648 -0.2279
 5379W        W21273   0.757   7.846  14.731  0.0089  0.2553 -0.0369
 5380W        W21274  16.834  10.469   0.110 -0.0660  0.0800  0.2788
 5381W        W21275   8.840   8.709   0.709 -0.0793 -0.4217 -0.0975
 5382W        W21276   4.801  17.022   2.519  0.0516 -0.1019 -0.1455
 5383W        W21277   9.650  16.203  13.079 -0.0934  0.0576 -0.2449
 5384W        W21278   3.421   1.940  13.834 -0.2050  0.2815  0.0815
 5385W        W21279   8.490   5.738  13.430  0.3225  0.2198  0.2392
 5386W        W21280   4.633  14.051   5.268  0.0824  0.0040 -0.2473
 5387W        W21281   9.567   7.079   5.077 -0.2010  0.1233  0.1839
 5388W        W21282   1.240   8.031  15.994  0.1472  0.2511 -0.2460
 5389W        W21283  11.664   2.356   4.967 -0.2129 -0.0337  0.4604
 5390W        W21284  14.307   4.026   1.757  0.2482  0.1010  0.1018
 5391W        W21285  13.613  13.591   3.541 -0.2438  0.1548  0.0736
 5392W        W21286  12.715   8.121  15.223 -0.0744 -0.1252  0.1810
 5393W        W21287  11.208   6.853  14.539  0.1395  0.2768  0.0914
 5394W        W21288  14.038  13.523   6.097  0.3028  0.2909 -0.1158
 5395W        W21289   8.200   8.769   3.518  0.0184 -0.2901  0.0907
 5396W        W21290   2.974   9.730   1.172  0.1659  0.1890 -0.2939
 5397W        W21291  15.295  15.338   4.482  0.1454  0.0046  0.3884
 5398W        W21292   2.825   1.183  14.849  0.0458 -0.0734  0.1608
 5399W        W21293   5.491  17.669  15.831  0.1697 -0.2856  0.1109
 5400W        W21294   9.727   2.605   0.918  0.0090 -0.0199 -0.2311
 5401W        W21295   8.609   7.841  12.115  0.2851  0.2599  0.0421
 5402W        W21296  17.421  18.169  15.853 -0.1761 -0.0903  0.1546
 5403W        W21297   4.016   6.129   5.640 -0.5804  0.2539  0.0070
 5404W        W21298  17.786  15.149  12.701 -0.4021  0.3474 -0.2453
 5405W        W21299  11.015  17.785  11.564 -0.2012 -0.0310  0.3716
 5406W        W21300   9.160   7.031   1.669 -0.2851 -0.1839  0.0038
 5407W        W21301   9.318  15.771  12.018  0.1214  0.1226  0.0852
 5408W        W21302  11.194  11.674   2.190 -0.0906 -0.0296 -0.0490
 5409W        W21303  14.721  11.938  14.156  0.2909  0.1175 -0.0069
 5410W        W21304   9.553  17.135   5.859 -0.3820  0.1717  0.0418
 5411W        W21305  13.534   7.055   0.558  0.1813  0.2643  0.1052
 5412W        W21306   8.555  14.768   0.076 -0.0491  0.2723  0.1861
 5413W        W21307   1.331  13.023   5.764 -0.3396  0.0384  0.0843
 5414W        W21308   7.869   2.408  14.348  0.1495 -0.3545  0.3157
 5415W        W21309   3.863  11.588  15.777 -0.0329  0.5170 -0.0739
 5416W        W21310   4.376  15.842   3.166 -0.0360  0.0011  0.1144
 5417W        W21311  14.861   8.386  11.791  0.3212  0.1562  0.0444
 5418W        W21312   4.466   0.525   4.846  0.0424 -0.0591  0.0597
 5419W        W21313  11.132  12.939   0.882  0.0325 -0.2164  0.2402
 5420W        W21314   2.998  12.823  15.674  0.0139 -0.2374 -0.0323
 5421W        W21315  11.899   8.367  14.605  0.1042 -0.0375 -0.2141
 5422W        W21316   8.853   4.232  14.568  0.1002  0.0301 -0.5979
 5423W        W21317   2.823  14.258  15.384  0.1096 -0.0013 -0.0855
 5424W        W21318   0.697   0.900  12.042 -0.0034 -0.2854  0.2473
 5425W        W21319  13.606   0.830   4.057  0.1222 -0.0278  0.1999
 5426W        W21320  15.338  17.048  12.327 -0.2631  0.1543  0.1081
 5427W        W21321  13.909  10.970  14.495  0.1319  0.0080 -0.0085
 5428W        W21322  14.709  15.484   5.707  0.1585  0.2471 -0.1666
 5429W        W21323   1.949  14.194   4.089 -0.2194  0.1732 -0.0729
 5430W        W21324  17.139  10.275  13.252 -0.1136  0.2486 -0.0054
 5431W        W21325  13.650   2.658  13.920 -0.2426 -0.6136  0.0117
 5432W        W21326  14.421   8.163   0.139 -0.2036 -0.1055  0.2053
 5433W        W21327   2.255  10.451   1.976  0.0493  0.0986  0.2236
 5434W        W21328  14.333   5.168   5.092 -0.2009 -0.3162 -0.2095
 5435W        W21329  13.097   7.047  11.644 -0.2789 -0.0614  0.3946
 5436W        W21330  11.321   0.026   4.444 -0.1310  0.3610  0.3004
 5437W        W21331  16.838  12.433   1.384 -0.2122 -0.1525 -0.0795
 5438W        W21332   3.538  12.079   4.058 -0.0851 -0.0251 -0.1384
 5439W        W21333   3.846  10.235  15.442  0.0305  0.0118  0.1282
 5440W        W21334   4.849  16.030   1.964  0.0784  0.0471 -0.1709
 5441W        W21335   7.656   9.822  13.115  0.1199 -0.2916 -0.1195
 5442W        W21336  11.133   9.174  11.951 -0.1716  0.0773 -0.1076
 5443W        W21337   2.057  14.636   2.429  0.0823  0.1436  0.0484
 5444W        W21338   6.175   6.465   3.783 -0.2204 -0.1368 -0.1741
 5445W        W21339  15.116  17.239  15.148 -0.0476  0.3139 -0.1091
 5446W        W21340   6.840  10.642  11.315 -0.1327 -0.1351  0.1521
 5447W        W21341   0.865   4.289  15.675  0.1570 -0.1882 -0.0534
 5448W        W21342  15.410   2.194  13.443  0.1036 -0.2535  0.2735
 5449W        W21343   2.830  16.070  13.194 -0.0168 -0.1635 -0.3269
 5450W        W21344   2.622  17.499  13.911  0.0550  0.1847  0.0470
 5451W        W21345   0.460   0.055   1.961 -0.0811  0.1114  0.0470
 5452W        W21346   9.722   7.593   4.327 -0.0067  0.2369  0.3303
 5453W        W21347  15.190   8.992   1.585  0.0991  0.2371  0.0172
 5454W        W21348   7.610  14.243  13.314 -0.0493  0.0419 -0.2513
 5455W        W21349  15.562  11.279   5.177 -0.3478  0.2113  0.0913
 5456W        W21350   4.290  16.851   1.246  0.1204  0.1441  0.2400
 5457W        W21351   7.012  10.378   0.349 -0.3060  0.0661  0.2213
 5458W        W21352   6.224   5.888  13.784 -0.2560  0.3611 -0.2613
 5459W        W21353   2.617  12.446  12.616  0.1361 -0.4409  0.0008
 5460W        W21354   6.029  17.741  15.716  0.2047  0.4882 -0.1287
 5461W        W21355  13.763  11.818  13.892  0.1299  0.0725 -0.1445
 5462W        W21356   1.518  16.086  15.517  0.2244 -0.1899 -0.1999
 5463W        W21357   2.995  17.795  14.672 -0.4555  0.1595 -0.0470
 5464W        W21358  17.499  12.148   4.507  0.0845  0.2933 -0.1669
 5465W        W21359   2.081  10.777  16.076  0.0811  0.1083  0.0952
 5466W        W21360  10.915  13.831  10.568 -0.1935 -0.0476  0.0682
 5467W        W21361   4.954   2.651  15.560 -0.0744  0.1210  0.1046
 5468W        W21362  16.420  11.108  15.071  0.0837 -0.1792 -0.2699
 5469W        W21363   5.421   6.544  15.467  0.0994 -0.1422 -0.1957
 5470W        W21364  15.180   0.683   1.237 -0.1485  0.1804  0.2970
 5471W        W21365  15.616   9.623  11.515  0.1876 -0.0544  0.5083
 5472W        W21366   6.502   8.458   4.439 -0.1344 -0.2292  0.0852
 5473W        W21367   9.481  17.080  14.414 -0.0640 -0.1469  0.0633
 5474W        W21368   7.169   9.732  14.385  0.0773  0.1637 -0.0538
 5475W        W21369   2.878   1.757   3.889  0.0440  0.2841 -0.0838
 5476W        W21370   8.099   7.052   1.178  0.2605 -0.1335  0.1282
 5477W        W21371  15.890  17.077   2.773  0.0800  0.0032  0.1137
 5478W        W21372  17.992  16.091  10.162  0.0397  0.1237 -0.1589
 5479W        W21373  15.242   7.668   4.018  0.0312 -0.5140 -0.0333
 5480W        W21374   0.540  10.299   2.425 -0.0685  0.3577 -0.0452
 5481W        W21375   5.277  11.571   5.030 -0.2317  0.0831 -0.3340
 5482W        W21376  15.213  15.651   5.849  0.0118  0.0581  0.0224
 5483W        W21377   2.401  16.547   5.117 -0.0270 -0.2116 -0.0192
 5484W        W21378   2.697   7.631  13.289  0.3042 -0.1799 -0.1744
 5485W        W21379   7.289  10.651  14.612  0.2478 -0.1216  0.0015
 5486W        W21380   5.062   9.547   6.327 -0.1957 -0.1331 -0.3332
 5487W        W21381  12.043  18.316   3.579 -0.0122  0.0770 -0.2408
 5488W        W21382   7.402   7.039   0.343  0.3226  0.2323 -0.0304
 5489W        W21383  15.261   7.187  12.374  0.2526 -0.0217 -0.4470
 5490W        W21384   8.649   5.100  12.407 -0.4196 -0.1677 -0.1593
 5491W        W21385  18.293  18.085   4.469 -0.1982  0.1093 -0.2954
 5492W        W21386  10.190   7.725   0.794  0.2038 -0.1075  0.0604
 5493W        W21387   5.268   0.153   4.135 -0.0619  0.1619  0.1115
 5494W        W21388   7.588   2.205  15.337 -0.0410  0.0748 -0.0530
 5495W        W21389  15.476  13.041  13.190 -0.2440 -0.1452  0.0966
 5496W        W21390  14.804   1.507  11.906 -0.2050 -0.1442 -0.1595
 5497W        W21391  13.491   9.720  11.853  0.1597 -0.0125 -0.0281
 5498W        W21392   7.670   4.029   5.543 -0.2572 -0.0300  0.1666
 5499W        W21393  14.179  15.621  14.271 -0.4719 -0.0502 -0.1157
 5500W        W21394  12.861  12.631  11.213 -0.0559  0.2268  0.0205
 5501W        W21395   7.263   0.914   3.757  0.0108  0.0960 -0.0393
 5502W        W21396  15.191   5.312   2.372  0.1011  0.5089 -0.1444
 5503W        W21397  16.420   2.862  12.513 -0.0474 -0.2104  0.0450
 5504W        W21398   6.349  10.320   3.725 -0.3485 -0.0814 -0.4389
 5505W        W21399  10.610  18.270   3.186 -0.0644 -0.1201  0.0032
 5506W        W21400   9.874   4.337   3.207 -0.1658  0.0376  0.2015
 5507W        W21401   3.833  14.728   3.265 -0.5260 -0.3417  0.0688
 5508W        W21402   9.025  14.857   1.545  0.0325 -0.0201 -0.1378
 5509W        W21403   5.251  11.735   4.455  0.0641 -0.0155 -0.0658
 5510W        W21404  14.872  12.611   2.110  0.2056 -0.1690 -0.2504
 5511W        W21405   5.933  11.713  11.089  0.2484 -0.2300 -0.2394
 5512W        W21406  11.256   0.447  15.722 -0.2715  0.1964  0.1622
 5513W        W21407   1.334   3.143   0.003 -0.2153  0.1851  0.0134
 5514W        W21408  14.428  12.264   0.118  0.1114  0.2331  0.0433
 5515W        W21409  16.600  15.064  13.759 -0.1699  0.0693 -0.0553
 5516W        W21410  14.461   6.904  12.888  0.1170 -0.1236  0.1631
 5517W        W21411   3.570  10.723   1.435  0.2026  0.3535 -0.3427
 5518W        W21412   9.072  12.357  11.567 -0.2110 -0.4088 -0.4586
 5519W        W21413   8.422  11.698  14.379 -0.0636 -0.0484  0.1283
 5520W        W21414   0.385  18.054  14.036  0.0632  0.0634  0.0348
 5521W        W21415   5.390  17.308   3.291  0.4017  0.1256 -0.3423
 5522W        W21416   5.288   8.281   5.465  0.2481 -0.2471  0.0662
 5523W        W21417   3.135  17.893  11.228 -0.0809 -0.0294  0.1854
 5524W        W21418   5.970   5.573   2.087  0.1376  0.0028  0.0932
 5525W        W21419   6.041   8.442   0.097 -0.0259  0.0473 -0.1063
 5526W        W21420   7.805  11.579   4.890  0.1482  0.2729 -0.1408
 5527W        W21421  14.938  17.915  13.094  0.2826 -0.1701 -0.0724
 5528W        W21422   3.053   3.936   3.619  0.0092  0.3403 -0.0515
 5529W        W21423   7.203  10.607  15.147 -0.0741 -0.0358 -0.0847
 5530W        W21424   3.840   9.126  11.280 -0.0046  0.0779  0.2465
 5531W        W21425   9.024  15.315   2.858  0.0609 -0.0242 -0.2924
 5532W        W21426   0.986  13.671   0.310  0.0085  0.0192  0.0442
 5533W        W21427  15.520   8.538  12.141 -0.0478  0.2228  0.0569
 5534W        W21428  17.770   1.241   0.995  0.3933 -0.0099  0.3464
 5535W        W21429  15.798   7.979  12.217 -0.0656  0.0309 -0.0272
 5536W        W21430  13.224   3.864   0.700 -0.1888 -0.1197  0.0125
 5537W        W21431   3.672  18.300   5.764  0.0158  0.1274  0.3393
 5538W        W21432   8.953  11.162  15.502 -0.0386  0.2892 -0.0408
 5539W        W21433   8.719   9.873   4.533 -0.0038 -0.0757  0.0012
 5540W        W21434   1.330   9.346   0.501  0.1867  0.3774 -0.1925
 5541W        W21435  15.614  14.238  12.820 -0.1375 -0.1613 -0.1208
 5542W        W21436  17.222   6.414  13.526 -0.0157  0.2230  0.0764
 5543W        W21437  12.344   1.197   4.584  0.1356 -0.0050  0.0974
 5544W        W21438  10.541   4.187   0.425 -0.2253 -0.1677  0.0020
 5545W        W21439   7.222  14.530  13.467 -0.3752  0.4626 -0.0256
 5546W        W21440   2.094   3.011   0.002 -0.1981  0.0508 -0.0869
 5547W        W21441   4.397   7.591  12.901  0.1089 -0.2783 -0.1728
 5548W        W21442  16.877   3.958   3.174 -0.2219 -0.0170 -0.0447
 5549W        W21443   7.525  14.775   0.154  0.1633  0.1757  0.0931
 5550W        W21444   6.884  17.776   4.766 -0.1179 -0.1074  0.1778
 5551W        W21445   9.933   2.392   3.139  0.0517  0.1301  0.0678
 5552W        W21446   9.909   8.397   1.430  0.2216  0.0751 -0.2757
 5553W        W21447  10.060  14.113   3.716 -0.0943  0.0633  0.2515
 5554W        W21448   3.716  13.989  14.357  0.0071 -0.0571 -0.2306
 5555W        W21449  16.800  17.288  15.547 -0.0455  0.2189 -0.0055
 5556W        W21450  15.494  18.329  11.700  0.1258 -0.2952 -0.3851
 5557W        W21451  14.971  16.223  12.792 -0.0434  0.1529 -0.1753
 5558W        W21452  12.202  13.611  14.955 -0.1263 -0.5338  0.0880
 5559W        W21453   7.959  16.658   0.689 -0.0298 -0.1297  0.2416
 5560W        W21454  16.400   0.634  14.272  0.1468 -0.0730 -0.2834
 5561W        W21455  17.850  13.028  12.747 -0.2687  0.2876 -0.0511
 5562W        W21456  11.734   4.090   5.089 -0.0390  0.1231 -0.0252
 5563W        W21457  14.705  11.272  13.864  0.2736  0.4437  0.4034
 5564W        W21458  12.922  14.846  15.185 -0.1967  0.0805  0.0451
 5565W        W21459   5.371   6.994  10.697 -0.0341 -0.3309  0.3226
 5566W        W21460   7.941  15.747  12.300  0.3583 -0.0758 -0.3045
 5567W        W21461   0.746   0.179   5.498  0.1462 -0.2821 -0.2859
 5568W        W21462  14.071   6.894   0.499 -0.4124 -0.0041 -0.1673
 5569W        W21463  11.203  11.877   4.108  0.2591 -0.0358 -0.0278
 5570W        W21464   8.632   2.620  12.581  0.2571 -0.0108  0.0028
 5571W        W21465  12.198  11.884  11.400  0.1383 -0.1285  0.0350
 5572W        W21466   8.719   0.003   1.453 -0.0835  0.1770  0.0325
 5573W        W21467  10.190   2.756   2.234  0.0551  0.0421  0.0861
 5574W        W21468   0.280  13.731   4.815  0.1298  0.0239  0.5358
 5575W        W21469   6.763  12.442   2.646 -0.1832  0.0620  0.0642
 5576W        W21470  12.575   9.724  11.529  0.1691 -0.0642 -0.1635
 5577W        W21471  12.826   8.460   3.464  0.2385 -0.0239  0.2297
 5578W        W21472  13.779  16.044  11.402 -0.1029 -0.0341 -0.0122
 5579W        W21473  13.227   4.706  11.927 -0.2535  0.0623 -0.0936
 5580W        W21474   7.807   3.625   1.054  0.0089 -0.1305 -0.1165
 5581W        W21475  14.660   3.195   2.605 -0.0544 -0.0419  0.1995
 5582W        W21476  11.617  15.164  15.643 -0.0071  0.0460 -0.2415
 5583W        W21477   8.442  16.006  14.571 -0.4917  0.3554 -0.2281
 5584W        W21478  18.100   8.287  14.471 -0.0861  0.0010 -0.1155
 5585W        W21479   7.390   3.171   3.894 -0.2100  0.0359 -0.1200
 5586W        W21480   9.061   0.457   1.697 -0.0348 -0.0213  0.0356
 5587W        W21481  11.263   0.732   0.004  0.0100 -0.0196  0.0782
 5588W        W21482  11.359   1.260  14.362  0.4540 -0.0202  0.0489
 5589W        W21483   5.479   4.625  15.794 -0.0481 -0.2535  0.1568
 5590W        W21484  17.394   1.636  11.874  0.1175 -0.0218  0.0910
 5591W        W21485   5.016   2.944  13.682 -0.1936  0.1269 -0.1597
 5592W        W21486  16.397   3.752   5.075 -0.1502  0.1481  0.3602
 5593W        W21487  10.246   7.446   2.304  0.1691 -0.0805 -0.0527
 5594W        W21488  16.254  14.290  10.379  0.2857  0.2121  0.0322
 5595W        W21489   3.203  17.550   0.819  0.2024  0.0688 -0.0310
 5596W        W21490  15.196   6.891   4.470 -0.0990 -0.1271 -0.0424
 5597W        W21491  12.636   6.587  15.274  0.1258 -0.0098 -0.0163
 5598W        W21492   0.581   4.844   4.905  0.2147  0.0897 -0.1675
 5599W        W21493  18.322  11.281  14.370  0.2305  0.0285  0.1144
 5600W        W21494   6.103  11.972   5.629 -0.1848 -0.1659 -0.0288
 5601W        W21495  16.593   5.117   5.222  0.0275  0.2304  0.0904
 5602W        W21496  16.981  16.549   0.178 -0.1325 -0.1093  0.1027
 5603W        W21497  13.787  13.269  11.037 -0.0590  0.1148  0.0288
 5604W        W21498   4.548  16.945  11.275 -0.0667 -0.1514 -0.1799
 5605W        W21499   3.580  14.651  14.698 -0.3130 -0.0634  0.3888
 5606W        W21500  16.153  11.251   3.701  0.0361  0.1912 -0.1053
 5607W        W21501   0.814   2.158   1.139 -0.2500 -0.0089 -0.0116
 5608W        W21502   9.977   5.918  15.516 -0.2354  0.1212  0.1631
 5609W        W21503  17.594   3.223  12.088  0.1595 -0.1894  0.1538
 5610W        W21504  15.793   8.826   3.645  0.2130  0.1527 -0.1886
 5611W        W21505  10.182  17.178  12.859 -0.1222  0.3548  0.0250
 5612W        W21506   3.705   0.753  12.598 -0.1258  0.1188 -0.4037
 5613W        W21507  10.730   6.653   1.483  0.2930 -0.0679 -0.0950
 5614W        W21508   3.140   6.547   5.547  0.0727 -0.4229 -0.0060
 5615W        W21509   5.374   0.567   0.028  0.0053  0.0570 -0.1611
 5616W        W21510  10.259  18.190  15.098  0.2250 -0.3610  0.2035
 5617W        W21511  18.431   7.386  12.853  0.0336 -0.1557 -0.0550
 5618W        W21512   9.252  17.688   5.249  0.3758 -0.1512 -0.3053
 5619W        W21513   1.928   6.301  15.768  0.1810 -0.2066  0.5084
 5620W        W21514  10.455  17.021  15.917 -0.3460 -0.1627  0.0312
 5621W        W21515   6.517  18.314   4.114  0.2927  0.0866 -0.0246
 5622W        W21516  17.937   5.991   1.100  0.0360 -0.0619 -0.1907
 5623W        W21517  16.277   1.625  12.485 -0.0982  0.0944  0.1422
 5624W        W21518   0.658  10.647   5.316 -0.0843 -0.0663 -0.0268
 5625W        W21519   8.691  15.171  13.917 -0.1866  0.1458  0.0534
 5626W        W21520   5.791   7.651   2.389  0.1346  0.0187 -0.2375
 5627W        W21521   4.767  12.111  14.623  0.1062 -0.0694  0.0368
 5628W        W21522   5.547   2.086   1.513 -0.2144 -0.2149  0.1014
 5629W        W21523   2.671   9.899   3.983  0.0429  0.3707  0.1956
 5630W        W21524  12.658   3.836  14.385 -0.0995 -0.0252 -0.2771
 5631W        W21525   2.857   8.554   4.611  0.1978  0.0247  0.1540
 5632W        W21526   8.260   9.604  11.942  0.0301  0.2125 -0.2588
 5633W        W21527   8.950  13.057  12.318 -0.0261 -0.1140 -0.0321
 5634W        W21528   1.299   2.650   1.785 -0.0390 -0.1073  0.0004
 5635W        W21529  16.484   8.881   1.632  0.2772 -0.3147 -0.1510
 5636W        W21530   4.407  12.287   1.939  0.0281 -0.0484 -0.1068
 5637W        W21531   2.601   3.220  13.163  0.1841  0.0889  0.1258
 5638W        W21532  12.015   4.716   2.308  0.1846  0.0776  0.0126
 5639W        W21533   6.812   6.494  10.380 -0.0123 -0.2385  0.0460
 5640W        W21534  13.776   6.448   5.501  0.1288 -0.1151 -0.4092
 5641W        W21535  11.718  17.099  15.452  0.0835 -0.1456 -0.1029
 5642W        W21536   5.349   4.429  14.584  0.0863  0.3463  0.1971
 5643W        W21537   4.251   1.638  14.039 -0.3972  0.1119  0.1867
 5644W        W21538   0.706   5.893   5.608  0.2697 -0.0078 -0.0864
 5645W        W21539  17.497   0.244  15.948 -0.0383  0.0193  0.2809
 5646W        W21540  13.385   8.469   4.558 -0.0063  0.0389 -0.4191
 5647W        W21541  10.851  15.321   4.508  0.0584 -0.2028  0.1460
 5648W        W21542   4.492  11.472   2.420 -0.1381  0.0063 -0.3867
 5649W        W21543   0.851   3.539   4.400 -0.1602  0.0402  0.0471
 5650W        W21544   9.034   3.826   3.177 -0.1015  0.2067 -0.0495
 5651W        W21545  10.673  12.072   2.306 -0.2309 -0.0311  0.2691
 5652W        W21546   7.120  17.744   2.001 -0.1388  0.0442  0.0051
 5653W        W21547   2.916   3.729  11.533  0.0162 -0.2110  0.0650
 5654W        W21548  14.510  11.178  10.789 -0.0397  0.1122  0.2854
 5655W        W21549   7.232   2.560  15.243  0.2164 -0.0091  0.3314
 5656W        W21550   1.104  16.383   2.930 -0.1166 -0.0241 -0.1249
 5657W        W21551  12.243   7.298   2.089  0.1713 -0.4326 -0.0893
 5658W        W21552  14.870   4.328  15.580  0.0185  0.1747  0.0823
 5659W        W21553   7.205  17.797   2.922 -0.0592  0.2668 -0.2824
 5660W        W21554  17.817  10.048  15.005 -0.2122 -0.2003  0.0829
 5661W        W21555   9.273  12.040  11.172 -0.1616  0.4171  0.2235
 5662W        W21556   6.632   6.782   3.679 -0.0720  0.2278 -0.2451
 5663W        W21557  11.252  11.013   0.211  0.1777 -0.1204 -0.4995
 5664W        W21558  12.891   1.594   3.995 -0.2141 -0.1429  0.0127
 5665W        W21559   3.872   1.591   1.643 -0.2058  0.3168 -0.0318
 5666W        W21560   0.257   3.736  12.900 -0.0782 -0.0209 -0.2361
 5667W        W21561  17.918  12.180   4.932  0.0479 -0.2837 -0.0911
 5668W        W21562  14.620   0.696   1.025  0.0979  0.2237 -0.1142
 5669W        W21563  16.837   5.554  14.949 -0.1432 -0.1625 -0.1948
 5670W        W21564   1.819  18.396  11.824  0.0138 -0.0481 -0.3817
 5671W        W21565   5.552   9.254   0.354  0.2338 -0.0492  0.0912
 5672W        W21566   7.066  18.438  13.448  0.0960 -0.0859  0.0559
 5673W        W21567   4.376   7.774   4.321 -0.2716  0.0758 -0.4857
 5674W        W21568   5.437  18.183   0.399 -0.0023 -0.1244  0.0521
 5675W        W21569  11.594  18.394   2.863  0.3924  0.1211 -0.2927
 5676W        W21570  17.277  11.799   4.107 -0.2779  0.1844 -0.0381
 5677W        W21571   5.876  10.567   2.784 -0.0678 -0.0320 -0.1235
 5678W        W21572  10.048   2.115   0.125  0.2554  0.3039  0.2641
 5679W        W21573  10.748   0.506  11.702 -0.0271  0.1018  0.4008
 5680W        W21574  16.224  10.148   2.910 -0.0478  0.1351  0.1493
 5681W        W21575   7.300   4.343   5.440 -0.0159  0.0255 -0.0516
 5682W        W21576   0.712  14.536  15.111  0.3667 -0.1613  0.1419
 5683W        W21577  12.350   8.852  13.770  0.1373  0.2024  0.4462
 5684W        W21578   2.297  15.542  12.877  0.0801 -0.1899  0.2211
 5685W        W21579  11.886  10.807  12.065  0.0485 -0.1996  0.0233
 5686W        W21580  11.973   6.467   2.611  0.1204 -0.0791 -0.1653
 5687W        W21581  17.035  10.689  10.655  0.0650  0.0259  0.1005
 5688W        W21582   3.915   7.523   2.617  0.3133 -0.0159 -0.3930
 5689W        W21583   4.165  18.065  10.834 -0.0865 -0.1802 -0.1814
 5690W        W21584   0.134  10.381   1.972 -0.0638  0.2047 -0.0183
 5691W        W21585   4.619   7.588  10.489 -0.2251 -0.0921  0.1217
 5692W        W21586  10.511   6.742   5.080 -0.0809  0.0180  0.1074
 5693W        W21587   6.327   3.701  14.339  0.0038  0.0228 -0.0986
 5694W        W21588  11.705   2.898   4.284  0.3049 -0.0265 -0.0925
 5695W        W21589  12.878  17.816   0.550 -0.3737  0.1135  0.0630
 5696W        W21590  14.161   0.351   2.586 -0.1839  0.0741 -0.0363
 5697W        W21591  18.215   8.726   0.988 -0.2061 -0.0710 -0.4813
 5698W        W21592  15.341   7.682   2.427 -0.0573  0.0669 -0.3933
 5699W        W21593   5.939  11.832   0.169 -0.0548 -0.1353 -0.0065
 5700W        W21594   6.703  12.932  14.765  0.1094 -0.0140 -0.0769
 5701W        W21595  11.889   2.162  14.237 -0.1811 -0.4437  0.0772
 5702W        W21596  11.241   0.363  12.448 -0.0207  0.0389 -0.2406
 5703W        W21597   0.617  14.198   1.415 -0.2490 -0.3768 -0.0765
 5704W        W21598   6.855   3.536   4.492  0.0796 -0.1843 -0.0213
 5705W        W21599  15.760   1.273   2.906  0.3355 -0.1414  0.1217
 5706W        W21600   8.094  14.281  13.211 -0.1331 -0.0001  0.1014
 5707W        W21601   0.654   4.419   5.105 -0.3276  0.0096  0.1448
 5708W        W21602  12.121  17.714   1.118  0.2992  0.1135  0.1176
 5709W        W21603   1.681   2.155   4.275 -0.0709 -0.0317 -0.3534
 5710W        W21604  16.530  17.101   0.596 -0.0245 -0.3726 -0.3587
 5711W        W21605   6.406  10.793  12.187 -0.1699  0.1128  0.2365
 5712W        W21606   9.949   9.497  15.057  0.0821 -0.2338  0.1208
 5713W        W21607  17.883   1.939  14.671 -0.1927 -0.0887 -0.0183
 5714W        W21608   0.276  10.874   2.603  0.3457 -0.1027 -0.2904
 5715W        W21609  12.230  15.940   4.794 -0.0451 -0.0489  0.1045
 5716W        W21610   4.974   8.801  15.451 -0.1097  0.0228 -0.2818
 5717W        W21611   5.704   7.292  12.270  0.4041 -0.0905  0.1721
 5718W        W21612  10.195  14.209  15.873  0.1231  0.0147  0.2038
 5719W        W21613   2.502  10.505   5.348  0.2228 -0.1636  0.0907
 5720W        W21614   5.452   9.999   5.692 -0.0634  0.0968 -0.2529
 5721W        W21615   9.774  18.054  15.378 -0.0823  0.1529  0.0977
 5722W        W21616  15.008   8.937  14.061  0.1305  0.0309 -0.0620
 5723W        W21617  18.440  17.130   4.429 -0.0364 -0.1158  0.1905
 5724W        W21618  16.679   6.494  16.130 -0.2446  0.0427 -0.3062
 5725W        W21619   4.771   5.428   0.573  0.1345 -0.1039  0.2236
 5726W        W21620   1.573  10.749  13.781 -0.0401  0.5965 -0.2377
 5727W        W21621  16.961   0.527   3.644  0.0707  0.4099 -0.2124
 5728W        W21622   4.961   1.496   2.387 -0.3383 -0.2892 -0.0523
 5729W        W21623   4.696   0.327  13.907 -0.2117 -0.1939 -0.0235
 5730W        W21624  12.072  14.809  11.125  0.1130  0.4144  0.1009
 5731W        W21625   4.418   0.471   2.093 -0.0578  0.3372  0.0574
 5732W        W21626   0.733  16.726   4.435  0.0454 -0.0060  0.0275
 5733W        W21627  17.940   8.397  15.364  0.0091  0.0571  0.0080
 5734W        W21628   5.414  17.095  11.615 -0.2012 -0.2663  0.1126
 5735W        W21629  17.105  14.824   0.762 -0.2348  0.1442 -0.1500
 5736W        W21630  15.855  11.185   2.161 -0.0146 -0.3318  0.2904
 5737W        W21631  17.720   9.835  12.006  0.0484  0.1013 -0.0396
 5738W        W21632   2.025   8.143  14.458 -0.4005  0.3004 -0.0434
 5739W        W21633   2.147   1.946   4.540  0.0176  0.0100  0.0664
 5740W        W21634   8.240   7.469  11.924 -0.0214  0.0428 -0.0804
 5741W        W21635  13.997  15.771  12.148 -0.0694  0.0363 -0.1394
 5742W        W21636  18.160  14.699   1.572  0.2174 -0.1105  0.2215
 5743W        W21637  18.423   2.480  14.097  0.2189 -0.0185  0.1159
 5744W        W21638  10.637   1.689  15.142 -0.0743  0.0982 -0.2748
 5745W        W21639   8.665   9.852  11.168  0.0656 -0.1886 -0.1677
 5746W        W21640  14.407   6.225   5.407  0.4266 -0.0823 -0.2718
 5747W        W21641  10.194  16.172  15.806 -0.3135  0.0413  0.1925
 5748W        W21642  11.252   1.774  12.204 -0.2639 -0.1890 -0.0259
 5749W        W21643   7.864   1.366  12.191 -0.1407  0.1349  0.2401
 5750W        W21644  14.208  12.907  11.011 -0.2282 -0.0018 -0.1188
 5751W        W21645   8.355   9.636  13.259 -0.1739 -0.5978  0.1618
 5752W        W21646  12.057  11.356   4.880 -0.2653 -0.0680 -0.2317
 5753W        W21647  17.018   7.519  11.780 -0.0542  0.3977 -0.0097
 5754W        W21648  11.215  16.982   2.476 -0.4357  0.1948  0.0131
 5755W        W21649   3.739  17.271   0.215  0.2017  0.1979  0.2152
 5756W        W21650  11.438   9.610  12.083  0.1652  0.1502  0.1759
 5757W        W21651  11.442   4.085   2.691  0.1965  0.2965  0.0518
 5758W        W21652   3.304  17.100  14.402  0.1920 -0.0134 -0.1963
 5759W        W21653   2.641   9.657   0.351  0.2632 -0.1438 -0.1078
 5760W        W21654   9.513   3.379   4.836  0.0835  0.1125  0.0108
 5761W        W21655   9.696  18.343  14.872  0.2000 -0.0957 -0.1653
 5762W        W21656   3.336  12.755   3.538  0.1568 -0.2016  0.1028
 5763W        W21657  10.081  14.377   2.706 -0.3901 -0.2264  0.2338
 5764W        W21658   9.068   0.896   2.242  0.3661  0.0908 -0.0721
 5765W        W21659   7.874   6.361   3.299  0.0374 -0.2497  0.0331
 5766W        W21660  11.942  17.554  14.592  0.0433  0.0172 -0.2204
 5767W        W21661   3.782   3.587   0.072  0.1868 -0.0254 -0.1180
 5768W        W21662   6.915   4.823  13.279 -0.2032 -0.1485  0.0676
 5769W        W21663   0.929   5.807  15.516 -0.1631  0.2828  0.3455
 5770W        W21664  16.804   4.140  14.702  0.0460 -0.1535  0.2220
 5771W        W21665   4.647  10.734   4.579  0.0707  0.1860 -0.1534
 5772W        W21666  16.120   3.820   2.720  0.0388 -0.0537  0.0686
 5773W        W21667   0.095   5.318   5.609 -0.2067 -0.2933 -0.1366
 5774W        W21668  18.034   4.316   3.503 -0.0486 -0.0377  0.1076
 5775W        W21669   4.751   7.395   0.349 -0.2338 -0.1538 -0.3071
 5776W        W21670  17.752  14.501  11.982  0.1854 -0.0612 -0.3716
 5777W        W21671   0.265   1.405   3.433 -0.0086  0.1937 -0.4719
 5778W        W21672  10.588  15.267   4.929 -0.1299 -0.0869  0.4087
 5779W        W21673  12.293   1.815  14.305  0.0793  0.1573 -0.0830
 5780W        W21674   6.573  10.609  13.066  0.1378 -0.1689 -0.0654
 5781W        W21675  18.448  12.810  11.489 -0.4369  0.3415  0.1014
 5782W        W21676  13.726  15.102  11.786  0.2074 -0.2457 -0.0864
 5783W        W21677   7.937   0.361  15.489 -0.0356 -0.0581 -0.3098
 5784W        W21678   0.774  16.370   5.222 -0.0375  0.0478  0.1074
 5785W        W21679   5.985   0.080   2.377 -0.2632 -0.3006 -0.0187
 5786W        W21680   7.603   6.253   0.291 -0.0771 -0.1232  0.0901
 5787W        W21681   1.320   1.727   4.306 -0.2416 -0.1321 -0.0462
 5788W        W21682   3.561  16.238   1.506 -0.0208 -0.2164 -0.0349
 5789W        W21683   9.540   6.756   3.046 -0.1718  0.5245 -0.1214
 5790W        W21684  11.215   9.406   3.216  0.2184 -0.2185  0.1060
 5791W        W21685   9.277   1.795   2.838  0.1861 -0.2185 -0.1659
 5792W        W21686  11.714   0.398   4.270  0.1184  0.3027  0.4156
 5793W        W21687   7.460  10.731   2.656 -0.0011 -0.1061  0.0282
 5794W        W21688   3.520  11.286  11.406 -0.2046 -0.1688  0.0728
 5795W        W21689   8.214  15.000  14.823 -0.0514 -0.0822 -0.0154
 5796W        W21690   7.694  11.292  11.466 -0.1371 -0.3642  0.0296
 5797W        W21691  12.041   3.697   3.435  0.1127  0.0854  0.4676
 5798W        W21692   7.919   7.574  15.889 -0.0229 -0.0052 -0.2728
 5799W        W21693  17.182   3.133   2.804 -0.1562  0.0452 -0.0796
 5800W        W21694  12.011   2.388  13.657 -0.1319 -0.2735  0.1064
 5801W        W21695  14.887  16.516  12.005  0.1196  0.0829 -0.0124
 5802W        W21696  11.811  17.259   5.490 -0.1972 -0.1812  0.1957
 5803W        W21697  16.687   2.065  14.586  0.2444 -0.0071  0.0117
 5804W        W21698   2.351   9.093   5.235  0.3101 -0.1868 -0.2200
 5805W        W21699  15.017   3.913   5.392 -0.1076  0.0721  0.0961
 5806W        W21700  17.565  10.966  15.680  0.0228 -0.0095 -0.4663
 5807W        W21701  11.049   3.496   4.815  0.1539  0.0224 -0.1712
 5808W        W21702  12.945   6.391  14.974 -0.2153  0.3154 -0.2364
 5809W        W21703  10.726  11.550   2.364  0.1627 -0.0533 -0.0023
 5810W        W21704  12.165  17.233  13.015 -0.1551 -0.2529  0.4128
 5811W        W21705   2.811  12.406  13.193  0.1657 -0.0399 -0.1082
 5812W        W21706   8.144  15.995  15.911 -0.0352  0.0578  0.2537
 5813W        W21707   0.348   8.317  15.216  0.0246 -0.1968  0.1314
 5814W        W21708   7.933   7.880   4.547  0.1415  0.1297 -0.1535
 5815W        W21709   4.316  13.472  13.978  0.0532  0.1335  0.1163
 5816W        W21710  17.683  16.593  14.168  0.0223 -0.0990 -0.1059
 5817W        W21711   3.991   0.030   0.099 -0.0683  0.1184 -0.1133
 5818W        W21712   9.648   6.025   3.478 -0.1873 -0.1485 -0.5867
 5819W        W21713  10.463   0.825  13.424 -0.1964  0.2383  0.0348
 5820W        W21714   0.728   2.679   1.243 -0.2007 -0.0764  0.1821
 5821W        W21715   1.279  10.619   1.739 -0.0817 -0.1034 -0.1688
 5822W        W21716  18.437  16.903   1.998  0.0887 -0.0409  0.2534
 5823W        W21717  10.904  13.256   0.572 -0.2815 -0.2918  0.3221
 5824W        W21718   3.913   4.372  11.428  0.1443 -0.1660 -0.0115
 5825W        W21719  12.342  15.019   2.826  0.0254 -0.1560  0.1573
 5826W        W21720   9.324   7.619   1.769  0.3085 -0.1381 -0.0530
 5827W        W21721   1.727  17.960  11.989 -0.1069 -0.1177 -0.0034
 5828W        W21722   9.021  15.603  11.448 -0.0068 -0.0025 -0.1241
 5829W        W21723   1.756   9.913  12.483  0.2949  0.4362 -0.0029
 5830W        W21724  10.061   2.639  10.870  0.0445 -0.0222  0.2516
 5831W        W21725   5.603  11.801  14.477  0.0680  0.3989  0.0291
 5832W        W21726  13.821   6.872  11.571  0.2294 -0.0155  0.1629
 5833W        W21727  18.406   2.399   2.298 -0.2160  0.1240  0.0837
 5834W        W21728  17.857  11.061   3.670 -0.3345 -0.0811 -0.0773
 5835W        W21729   3.740  15.813   0.270  0.0259  0.0703 -0.2667
 5836W        W21730  10.348  14.174   0.831  0.2158  0.0433 -0.1032
 5837W        W21731  16.566   6.383   6.052 -0.4408  0.2435  0.2109
 5838W        W21732   5.518  14.875   2.901  0.1878 -0.1276 -0.1720
 5839W        W21733   4.826  12.717  11.980  0.0481 -0.1624 -0.2016
 5840W        W21734  10.635   1.345  15.689 -0.2621  0.1819 -0.1524
 5841W        W21735  14.415   2.094   1.799  0.2594  0.2619 -0.0255
 5842W        W21736  10.505   5.602  11.901 -0.2281 -0.2015 -0.2105
 5843W        W21737   4.919  15.605   4.701 -0.0898  0.2418 -0.0201
 5844W        W21738  11.285  17.944  15.136  0.0568  0.0926  0.1385
 5845W        W21739  15.419  13.960  10.834  0.1471  0.2365  0.1595
 5846W        W21740  15.974   6.014   2.357  0.0733 -0.1099  0.0398
 5847W        W21741  17.314   7.599  13.561 -0.0202 -0.1274  0.1085
 5848W        W21742  13.564   8.921   3.228  0.1820  0.1469 -0.2115
 5849W        W21743   5.299  14.929  14.025 -0.0815 -0.1382  0.0603
 5850W        W21744   4.838  14.500  11.913  0.0692  0.2081  0.2425
 5851W        W21745  18.157   4.231  11.415  0.0405  0.3590  0.3259
 5852W        W21746  10.806   0.603   4.358 -0.2341 -0.1339  0.0900
 5853W        W21747  15.057   0.424   2.903  0.1536  0.0178  0.1716
 5854W        W21748   7.328   7.878  15.267 -0.1185 -0.3730 -0.0666
 5855W        W21749   0.412   6.047   1.388 -0.1510 -0.0906  0.1991
 5856W        W21750   1.640   3.192  14.810  0.2872 -0.1412 -0.0024
 5857W        W21751   7.436   1.762  15.662 -0.0176 -0.1871  0.1378
 5858W        W21752  13.353  16.994  13.388 -0.0276 -0.1203  0.0075
 5859W        W21753   7.199  15.796  10.883 -0.2694  0.0147  0.1300
 5860W        W21754  17.064   6.619  11.885  0.0323  0.0888  0.3306
 5861W        W21755   5.126   6.063   2.770 -0.0189 -0.2182 -0.2419
 5862W        W21756  15.757   2.352  15.653 -0.0307  0.1358  0.1330
 5863W        W21757  11.148   1.420   0.501  0.2048  0.2750 -0.0774
 5864W        W21758   1.549  11.676   3.367  0.0688  0.0733  0.1762
 5865W        W21759  11.567  14.263  11.673 -0.1458 -0.2843  0.1767
 5866W        W21760   4.769  16.529   2.151  0.0729 -0.2954 -0.0193
 5867W        W21761  18.138  18.464  12.398  0.0564 -0.1009 -0.1274
 5868W        W21762   3.353  14.757   3.134  0.2241 -0.2100 -0.1659
 5869W        W21763  18.134   9.649   0.087  0.2206  0.0298 -0.0591
 5870W        W21764   0.119   6.880   3.030 -0.3201 -0.1151  0.5427
 5871W        W21765   4.458  17.203  11.990 -0.2911  0.1275  0.1163
 5872W        W21766  12.056   2.714  14.196  0.1333 -0.1247 -0.0310
 5873W        W21767  11.566   8.852  14.436 -0.5074  0.0829 -0.1777
 5874W        W21768   2.210   0.584  15.171  0.0838  0.0900  0.1419
 5875W        W21769   2.790  12.939  11.990 -0.0181 -0.4388  0.2566
 5876W        W21770  13.887   4.643  11.859  0.2389 -0.0680 -0.2244
 5877W        W21771   8.839  16.900  11.903  0.0679 -0.0676 -0.1667
 5878W        W21772   4.922  11.459  14.019 -0.2478 -0.1336 -0.1419
 5879W        W21773   6.087   2.883  15.966 -0.4269  0.1093  0.0999
 5880W        W21774  11.594   9.217   4.545 -0.0446  0.0620 -0.1446
 5881W        W21775   8.359   7.772  11.558  0.0351  0.3301 -0.0181
 5882W        W21776   9.518  10.692  13.157  0.0838  0.1494  0.1371
 5883W        W21777   9.950  14.612  15.676  0.2172 -0.3035  0.4188
 5884W        W21778  17.140   5.186  15.705 -0.2804  0.2323 -0.0346
 5885W        W21779  12.629   0.409   5.268 -0.1770 -0.2787 -0.3123
 5886W        W21780  12.936   7.367  11.206 -0.1252 -0.2706 -0.0184
 5887W        W21781   7.735   4.481   4.604 -0.0440  0.0303 -0.0036
 5888W        W21782  18.101   3.626  12.096 -0.0348  0.0585 -0.1479
 5889W        W21783  17.125  15.947   3.543  0.3579  0.1923 -0.0616
 5890W        W21784  13.186   2.720   0.884 -0.0855 -0.2900 -0.2076
 5891W        W21785   4.794   6.435   5.063 -0.2070 -0.3544  0.3727
 5892W        W21786  15.382  12.770   5.777  0.0983  0.2102  0.1714
 5893W        W21787  13.440   8.594  15.275 -0.0959  0.0900  0.1604
 5894W        W21788   7.007   9.704  10.770 -0.0678 -0.1397  0.0266
 5895W        W21789   9.926   3.267   4.437  0.0204  0.0869  0.2095
 5896W        W21790   7.999   4.316  13.104 -0.0325  0.1432  0.1851
 5897W        W21791   3.606  16.550  15.896  0.0027  0.0889 -0.5225
 5898W        W21792  16.230  11.085   4.216 -0.1014  0.0124 -0.1364
 5899W        W21793  10.822   1.836   5.577 -0.0350  0.6340 -0.2793
 5900W        W21794   7.817  15.620   3.697 -0.1841 -0.3352  0.2763
 5901W        W21795  15.021  12.915  13.722 -0.0508 -0.0774 -0.0576
 5902W        W21796   9.564   3.501  13.333 -0.2227  0.0374  0.4640
 5903W        W21797   0.051  13.879   2.655  0.3535 -0.0193  0.0673
 5904W        W21798  16.869   9.652  13.229  0.0178  0.4755 -0.1527
 5905W        W21799   3.891  14.591  15.252 -0.1867 -0.0425 -0.1068
 5906W        W21800  10.069  14.905  13.022  0.2117  0.2246 -0.1685
 5907W        W21801  13.850  18.461   2.147 -0.0744  0.2561 -0.2447
 5908W        W21802  11.406   3.608  14.521  0.0252 -0.0901  0.1868
 5909W        W21803  18.424  14.746   1.069 -0.1634  0.0810  0.0600
 5910W        W21804   1.983   6.964  15.180 -0.3677 -0.0478  0.0830
 5911W        W21805   5.130   7.136  13.368 -0.0698 -0.1607 -0.0847
 5912W        W21806   3.347   0.045   0.798 -0.4091  0.1412 -0.1262
 5913W        W21807  13.858  17.701   3.485 -0.0852 -0.2755  0.2320
 5914W        W21808  14.391   7.775   5.187 -0.2098 -0.2113 -0.0122
 5915W        W21809   2.846  12.645   5.744  0.0246 -0.0476 -0.2186
 5916W        W21810   2.447  17.715  15.330  0.3873  0.1111  0.1089
 5917W        W21811  16.749  16.076   3.937  0.2324 -0.1637 -0.0533
 5918W        W21812   1.376   0.469   3.607  0.1425  0.3170  0.1872
 5919W        W21813  10.714  11.226   4.551  0.1306 -0.0481 -0.3147
 5920W        W21814   9.307   0.927   1.477  0.0906 -0.1001  0.0643
 5921W        W21815  13.926   6.826  12.705 -0.1995 -0.0218 -0.0800
 5922W        W21816   3.876   3.231  12.264 -0.1273  0.1049 -0.0062
 5923W        W21817  16.021  14.493   1.538 -0.1591 -0.1128  0.1058
 5924W        W21818  11.969   6.992   5.740  0.1114 -0.1542  0.0645
 5925W        W21819  18.023   9.748   2.403 -0.2817 -0.0847  0.0703
 5926W        W21820   8.594   7.753   0.382 -0.1742  0.0347 -0.0198
 5927W        W21821   5.721   6.230  15.227 -0.1035 -0.1042 -0.1328
 5928W        W21822  11.370   1.199   3.122  0.0505 -0.0897  0.1666
 5929W        W21823   1.397   1.887   0.177  0.1938 -0.0735 -0.2036
 5930W        W21824  18.339   1.287   4.542  0.2207  0.0284 -0.0754
 5931W        W21825  11.481   7.626   1.316 -0.0670 -0.0527 -0.1298
 5932W        W21826  12.133  11.476   2.117  0.2007 -0.0982 -0.1563
 5933W        W21827   1.305  13.926   3.276  0.2415  0.3020  0.2178
 5934W        W21828   0.188  12.178   1.117 -0.1039  0.0825  0.1106
 5935W        W21829   5.503  16.417  12.194  0.2104 -0.0726 -0.2357
 5936W        W21830  12.887  14.085  11.321 -0.3161  0.0384 -0.0558
 5937W        W21831  13.849   1.925   1.204  0.3668  0.1032  0.0999
 5938W        W21832  16.898  12.020   3.848 -0.1247  0.1014 -0.0426
 5939W        W21833  15.681  10.949  13.057  0.0274  0.2295 -0.0069
 5940W        W21834   2.032  10.586  13.104 -0.1426 -0.0029 -0.1886
 5941W        W21835  18.263  10.895   1.067 -0.0387 -0.0541  0.0548
 5942W        W21836  16.030   7.503   5.546  0.0097  0.0815  0.1217
 5943W        W21837  15.648   8.978  13.677 -0.0817  0.1369 -0.1149
 5944W        W21838  11.356   4.532  12.645 -0.3778 -0.3123  0.1763
 5945W        W21839  15.727   3.614   1.794  0.3020 -0.2260 -0.1394
 5946W        W21840   0.172   7.636   4.074  0.1610 -0.0766 -0.0486
 5947W        W21841   0.084   6.392   1.738  0.1065 -0.1304  0.1763
 5948W        W21842   1.900   8.236   0.781  0.0340  0.0557  0.1375
 5949W        W21843   7.008   5.837  13.707 -0.0394  0.0886  0.2451
 5950W        W21844   9.232   5.096   5.041 -0.2569  0.0643 -0.0982
 5951W        W21845   6.633   6.480  14.909  0.2912  0.1531  0.1291
 5952W        W21846  12.154   1.501  13.426  0.1790 -0.0846  0.0058
 5953W        W21847  14.184   3.735   3.982  0.1248  0.0965 -0.0401
 5954W        W21848  13.828   5.226   4.876  0.1670 -0.0324  0.2048
 5955W        W21849   4.051  13.088   5.302 -0.1725 -0.0644  0.2015
 5956W        W21850  12.412   1.575   3.882 -0.2084  0.0457  0.2860
 5957W        W21851   2.521  17.867   2.561 -0.0134  0.0139  0.0382
 5958W        W21852   3.335   4.450  15.374 -0.2304  0.0480 -0.0770
 5959W        W21853  17.481   8.936  13.484  0.0071 -0.0490 -0.1585
 5960W        W21854   0.052  11.743  15.814  0.2218  0.1342  0.5705
 5961W        W21855  15.258  10.968   2.249  0.0082  0.1512 -0.1838
 5962W        W21856  11.271   2.008  12.659  0.1726  0.1447 -0.1855
 5963W        W21857   6.179   1.719  14.033 -0.0048 -0.0303 -0.0273
 5964W        W21858  13.166   5.102   4.875 -0.0816  0.1029  0.0318
 5965W        W21859   1.215   4.707  11.557  0.0625  0.1065  0.1477
 5966W        W21860   3.410  10.597  12.931  0.2967 -0.1384  0.2819
 5967W        W21861   3.148   7.785  13.402  0.0834 -0.5258  0.0602
 5968W        W21862  17.367   1.707   2.113 -0.0993  0.0246 -0.1356
 5969W        W21863   5.229   5.313   0.757 -0.4206  0.1229 -0.0197
 5970W        W21864  15.829  16.360   4.523 -0.0854  0.0273  0.3295
 5971W        W21865  10.548   2.985  15.300  0.0086 -0.2314 -0.1203
 5972W        W21866   1.696  10.228   1.052 -0.1308  0.3712 -0.2771
 5973W        W21867   0.057   4.960   6.097 -0.2136 -0.1748  0.2188
 5974W        W21868   8.199  10.104   4.459 -0.2675  0.0108 -0.5970
 5975W        W21869  11.911   1.946   5.703  0.0733  0.0536  0.0051
 5976W        W21870  16.234   7.211   2.616  0.0386  0.0571  0.3075
 5977W        W21871   7.754   8.409   2.415  0.1175  0.0147 -0.2181
 5978W        W21872  16.845  13.686   4.421  0.1884  0.2159 -0.1365
 5979W        W21873   9.955  13.117   0.953 -0.1473  0.4125  0.0260
 5980W        W21874  11.917   0.768  13.266 -0.3251  0.0244 -0.0080
 5981W        W21875   3.767  11.267   1.050 -0.0960 -0.1078 -0.1139
 5982W        W21876   8.351   9.437   0.688  0.0785 -0.0242  0.2201
 5983W        W21877   5.969   9.826   3.291 -0.1485 -0.1412 -0.1038
 5984W        W21878  12.257  11.713  15.063 -0.1693  0.2573  0.3353
 5985W        W21879   7.939  14.047  13.639 -0.0985 -0.0015  0.2554
 5986W        W21880  13.602  18.171  10.824 -0.1128 -0.0723 -0.3328
 5987W        W21881   1.959  13.618   0.231  0.3351  0.2354 -0.2076
 5988W        W21882   3.333   1.096  12.800  0.0154 -0.1677 -0.0411
 5989W        W21883   6.057   5.511   2.585 -0.0306 -0.1572  0.4117
 5990W        W21884   2.475  13.170  14.940 -0.2137 -0.0030  0.0089
 5991W        W21885   8.119  13.100   4.357  0.1427 -0.0027  0.0870
 5992W        W21886   4.629   3.119  10.301 -0.0920 -0.2166  0.0059
 5993W        W21887   4.957   2.213  15.345 -0.1895  0.3267  0.2363
 5994W        W21888   4.114   4.745  12.991 -0.0919  0.4884  0.0437
 5995W        W21889   3.017   7.296  14.561 -0.1890 -0.1339 -0.1972
 5996W        W21890  16.124   1.011   5.259 -0.1096  0.3689 -0.0832
 5997W        W21891  14.224   2.988   0.346  0.2259  0.0668 -0.1648
 5998W        W21892   4.031  16.810  15.562 -0.0774  0.1670 -0.3232
 5999W        W21893   9.460   8.188  12.782  0.1850  0.1342  0.0733
 6000W        W21894  12.362   5.817  13.838  0.1010  0.1397  0.0310
 6001W        W21895   6.342   0.497   0.946  0.0770  0.2228 -0.2422
 6002W        W21896   7.248   6.560   1.347 -0.0305  0.0245  0.0266
 6003W        W21897   1.835  10.586  14.219 -0.0929 -0.0461 -0.4724
 6004W        W21898  14.004  16.692   1.332 -0.0906  0.1102 -0.0175
 6005W        W21899  11.003   7.638  14.377 -0.2401 -0.0444  0.2732
 6006W        W21900   8.254   6.376   0.569 -0.1293  0.4373  0.1774
 6007W        W21901   2.009  11.829  13.515  0.1313  0.2857 -0.1237
 6008W        W21902   7.924  14.870  15.640 -0.1380 -0.0285  0.2730
 6009W        W21903   9.727   8.536   3.392 -0.0284  0.1479  0.2496
 6010W        W21904  15.611   0.259   5.730 -0.1842  0.0517  0.1838
 6011W        W21905  11.368   6.507   5.540  0.0477  0.0896  0.3166
 6012W        W21906  13.951   4.989   1.509 -0.2121 -0.0200 -0.2662
 6013W        W21907  17.412  12.989  12.154  0.2813  0.0995  0.0367
 6014W        W21908   6.358   7.767  12.841 -0.4006  0.2504  0.1273
 6015W        W21909   3.628  17.147   1.860  0.2144 -0.0859  0.1705
 6016W        W21910  18.179  13.357   4.195  0.3293 -0.2898 -0.0732
 6017W        W21911   3.838  11.588   5.518  0.1595  0.1946 -0.1401
 6018W        W21912  10.446  18.007  14.171 -0.0567 -0.0204  0.1257
 6019W        W21913  16.488  16.220  13.533  0.1605  0.2310  0.0805
 6020W        W21914  15.466  11.345   3.512  0.1457  0.0100  0.0773
 6021W        W21915   3.177   8.931  11.856 -0.0337  0.3306  0.0682
 6022W        W21916  15.420   5.103   6.288  0.0191 -0.0343  0.0563
 6023W        W21917   3.091  11.181  13.222  0.0786 -0.1895 -0.3949
 6024W        W21918   4.113   8.697   4.928  0.0007  0.3023  0.0507
 6025W        W21919   5.014  14.379   3.501  0.1822 -0.0365 -0.0335
 6026W        W21920   2.929  10.302  11.049  0.0218  0.0836  0.1650
 6027W        W21921   8.467   4.866  15.608  0.0574  0.2548  0.3014
 6028W        W21922   2.447  11.036  14.707 -0.1503 -0.1010  0.2824
 6029W        W21923   6.709  18.406   0.794 -0.1635 -0.2103 -0.0754
 6030W        W21924   4.715   3.779  13.432  0.1725  0.0930 -0.3666
 6031W        W21925  15.209   9.970   0.649 -0.1081  0.2247  0.0736
 6032W        W21926   0.307   3.178  12.849  0.1100  0.3245  0.0778
 6033W        W21927  17.301  18.140   4.982  0.2180 -0.0921 -0.1631
 6034W        W21928   1.047   0.419   2.670  0.3178  0.0645 -0.1016
 6035W        W21929  15.007  13.436  13.902 -0.0962  0.0022  0.2271
 6036W        W21930  16.991  11.237   3.297 -0.0691  0.0405  0.0899
 6037W        W21931   5.793  15.615  15.987  0.0001 -0.1396  0.1298
 6038W        W21932  14.778   4.951  12.773  0.1150  0.2244  0.3683
 6039W        W21933   5.664   2.517  14.931  0.1803  0.0290  0.1733
 6040W        W21934  13.892   0.498  14.383  0.2764 -0.0493  0.1263
 6041W        W21935   4.335   5.215   0.789 -0.2267  0.1185  0.0662
 6042W        W21936   4.975  10.824   1.717 -0.2379 -0.0771 -0.1778
 6043W        W21937   3.507  14.998  12.112 -0.1341  0.0108  0.2111
 6044W        W21938  10.601   3.420   2.657  0.1198  0.1706  0.2337
 6045W        W21939  10.276   5.917   1.573 -0.3605 -0.3028 -0.0246
 6046W        W21940   7.905   1.273   5.541 -0.0156  0.3752  0.0627
 6047W        W21941   3.862  10.258   1.417 -0.0866 -0.0144  0.2466
 6048W        W21942   1.426   3.399   2.226 -0.0456  0.0765  0.1625
 6049W        W21943  16.921   9.078  12.057 -0.0190  0.0628  0.0358
 6050W        W21944   8.404  18.137  10.541 -0.2012  0.1550  0.0361
 6051W        W21945  10.624  16.080  13.968  0.1587  0.3514  0.3777
 6052W        W21946  17.989   9.342   3.722 -0.2368  0.0511  0.1677
 6053W        W21947  16.752  15.140  14.672 -0.1129 -0.2090  0.0554
 6054W        W21948   5.187  13.096   5.551  0.1255 -0.2180 -0.2237
 6055W        W21949   4.126   1.954  13.232 -0.0269  0.0453 -0.5123
 6056W        W21950   6.770  15.375   1.583  0.3322 -0.0983  0.0365
 6057W        W21951  16.359   5.679   1.605  0.2735  0.0641 -0.1307
 6058W        W21952   4.771  10.659  15.127  0.0700 -0.4144  0.3512
 6059W        W21953   4.598   1.654   0.091 -0.2810  0.1114  0.2444
 6060W        W21954  11.608   7.360  10.492  0.0210 -0.1259  0.0205
 6061W        W21955  13.748   7.556  14.713  0.1430 -0.0621  0.2007
 6062W        W21956   8.112  16.232  12.019 -0.1063  0.0271 -0.1055
 6063W        W21957  13.583   4.187   0.854 -0.0074  0.0580  0.0368
 6064W        W21958   9.335   1.825  15.303  0.2617 -0.0290 -0.1050
 6065W        W21959   4.907  13.465  13.201 -0.1271  0.3151  0.1773
 6066W        W21960   7.840   4.253   3.312 -0.0828 -0.1230  0.0332
 6067W        W21961   1.022   7.490  14.523 -0.2256 -0.1403  0.0247
 6068W        W21962  13.372   9.533  11.330  0.0402  0.3235 -0.3658
 6069W        W21963   3.153  10.701   2.517 -0.0087  0.0084  0.5226
 6070W        W21964  11.663   2.541   2.485 -0.1282  0.1033 -0.4008
 6071W        W21965   2.578  11.199   3.526 -0.1101  0.0716 -0.0493
 6072W        W21966  15.548  10.241  12.442 -0.0232  0.0439 -0.1413
 6073W        W21967  10.546   8.940   4.302  0.2384 -0.0116  0.0291
 6074W        W21968   8.767   1.736  12.368 -0.2868 -0.3310 -0.0298
 6075W        W21969  11.175  10.490   3.103 -0.1011 -0.0208  0.3104
 6076W        W21970   6.559  16.130   1.037  0.0241  0.0282 -0.0726
 6077W        W21971  10.364  11.981  13.643 -0.1786 -0.1612  0.0998
 6078W        W21972   3.948   4.444   2.738  0.0685 -0.1693 -0.0518
 6079W        W21973   9.193  11.400   1.604  0.1412  0.3494  0.2099
 6080W        W21974  11.644  17.537  13.099  0.1974  0.1793 -0.1407
 6081W        W21975  11.762  12.160  14.095  0.2283 -0.0409  0.3385
 6082W        W21976  17.964  15.896  14.833 -0.0314 -0.0332  0.1489
 6083W        W21977   8.327   4.712  12.125 -0.2723 -0.0740  0.0680
 6084W        W21978  10.846   0.892  12.297  0.1462  0.4078 -0.0702
 6085W        W21979   0.281   0.402  15.528 -0.2989  0.2110 -0.2467
 6086W        W21980   2.344  16.666  10.180 -0.2260  0.2312  0.0246
 6087W        W21981   8.201  18.198   3.708 -0.0861  0.0316  0.3200
 6088W        W21982  15.034   0.228   1.627 -0.0651  0.0577 -0.1134
 6089W        W21983   9.539   5.398   1.976  0.3237  0.1073  0.2407
 6090W        W21984  13.772  10.945  10.833  0.4118  0.2444 -0.1855
 6091W        W21985   1.546  13.706  11.112 -0.1046 -0.1290 -0.1002
 6092W        W21986   1.091  15.441   2.425  0.2453  0.1058  0.1432
 6093W        W21987   0.830   5.658   6.120 -0.0209  0.1300  0.0844
 6094W        W21988  18.368  10.425  10.598 -0.1194  0.0701  0.0762
 6095W        W21989  10.241   4.391   1.930 -0.0551 -0.1390  0.2717
 6096W        W21990  18.285   9.944   1.437  0.0226 -0.1188 -0.1112
 6097W        W21991   8.551   3.117  13.314  0.1797 -0.1362 -0.1888
 6098W        W21992  12.926  10.000  14.377 -0.0589 -0.0286 -0.3129
 6099W        W21993  10.530   5.882   1.026  0.1795  0.0049  0.0816
 6100W        W21994  18.262  10.261  15.803 -0.0033  0.2186 -0.1443
 6101W        W21995  11.210  15.972   0.487 -0.1487  0.0556  0.0397
 6102W        W21996   6.269   3.881   1.484 -0.0134  0.0296 -0.2759
 6103W        W21997   4.890  12.071   4.892 -0.3061 -0.0931  0.1841
 6104W        W21998  18.123  14.279  13.876 -0.0858 -0.0560 -0.2132
 6105W        W21999   4.576  12.958   4.211 -0.0928  0.0762 -0.0845
 6106W        W22000   1.786   8.665   3.891 -0.3438 -0.1628 -0.3834
 6107W        W22001  14.607  10.947  11.418 -0.0844 -0.2389 -0.0011
 6108W        W22002  17.523  15.576   3.252  0.3493 -0.0653 -0.2453
 6109W        W22003   0.378  10.286  14.084 -0.1234 -0.0777 -0.2841
 6110W        W22004   4.739   1.964   2.157 -0.0350 -0.1911 -0.0169
 6111W        W22005   4.502   1.141  14.328  0.1297 -0.0093 -0.1495
 6112W        W22006  12.683  12.825  11.626 -0.1555  0.0806 -0.0730
 6113W        W22007  15.491   9.790  13.478  0.3063 -0.2061  0.0369
 6114W        W22008   8.850   5.116  15.851 -0.2596  0.2504  0.0826
 6115W        W22009  18.408   9.361   4.076 -0.0299 -0.0158  0.0342
 6116W        W22010  18.042  12.731   1.951 -0.2780  0.1088  0.0384
 6117W        W22011   0.537   7.869  13.859  0.0053 -0.2946 -0.0761
 6118W        W22012  15.299   1.573   5.796 -0.0794  0.1668 -0.2669
 6119W        W22013  10.110   1.652  14.987  0.1386 -0.3045  0.1285
 6120W        W22014   9.415   1.075   1.958  0.0317 -0.1385  0.0115
 6121W        W22015  13.852   3.241  13.036 -0.1226  0.0466  0.2212
 6122W        W22016  11.221  13.457  10.378 -0.0756  0.2393 -0.1449
 6123W        W22017   1.585  11.586   1.091  0.1496  0.0106 -0.1050
 6124W        W22018  15.145   4.862  16.132 -0.3809 -0.0212 -0.1982
 6125W        W22019  12.230  17.939   1.520 -0.1730  0.0682  0.0759
 6126W        W22020  10.343   3.204   4.724 -0.0525 -0.2265 -0.2135
 6127W        W22021   4.945  14.891  12.193 -0.1539  0.3278 -0.0389
 6128W        W22022   4.574  15.656  11.858  0.1329 -0.1764 -0.2577
 6129W        W22023   4.876   1.414  14.114  0.1457 -0.0674  0.1711
 6130W        W22024   5.794  15.306   2.704 -0.1440  0.1756 -0.2618
 6131W        W22025   4.435  18.085   1.094 -0.0930 -0.2326 -0.1966
 6132W        W22026   9.366   4.978   1.018  0.1267  0.0818 -0.2504
 6133W        W22027  17.299   6.973   4.849  0.1874 -0.0273 -0.2179
 6134W        W22028  11.213  12.040  10.955  0.0666 -0.1163 -0.1383
 6135W        W22029  16.598   7.968  11.054 -0.1815 -0.1883 -0.0735
 6136W        W22030   2.501   2.049   1.142 -0.2499 -0.2399 -0.1521
 6137W        W22031   3.388   4.164  13.257 -0.1179 -0.0345  0.1107
 6138W        W22032  14.740   0.770  15.315  0.1573 -0.0182  0.4153
 6139W        W22033   5.055  15.998   2.503 -0.1387 -0.3360  0.2500
 6140W        W22034   2.640  14.243  12.756 -0.0959  0.2077  0.0230
 6141W        W22035   6.367   2.807  11.005 -0.0583 -0.0177 -0.3402
 6142W        W22036   3.834  14.241  14.826  0.1004 -0.1475 -0.0712
 6143W        W22037   1.175  17.914  13.355 -0.1818 -0.0060  0.2344
 6144W        W22038  16.035  14.901   3.831  0.2968  0.1982 -0.2109
 6145W        W22039  17.316  10.583   0.323 -0.1681 -0.3379  0.1652
 6146W        W22040  15.579  15.747   1.724  0.4448 -0.2392 -0.2228
 6147W        W22041  13.858  17.874  11.234 -0.0948  0.2540  0.1011
 6148W        W22042  14.914  16.591  13.645 -0.1427 -0.0731 -0.1554
 6149W        W22043  13.167   2.462  14.545  0.0065  0.0776  0.2675
 6150W        W22044   0.272  13.228  15.185  0.2957  0.1041 -0.0606
 6151W        W22045   2.211   2.778   1.446  0.1022 -0.1097  0.1297
 6152W        W22046   9.685  11.985   2.027  0.1242  0.2172 -0.0780
 6153W        W22047   1.515   9.802  14.120  0.3023  0.0434  0.1140
 6154W        W22048   2.071  18.290   4.061 -0.5947  0.1577  0.1001
 6155W        W22049   5.442   9.127  13.738  0.1443  0.3803  0.0374
 6156W        W22050  11.204  12.491   1.178 -0.1960 -0.0263  0.1298
 6157W        W22051  16.138   8.138   3.454 -0.0832 -0.3178  0.0106
 6158W        W22052  12.713  12.955  12.157  0.1356 -0.2441 -0.1954
 6159W        W22053  16.682   0.078   0.449 -0.0394 -0.0074 -0.0411
 6160W        W22054  13.319  14.673   1.865 -0.0532 -0.0390 -0.3981
 6161W        W22055  14.767   6.974  15.552  0.0165  0.1383 -0.1893
 6162W        W22056  16.008  13.091  12.650 -0.1401 -0.0467  0.1119
 6163W        W22057   0.796   7.520   3.233 -0.0004 -0.0833  0.0815
 6164W        W22058  16.721  14.919  14.259 -0.1039 -0.2640 -0.3270
 6165W        W22059   4.485   9.061   2.070  0.2169  0.0472 -0.1598
 6166W        W22060   5.321  17.248  16.046 -0.0432 -0.1688 -0.0225
 6167W        W22061   9.586   1.410   3.023  0.2184  0.2919 -0.1042
 6168W        W22062  12.652  14.418  16.145 -0.2627  0.0056 -0.0608
 6169W        W22063   2.964   3.197  11.537  0.1186 -0.0011 -0.4394
 6170W        W22064   4.030  15.967  13.814  0.0810  0.0733  0.1072
 6171W        W22065  14.139   3.479   5.687  0.2890  0.0330  0.0313
 6172W        W22066   5.216   2.540   2.957 -0.1266 -0.1662 -0.0170
 6173W        W22067  11.492   2.979  12.719 -0.1648 -0.5399  0.1524
 6174W        W22068   8.789  16.373  14.584  0.0930 -0.2622  0.3131
 6175W        W22069   0.918  11.720   5.698 -0.1220  0.1381 -0.0672
 6176W        W22070   6.263   1.961  15.700  0.2326 -0.1322 -0.1922
 6177W        W22071  17.990  16.973  14.244 -0.1618  0.0008  0.0170
 6178W        W22072  18.151  17.322   0.649 -0.2857  0.0610 -0.2036
 6179W        W22073  12.163  15.978   3.156 -0.0906 -0.1777 -0.3779
 6180W        W22074  10.574  14.917  14.448  0.0370  0.1189 -0.0100
 6181W        W22075   1.617   6.577   4.907 -0.0542  0.3128 -0.2431
 6182W        W22076  14.769  12.799   1.307  0.1597  0.0744  0.0274
 6183W        W22077   2.990  16.157  12.675 -0.1804  0.1879  0.0321
 6184W        W22078  15.248   2.339   3.750  0.2289 -0.0051  0.0377
 6185W        W22079  11.925  10.317  12.978  0.3059 -0.1148 -0.0534
 6186W        W22080  13.877   9.578   1.437  0.3118 -0.0562  0.2623
 6187W        W22081   8.518  16.490   1.631 -0.2307 -0.0399 -0.2498
 6188W        W22082   3.960  12.832  11.546  0.3063  0.2038  0.1270
 6189W        W22083   2.343  17.261   1.100 -0.1014 -0.3006 -0.1281
 6190W        W22084   2.578  11.855   3.072  0.0892  0.2498 -0.2762
 6191W        W22085   7.856  14.606  13.587  0.3475 -0.0481  0.3049
 6192W        W22086  10.489  18.140   0.553  0.0442 -0.0811 -0.0026
 6193W        W22087   8.421   9.164  13.303 -0.2747  0.3990 -0.0415
 6194W        W22088   2.509   2.297   2.722  0.0829 -0.1711  0.0771
 6195W        W22089  15.786   9.812   0.577 -0.1037 -0.0910  0.3847
 6196W        W22090  11.534   3.406  14.117  0.2491  0.0283  0.0325
 6197W        W22091  16.664   6.785  14.804 -0.1214 -0.0837  0.1128
 6198W        W22092  15.054   6.917   5.344 -0.5155 -0.2735  0.1521
 6199W        W22093   1.089   8.697  13.538 -0.0337 -0.0347  0.2327
 6200W        W22094   8.386  17.124  15.413 -0.0111 -0.2272 -0.1270
 6201W        W22095  14.655  14.986  14.081 -0.0045 -0.0687  0.0464
 6202W        W22096   0.272   7.179   1.107 -0.1036 -0.2453 -0.3036
 6203W        W22097  10.055  18.418   0.161  0.0430 -0.0600 -0.0792
 6204W        W22098   4.132  16.439  14.082  0.1673 -0.4210 -0.0603
 6205W        W22099   9.810  15.582  11.328  0.0200 -0.0863 -0.3892
 6206W        W22100   9.532   6.251   1.591  0.0965 -0.1261 -0.1829
 6207W        W22101   5.834   5.712  15.743 -0.0748  0.3496 -0.1711
 6208W        W22102  13.848  11.280   2.007 -0.0110  0.1412  0.0101
 6209W        W22103   5.596   9.922  14.604  0.1563 -0.3168 -0.0377
 6210W        W22104   1.588   5.110  14.068  0.1330  0.3069 -0.0736
 6211W        W22105  18.168  18.287  12.900  0.2059  0.0144 -0.1917
 6212W        W22106   1.643   9.659   1.267  0.0790  0.1579  0.2444
 6213W        W22107  12.222   9.562   5.034 -0.1272  0.1032  0.1166
 6214W        W22108   5.369   6.201   4.217 -0.1072  0.2265  0.5298
 6215W        W22109   0.449  14.201  13.105  0.1746 -0.2721  0.1260
 6216W        W22110  10.703   8.077   2.921  0.2474 -0.0420  0.0575
 6217W        W22111   4.174   2.360   4.383 -0.0560 -0.0168 -0.0288
 6218W        W22112   1.019   5.849   4.672  0.3729 -0.2814 -0.1467
 6219W        W22113   7.149  13.355  12.282  0.0100  0.0617  0.2302
 6220W        W22114  10.866   4.859  14.619  0.3099 -0.2379 -0.1301
 6221W        W22115   5.090   9.039  15.010 -0.0613  0.0724 -0.0554
 6222W        W22116   5.865   1.534  11.861 -0.2356  0.2612 -0.1623
 6223W        W22117   8.995   5.353   3.232  0.2631 -0.0458  0.2623
 6224W        W22118   3.520   1.013   3.980  0.0947 -0.1331 -0.1610
 6225W        W22119  12.231  12.836   5.161 -0.0087 -0.0808 -0.0007
 6226W        W22120   9.169  16.343  14.912  0.0974 -0.0189 -0.2936
 6227W        W22121   7.216  14.413   5.258 -0.0809  0.0064  0.0526
 6228W        W22122   2.329   9.541   0.711 -0.0881 -0.0482  0.1272
 6229W        W22123  12.796   2.966   5.543  0.2867 -0.2705 -0.0202
 6230W        W22124   5.844  13.360  14.142 -0.2048  0.3246 -0.2127
 6231W        W22125  14.807   7.791  14.953 -0.1395  0.2104 -0.0413
 6232W        W22126   0.600  14.647  10.771  0.2004 -0.1455  0.0071
 6233W        W22127   5.379   2.167  12.479  0.0853 -0.3299  0.0085
 6234W        W22128   0.005  13.980  14.022 -0.0478  0.1907 -0.0198
 6235W        W22129  11.496   7.532   2.610  0.0772 -0.0719  0.0824
 6236W        W22130  16.138  16.669   4.775  0.2558 -0.0036 -0.1630
 6237W        W22131  17.430  11.698  12.703 -0.2417  0.0157  0.0353
 6238W        W22132   9.083  17.902   3.046  0.5057 -0.3424 -0.0412
 6239W        W22133  11.643   3.370   0.278  0.1245  0.0577  0.1500
 6240W        W22134   2.125   7.750   2.027 -0.0422 -0.1694 -0.2631
 6241W        W22135  14.306  15.725   5.887  0.2620  0.3365 -0.3401
 6242W        W22136   7.237   6.166   2.274 -0.2225 -0.0655  0.1608
 6243W        W22137   7.970  18.055  14.948 -0.1458  0.2561  0.0124
 6244W        W22138   2.352  10.917  13.309 -0.1563 -0.0327  0.2346
 6245W        W22139   0.362   4.336   5.473  0.2244 -0.0913  0.0942
 6246W        W22140   3.646  15.988   2.142  0.2337 -0.0707  0.0191
 6247W        W22141  18.385   7.904   2.912  0.1542  0.0123 -0.1263
 6248W        W22142   3.564  10.568   0.013 -0.0248 -0.0774 -0.0704
 6249W        W22143   0.849   9.456   1.148 -0.1234  0.0196 -0.1519
 6250W        W22144   6.346  17.309  15.701  0.0039 -0.0655  0.1339
 6251W        W22145  13.237  13.787   0.269 -0.2010  0.0905 -0.2670
 6252W        W22146   5.336  16.224  14.442  0.0835 -0.1098  0.0610
 6253W        W22147   6.836   3.525  12.593  0.1625 -0.2575  0.2262
 6254W        W22148   5.246   7.871  15.682 -0.0527  0.1220  0.1117
 6255W        W22149   7.856  16.133   4.982 -0.1325 -0.0861 -0.0774
 6256W        W22150  16.584  16.869   0.088  0.2521 -0.2436 -0.1894
 6257W        W22151  15.254   2.324   1.893 -0.0840  0.1501  0.1221
 6258W        W22152   0.829   0.917   1.750  0.1063  0.3228  0.1049
 6259W        W22153   3.268  15.693  12.433 -0.3045 -0.1267 -0.0332
 6260W        W22154  13.766   5.646   2.208  0.3085  0.4359  0.0747
 6261W        W22155   4.262  14.514  11.101  0.0787  0.1093  0.1796
 6262W        W22156   0.763  17.069  14.263  0.1905  0.1071 -0.2583
 6263W        W22157  16.971   4.464   5.764  0.1724  0.0296 -0.1709
 6264W        W22158   1.115   1.731   2.409  0.0388  0.1384  0.4108
 6265W        W22159  11.221   6.443   3.680 -0.0543 -0.2439 -0.1584
 6266W        W22160  10.757  10.469   2.837  0.1008  0.0578  0.0651
 6267W        W22161  12.948  12.582   2.937 -0.1762  0.1286 -0.0305
 6268W        W22162  13.577  12.544   0.713 -0.2645  0.3031 -0.1835
 6269W        W22163   8.773   1.892   1.128 -0.0785  0.2506  0.0001
 6270W        W22164  16.282   3.023   5.526 -0.0289 -0.0788  0.0259
 6271W        W22165   2.650  15.556  14.870 -0.2146  0.1152  0.3899
 6272W        W22166  18.159  13.057   3.764 -0.1652 -0.1113 -0.0124
 6273W        W22167   4.806   5.910   2.315 -0.0283  0.0004 -0.1720
 6274W        W22168   7.556  10.831  15.554 -0.1646 -0.0043  0.3618
 6275W        W22169  12.364   8.712   0.641 -0.0730  0.0143 -0.1061
 6276W        W22170  14.947   9.378  13.733  0.1990 -0.0431 -0.0962
 6277W        W22171  10.257  13.037   2.767  0.1369  0.0481 -0.2706
 6278W        W22172   3.327  12.616  13.362 -0.3264 -0.2450  0.0049
 6279W        W22173  15.733  16.922   4.626  0.0903  0.3306  0.0614
 6280W        W22174  15.825  13.287   1.064 -0.1306  0.0125 -0.1625
 6281W        W22175   7.537  15.575   4.479  0.1314  0.2468  0.4435
 6282W        W22176  14.412   6.736  13.626 -0.0075  0.1252  0.0757
 6283W        W22177  11.566  17.021  13.485 -0.0519  0.2196 -0.0639
 6284W        W22178   1.051   2.644  12.826 -0.5640  0.0060  0.0325
 6285W        W22179   6.545  16.413   1.521  0.0416 -0.1850  0.1659
 6286W        W22180   5.554   8.877   4.000 -0.3324  0.0101 -0.0439
 6287W        W22181   6.910   4.874  11.716 -0.0476  0.0662 -0.2707
 6288W        W22182  12.975   5.105   3.985 -0.0823  0.2091 -0.3520
 6289W        W22183   2.728   6.858   5.625  0.2964  0.0217  0.1533
 6290W        W22184  17.742   7.040   2.960  0.1296  0.2284  0.0939
 6291W        W22185  13.421   0.816   2.334  0.1186 -0.0513  0.4099
 6292W        W22186   9.790   6.605  14.398 -0.3564  0.0931 -0.0239
 6293W        W22187   6.621  17.060   6.129 -0.0702 -0.1719  0.1178
 6294W        W22188  17.460  12.032  13.796 -0.0041 -0.0476  0.0717
 6295W        W22189   3.395   3.518   1.133  0.2242  0.5967 -0.1518
 6296W        W22190   3.870   2.215   3.885  0.0646 -0.1238  0.1155
 6297W        W22191   0.970  16.487   3.367  0.0957  0.0995  0.0975
 6298W        W22192  10.664  15.329   1.072 -0.1932 -0.2595 -0.0045
 6299W        W22193  16.487   5.694   5.860  0.1217 -0.2279 -0.0840
 6300W        W22194   1.061   1.042  15.642 -0.0137 -0.0094 -0.2627
 6301W        W22195   1.844   3.504  14.087  0.0618  0.2419  0.1789
 6302W        W22196   1.045  15.240   0.685  0.0686 -0.1442  0.1125
 6303W        W22197  10.422  17.434   3.728 -0.0412  0.4035 -0.3279
 6304W        W22198   0.379   9.757   4.197  0.0182  0.3746  0.2412
 6305W        W22199   4.729   1.739   2.808 -0.0341 -0.2236  0.0557
 6306W        W22200   4.127   1.284  15.958  0.2451 -0.0449  0.3120
 6307W        W22201  10.283  13.297   4.189 -0.3607  0.0667  0.0984
 6308W        W22202   9.574  17.012   5.338 -0.1906 -0.1785 -0.0738
 6309W        W22203  10.011   1.474   1.768 -0.1931 -0.1850  0.2530
 6310W        W22204   7.181   6.185  14.083  0.1755 -0.2904  0.0819
 6311W        W22205   3.206  16.218   2.865 -0.2074 -0.1134 -0.2659
 6312W        W22206  16.610  12.179   2.960 -0.1795 -0.2160  0.1176
 6313W        W22207  12.276   1.211   3.583  0.0834 -0.1232  0.0166
 6314W        W22208   8.099  17.425   3.673 -0.5360 -0.2339  0.1073
 6315W        W22209  10.839  17.644  13.359  0.1216  0.2528  0.0245
 6316W        W22210   2.810  11.759  15.554  0.3199 -0.2340 -0.0296
 6317W        W22211   9.874  15.790   1.308 -0.1392 -0.1476  0.5342
 6318W        W22212   3.037  13.966   2.271 -0.0522 -0.3066 -0.0516
 6319W        W22213  12.867  11.705  16.028  0.0695 -0.0897 -0.0879
 6320W        W22214  13.477  14.421   5.311 -0.0733 -0.1462 -0.3327
 6321W        W22215  11.021  16.504  16.069 -0.1271 -0.0382 -0.0575
 6322W        W22216   8.331  13.703  11.545 -0.2557 -0.0691  0.0525
 6323W        W22217  13.815  18.020   0.325  0.2002  0.0574  0.0582
 6324W        W22218   8.364   0.743   4.190 -0.0284  0.1225 -0.6142
 6325W        W22219   2.497   7.531   3.800 -0.0519 -0.4212 -0.1646
 6326W        W22220   3.072   7.317  13.585  0.0218 -0.2191 -0.0408
 6327W        W22221   0.869  16.785   0.074  0.0434  0.0264 -0.1587
 6328W        W22222  17.566   8.134   2.915  0.1450  0.2281 -0.1703
 6329W        W22223  14.547  10.731  12.442 -0.3328 -0.0482 -0.0003
 6330W        W22224   6.222  13.373   1.796  0.1138  0.2109  0.1284
 6331W        W22225   4.477   4.823   6.086 -0.2788  0.2259 -0.0916
 6332W        W22226  12.287  18.326   2.306 -0.0518 -0.2550 -0.1344
 6333W        W22227  14.719   6.384  12.798 -0.2327  0.0886  0.3624
 6334W        W22228  16.894  10.004  15.336  0.0677  0.0698  0.1534
 6335W        W22229  18.248   7.685   4.869 -0.3002 -0.3155  0.0628
 6336W        W22230   4.900   6.380   2.288  0.4110  0.2639  0.2103
 6337W        W22231  11.154  13.959  11.860  0.0605  0.1499 -0.1432
 6338W        W22232   4.679   3.488   0.968 -0.1252 -0.1363 -0.1577
 6339W        W22233   1.192   4.413   2.307 -0.2076 -0.0028 -0.2322
 6340W        W22234  12.184  16.530  15.482  0.1665 -0.2153 -0.0906
 6341W        W22235   2.095  11.770   0.848 -0.0215  0.1919 -0.1860
 6342W        W22236  13.944  11.535   2.432  0.0897 -0.1474  0.0466
 6343W        W22237  17.507   8.385   0.836 -0.2607 -0.1663 -0.1056
 6344W        W22238   6.427  15.296   2.926 -0.1844 -0.2114  0.0220
 6345W        W22239  16.822  17.178  13.098 -0.2548  0.0695  0.0814
 6346W        W22240   5.035   5.412  11.369 -0.1094  0.1452  0.1254
 6347W        W22241   6.688   0.624   0.191 -0.1671  0.1194  0.2120
 6348W        W22242   3.587  12.309   4.894 -0.2141  0.0113 -0.4639
 6349W        W22243   3.759  15.318   0.468 -0.0188 -0.1736  0.3287
 6350W        W22244  15.477  13.819  15.939  0.0705  0.1053  0.0881
 6351W        W22245  17.188   6.797  13.151  0.3139  0.0736 -0.2895
 6352W        W22246  16.089  15.327   1.741 -0.1442  0.1002  0.1765
 6353W        W22247   4.508   0.644  15.193  0.0120  0.1720  0.0956
 6354W        W22248   0.260  17.030  12.260  0.1709  0.1325  0.0918
 6355W        W22249   3.908   7.060  14.877  0.0182 -0.1959 -0.1958
 6356W        W22250   9.683  11.384   0.192 -0.0234  0.1436 -0.1106
 6357W        W22251   4.772   5.983  13.859 -0.0283 -0.2562  0.2842
 6358W        W22252  16.272   4.658   3.584 -0.0974 -0.2311 -0.4947
 6359W        W22253  13.096  17.944  15.254 -0.1044  0.1375 -0.0423
 6360W        W22254   8.599  15.685  12.992  0.1667 -0.0882  0.1794
 6361W        W22255  13.922   9.531  12.780 -0.3142 -0.3373 -0.0219
 6362W        W22256  13.855  17.477  13.279 -0.2538  0.0086 -0.0716
 6363W        W22257   2.283  15.992  13.188  0.1984  0.1045 -0.2734
 6364W        W22258   3.256  15.224  15.840  0.3086 -0.2307 -0.0191
 6365W        W22259  13.386  11.628  12.387  0.0599 -0.2534 -0.0297
 6366W        W22260  15.720  15.203  11.756 -0.0394  0.1895  0.0872
 6367W        W22261   7.040   1.253  12.732  0.0566 -0.4519 -0.0020
 6368W        W22262  10.753   1.797  12.066  0.0997 -0.1347  0.2197
 6369W        W22263   5.510  15.204  13.016  0.2970  0.4324 -0.2369
 6370W        W22264  10.691   6.447   5.427 -0.1740  0.2898  0.1089
 6371W        W22265   1.646  11.316   5.152 -0.0458 -0.1614  0.2219
 6372W        W22266   1.505   3.895   0.302  0.0332  0.1850 -0.2248
 6373W        W22267  13.902  10.073   4.844 -0.1212 -0.0514  0.2675
 6374W        W22268  12.914  17.869   0.047 -0.3393  0.0658 -0.2166
 6375W        W22269   7.697   2.091   1.764  0.2466  0.1831  0.1107
 6376W        W22270  18.371   5.145  14.591 -0.0094 -0.5281  0.1024
 6377W        W22271  17.615   0.033   0.338 -0.1466 -0.2136  0.1724
 6378W        W22272  16.792  16.872   3.615 -0.0880 -0.2057  0.0758
 6379W        W22273   8.591   6.025   4.564  0.1862  0.4039  0.2288
 6380W        W22274   9.500  15.363   9.944  0.0840  0.0718  0.0834
 6381W        W22275  11.749   2.547  14.970 -0.2991 -0.0367  0.1337
 6382W        W22276   8.268  11.743   4.949  0.1194  0.1636  0.2167
 6383W        W22277   9.292   2.832  10.945 -0.0720 -0.5417 -0.2564
 6384W        W22278   4.043   3.192   1.498  0.0119 -0.3637  0.5073
 6385W        W22279   2.503  10.894   1.848  0.0233  0.0384  0.2787
 6386W        W22280   2.515  17.179  15.257 -0.1102  0.1019  0.3066
 6387W        W22281   5.400  10.546   2.867  0.2500  0.0925  0.0342
 6388W        W22282  13.747  13.935   1.798 -0.2768  0.0606  0.4052
 6389W        W22283   6.232  10.513  15.433  0.0370  0.2823  0.3168
 6390W        W22284   9.498  13.018  13.656  0.0786 -0.0497 -0.0781
 6391W        W22285   3.833  18.418  11.725 -0.1036  0.2561 -0.3167
 6392W        W22286   9.988   9.789   4.665  0.4319 -0.1099 -0.1771
 6393W        W22287  15.050  16.465  10.616 -0.2354  0.0414 -0.0620
 6394W        W22288  15.700  13.743  14.898  0.0950  0.0334 -0.0669
 6395W        W22289   2.029  12.553  14.091 -0.4423  0.3710  0.1345
 6396W        W22290  15.051   3.787  14.179 -0.1487 -0.1542  0.1584
 6397W        W22291   2.259  14.050  14.158  0.3157  0.0062 -0.2337
 6398W        W22292   7.743   4.336   0.486 -0.1028 -0.0655 -0.0096
 6399W        W22293   7.750  18.271  12.316 -0.1494  0.4154 -0.1657
 6400W        W22294  13.526   6.876   5.541  0.0600  0.2091 -0.0870
 6401W        W22295  15.588   5.414   3.724  0.1635 -0.2171  0.1758
 6402W        W22296   2.565  13.807   2.348 -0.1361 -0.0466 -0.0601
 6403W        W22297   6.488  15.872   4.648  0.2305  0.0509  0.3376
 6404W        W22298  10.781  12.102  15.724 -0.1602 -0.1711 -0.3681
 6405W        W22299  17.293   4.647  12.986 -0.0703  0.0981  0.3184
 6406W        W22300  10.315   1.068   2.432  0.1767  0.1619 -0.0357
 6407W        W22301   2.363  10.254   4.399  0.0846  0.0742  0.2412
 6408W        W22302  15.117  17.611  11.239  0.1119 -0.0419 -0.0529
 6409W        W22303  12.200   4.220   0.086 -0.2883 -0.1384  0.1006
 6410W        W22304  16.669   6.756   1.268  0.2527  0.0611 -0.0131
 6411W        W22305  13.419   7.865   0.957  0.1875 -0.0608 -0.1825
 6412W        W22306   4.700  13.071  13.611 -0.0888  0.1815  0.3188
 6413W        W22307   1.971  14.198  12.126  0.1101  0.2119  0.0414
 6414W        W22308  15.558  16.892  14.835  0.1570 -0.1706 -0.0667
 6415W        W22309  14.749   9.032   4.197 -0.1363 -0.0529 -0.0147
 6416W        W22310  15.164  11.008   3.282 -0.1291  0.1314 -0.0892
 6417W        W22311  10.094  13.344  11.152 -0.1688  0.4739  0.0529
 6418W        W22312   7.009  11.120   0.606  0.0426 -0.0419 -0.0042
 6419W        W22313   3.023   0.825  15.500  0.1468 -0.2318 -0.1713
 6420W        W22314   7.007   2.869  10.986 -0.1209 -0.3982  0.1064
 6421W        W22315  11.874  10.802  15.660 -0.0028 -0.0543 -0.0162
 6422W        W22316   3.260  17.554   0.133 -0.0210 -0.3828  0.3022
 6423W        W22317   5.638   1.756  10.837 -0.3417 -0.1356  0.1601
 6424W        W22318   0.153   1.670   0.694 -0.0023 -0.0675  0.0463
 6425W        W22319  15.320  15.772   4.160  0.3924 -0.0308  0.1518
 6426W        W22320   7.723   9.244  15.442  0.1365 -0.3488 -0.2351
 6427W        W22321  15.507   4.945  14.690 -0.2253 -0.1094  0.1461
 6428W        W22322   2.793  13.704   5.002  0.1245  0.0847  0.0896
 6429W        W22323  13.605  16.007  13.651 -0.0278  0.1133  0.1616
 6430W        W22324   5.586  10.870   4.300 -0.0469 -0.1987  0.1579
 6431W        W22325  13.290  16.909   3.965  0.1977  0.0081 -0.2015
 6432W        W22326  13.962   6.888  15.807 -0.1580  0.3073 -0.1401
 6433W        W22327  15.370  15.478  14.419  0.3494 -0.2799  0.4346
 6434W        W22328   0.942  14.511  14.275  0.2162 -0.1506  0.2844
 6435W        W22329   6.352   6.653   5.540 -0.0652  0.0408 -0.2812
 6436W        W22330  11.420  10.742   5.069  0.1670 -0.1175 -0.1285
 6437W        W22331  14.261  15.881  12.924  0.1186 -0.0206 -0.1846
 6438W        W22332   4.167  10.459   4.962 -0.0642 -0.1755  0.2083
 6439W        W22333  14.869  14.419   5.299 -0.4270 -0.1774 -0.0536
 6440W        W22334   2.395  11.656   3.533  0.1149  0.0094  0.2857
 6441W        W22335   8.723   9.233  12.949 -0.0555 -0.0278 -0.1390
 6442W        W22336   7.173   2.629  10.329 -0.0098 -0.2888  0.0104
 6443W        W22337   1.765   2.618   0.086  0.3159 -0.2985  0.0317
 6444W        W22338   8.737   7.801  15.381  0.1143  0.0516 -0.0381
 6445W        W22339   5.977   7.950  13.134 -0.3534  0.4510 -0.1665
 6446W        W22340  12.519  16.407  15.109  0.2919 -0.0494 -0.1049
 6447W        W22341   7.682   8.503  14.806 -0.4307 -0.1698 -0.1289
 6448W        W22342   1.313   2.161  12.960  0.0467 -0.2122 -0.3363
 6449W        W22343   5.289  12.866   2.270  0.0238  0.0834 -0.1031
 6450W        W22344   3.703  12.615  13.787  0.0347 -0.2080  0.2763
 6451W        W22345  10.532   8.468   2.186 -0.3523 -0.2847  0.0410
 6452W        W22346   9.032   5.811  11.062 -0.1651  0.0463  0.0580
 6453W        W22347  11.152   5.020  12.399  0.2702 -0.2142  0.0502
 6454W        W22348   9.603   0.334  14.854 -0.0951 -0.1915 -0.0711
 6455W        W22349   8.052   1.647  13.627 -0.0720  0.2410 -0.2445
 6456W        W22350   1.247   9.972   2.875 -0.1295  0.0643  0.1432
 6457W        W22351   1.806   2.314  15.747  0.3324 -0.1367 -0.1934
 6458W        W22352   4.736   8.058   2.366 -0.0875  0.3320  0.1802
 6459W        W22353  17.813   0.758   5.618  0.0322  0.0228  0.2755
 6460W        W22354  14.411   9.013   1.842  0.1051 -0.1258  0.1802
 6461W        W22355  13.201   1.422  13.459  0.0234  0.1545  0.2116
 6462W        W22356   6.323  14.814  11.908  0.0473 -0.0199  0.1019
 6463W        W22357  17.566   2.500   2.588 -0.3088  0.0912 -0.0280
 6464W        W22358  12.408   2.745  13.843 -0.1613 -0.4253  0.1091
 6465W        W22359   4.160   9.365   2.371  0.0468  0.0306 -0.3080
 6466W        W22360  12.351  14.185  13.722  0.0052 -0.0876 -0.0908
 6467W        W22361   8.573  15.427  11.563  0.0638  0.0407 -0.0436
 6468W        W22362  12.204   5.979   3.777 -0.0773 -0.2276  0.1153
 6469W        W22363  12.696  12.200   4.457  0.1091 -0.2990  0.0982
 6470W        W22364   0.048   0.082  14.737  0.4720 -0.1211 -0.4017
 6471W        W22365   0.024  15.201   0.133  0.1396 -0.1687 -0.0965
 6472W        W22366  18.299   7.124   3.478  0.0392 -0.1960 -0.0723
 6473W        W22367   2.551   0.566  14.673 -0.1911  0.1914 -0.0383
 6474W        W22368   0.057   2.524  10.518 -0.0533  0.0711  0.2313
 6475W        W22369  11.531   6.184   3.325  0.2169  0.0989 -0.1564
 6476W        W22370   4.393   4.144   4.545  0.2348 -0.0039  0.0422
 6477W        W22371   1.857   4.996  15.555 -0.1710  0.0246  0.0517
 6478W        W22372   8.078  11.726  15.702  0.0175  0.0038  0.1643
 6479W        W22373   8.368   1.651  12.650  0.0345  0.0672 -0.1499
 6480W        W22374   6.018  16.549   3.535  0.1288 -0.2999 -0.0893
 6481W        W22375   4.996  13.042  14.661  0.1045  0.1486 -0.0655
 6482W        W22376   3.165   3.830   2.719  0.3781  0.1878  0.1133
 6483W        W22377   7.371   1.281   5.754  0.1994  0.0822  0.1651
 6484W        W22378  11.221  15.462   0.465 -0.0781 -0.0500 -0.0889
 6485W        W22379  13.444   3.326  14.095  0.0091 -0.2806  0.3991
 6486W        W22380   2.383   1.483  10.913  0.0780 -0.0696 -0.1296
 6487W        W22381  14.046   3.293   2.965  0.0716  0.1539  0.0601
 6488W        W22382   2.260  16.045   2.092  0.0366  0.1819  0.1204
 6489W        W22383   6.822   4.626   5.512  0.1356 -0.3191 -0.0725
 6490W        W22384  16.608   8.413  13.334  0.0993  0.2425  0.1233
 6491W        W22385  10.186   4.165  15.829 -0.1501 -0.2292  0.0722
 6492W        W22386   4.650  17.889  15.806  0.2019 -0.0205  0.0300
 6493W        W22387   7.404   9.381  13.054 -0.0252 -0.0532  0.0456
 6494W        W22388  12.089   4.954   3.918 -0.2253  0.5873  0.1086
 6495W        W22389  15.493   4.007   3.252 -0.1631  0.1487 -0.2260
 6496W        W22390  12.348  11.325  14.707  0.0184 -0.2444  0.1051
 6497W        W22391   4.389   7.622   4.779 -0.1584 -0.3911  0.1456
 6498W        W22392  15.127  12.193  16.028  0.0505 -0.1926  0.0702
 6499W        W22393   2.853  13.996  14.965  0.2333  0.1879 -0.1094
 6500W        W22394   7.533  15.719  15.355  0.1737  0.0812  0.0281
 6501W        W22395   6.941  15.698   4.041 -0.5109 -0.5165 -0.0381
 6502W        W22396   8.568   4.310  15.365  0.2117  0.3452 -0.3615
 6503W        W22397  12.709   5.078   0.200 -0.0310  0.0651  0.1131
 6504W        W22398  10.309   8.370  11.181 -0.1486 -0.0695 -0.3273
 6505W        W22399   9.957   2.577  14.374 -0.1929  0.0890 -0.0513
 6506W        W22400  14.819  10.042   3.203  0.2871  0.0440 -0.2612
 6507W        W22401   5.055   3.262   0.749 -0.2770  0.3519  0.0906
 6508W        W22402   0.374   8.477  13.242  0.0791 -0.2518 -0.3037
 6509W        W22403   5.567   4.073   1.328  0.2241  0.2376  0.1512
 6510W        W22404  17.403   7.221   1.585 -0.1692  0.2009 -0.1550
 6511W        W22405   5.951   4.212  12.939  0.2204  0.0167 -0.3446
 6512W        W22406  11.440   7.709  13.130 -0.1392  0.1224 -0.2858
 6513W        W22407  16.447   5.838   4.905  0.0269 -0.0665 -0.0716
 6514W        W22408  16.651   5.242  15.631 -0.1980  0.0798 -0.0141
 6515W        W22409  12.191   6.431  12.660  0.1358 -0.4503  0.0133
 6516W        W22410  17.852   7.413  15.447 -0.1067  0.3165 -0.0118
 6517W        W22411   2.264  10.415  14.055 -0.1695 -0.1597  0.1522
 6518W        W22412   9.435   2.294   1.262 -0.1451 -0.2877  0.1075
 6519W        W22413   6.646  10.044  10.815  0.0913  0.1944  0.0779
 6520W        W22414   1.499   2.852   3.564  0.0505 -0.3301 -0.0307
 6521W        W22415   8.706   0.901   4.628  0.2712 -0.1186  0.0747
 6522W        W22416  17.771  13.965  15.292  0.3160 -0.0560 -0.2912
 6523W        W22417   8.916  10.343  12.325 -0.1606 -0.3938  0.1299
 6524W        W22418   4.088   2.938  11.909 -0.1132  0.0595  0.2585
 6525W        W22419   6.795  11.185  13.017 -0.0704  0.0618  0.0179
 6526W        W22420  13.784   5.531  15.091 -0.2756  0.0277  0.0434
 6527W        W22421   2.096   8.833   4.840 -0.1336 -0.3258 -0.0361
 6528W        W22422  12.169   5.199   5.906  0.0305 -0.0219 -0.0892
 6529W        W22423   1.467   9.865   2.309 -0.1370 -0.0254 -0.3373
 6530W        W22424  18.253   4.010   3.864  0.0170  0.1211 -0.3119
 6531W        W22425   2.230  16.259   1.132 -0.5364  0.3604  0.1634
 6532W        W22426   1.825   9.805   2.658 -0.0103 -0.0989 -0.1188
 6533W        W22427  17.341  13.472  11.812 -0.1273  0.1966  0.0110
 6534W        W22428  14.213  16.162  14.857  0.5150 -0.1090  0.0341
 6535W        W22429   2.522   0.128   0.815 -0.1411  0.2340  0.3641
 6536W        W22430   5.663  11.156   4.808  0.0940  0.0363 -0.2213
 6537W        W22431  15.739  10.003   1.561  0.1517 -0.0500 -0.2118
 6538W        W22432   4.877   6.309   4.118  0.2051  0.0908  0.3336
 6539W        W22433  16.580  15.235  12.006  0.2733 -0.3332  0.0566
 6540W        W22434   0.328   5.895  13.688 -0.1524 -0.0033  0.0457
 6541W        W22435  11.870  10.317   6.365  0.1804  0.1406  0.2969
 6542W        W22436  16.799   2.993   1.233 -0.1816  0.3250 -0.1857
 6543W        W22437   1.856   3.580   2.571  0.1406  0.2590  0.4526
 6544W        W22438   1.816   1.011  13.821  0.1001 -0.1394 -0.2705
 6545W        W22439   2.836  10.715   2.145  0.0050  0.5095 -0.0825
 6546W        W22440   3.943   4.058   6.522  0.1556 -0.1374 -0.1841
 6547W        W22441   1.261   2.225   4.791 -0.1650 -0.1364  0.2113
 6548W        W22442   8.675  13.536   1.390  0.0122  0.2813  0.2783
 6549W        W22443  11.589  11.543   3.919 -0.0884  0.1189 -0.0283
 6550W        W22444   8.769   2.899  11.625  0.0211  0.0383 -0.1097
 6551W        W22445  14.217  12.636  13.380  0.4385  0.2502 -0.3422
 6552W        W22446   4.681  11.935   3.224 -0.2344  0.1931 -0.1041
 6553W        W22447  17.500  15.976  15.783 -0.0140  0.4138 -0.1023
 6554W        W22448  12.818  12.925   0.722  0.2204  0.0286  0.0902
 6555W        W22449  15.363   3.521   3.228 -0.2372 -0.2271 -0.0613
 6556W        W22450  14.000  10.347  11.519 -0.0411  0.0386 -0.1245
 6557W        W22451  11.065   8.154  14.483  0.3007 -0.1873  0.3566
 6558W        W22452  18.068  12.074  15.127 -0.1285 -0.0251  0.1483
 6559W        W22453  14.467   1.108   3.082  0.1444  0.0445  0.3271
 6560W        W22454  12.059  17.222   2.881  0.1758  0.0724 -0.0214
 6561W        W22455  12.335  16.088  13.021 -0.1006  0.3551  0.1105
 6562W        W22456  14.455   0.962  12.226 -0.2107 -0.2765 -0.2541
 6563W        W22457  15.583   0.652  15.941  0.0934  0.0207  0.0053
 6564W        W22458   0.064  16.395   1.872  0.1960  0.1000  0.0796
 6565W        W22459  10.687   6.637   0.624 -0.0555 -0.0901  0.1749
 6566W        W22460  12.460  10.222  10.604  0.4385  0.2763  0.3088
 6567W        W22461   8.922   8.372   1.020  0.2889  0.1414  0.2345
 6568W        W22462   6.359  12.874   4.158 -0.0451 -0.0908  0.0047
 6569W        W22463  18.100  14.143   2.752 -0.0719  0.3483 -0.0489
 6570W        W22464  15.738  12.564   4.754  0.2141 -0.0608 -0.1101
 6571W        W22465  18.245   2.400   0.487  0.1741 -0.0312  0.0427
 6572W        W22466   6.843   6.888  16.049 -0.0019 -0.0409 -0.1710
 6573W        W22467   9.593   8.731  15.306  0.0919 -0.2503  0.0372
 6574W        W22468   6.579   1.442  14.097 -0.2275  0.1742  0.0088
 6575W        W22469  17.993   5.341  12.153 -0.5084 -0.1711  0.2133
 6576W        W22470   3.518   5.264   4.658  0.1130  0.0695 -0.0523
 6577W        W22471   6.559   3.388   5.123  0.2139 -0.1807 -0.1400
 6578W        W22472   4.629   4.404   1.996  0.1731 -0.1934  0.1754
 6579W        W22473  14.757  15.360   3.395  0.0542  0.1214 -0.0810
 6580W        W22474   2.739  15.263  12.809 -0.3651 -0.0622 -0.3207
 6581W        W22475   6.219   6.226  16.085  0.0111  0.1311 -0.0109
 6582W        W22476  11.946   5.354  12.597 -0.0922 -0.0527  0.0136
 6583W        W22477  16.182   0.119   2.648  0.0520 -0.1599  0.2402
 6584W        W22478   8.144  16.773  10.823 -0.1703  0.0068  0.4319
 6585W        W22479   5.009   9.818  11.296  0.0560  0.0824 -0.2044
 6586W        W22480  16.913   6.658   0.809 -0.1625 -0.2061  0.0820
 6587W        W22481  11.948  16.135  13.366  0.1515  0.2562  0.3448
 6588W        W22482   9.747   4.777  14.178 -0.0438  0.1601  0.0396
 6589W        W22483  12.440   1.754   0.068  0.3174  0.1182  0.0860
 6590W        W22484   2.066   2.312   3.704  0.2490 -0.1507 -0.1422
 6591W        W22485   6.055  14.285   0.029  0.0313 -0.1881  0.0210
 6592W        W22486  17.384  18.357   1.890  0.1596  0.1353  0.1517
 6593W        W22487  16.586  10.204   4.629 -0.0453 -0.0390  0.0566
 6594W        W22488  11.079  10.740  11.100 -0.0923 -0.1005  0.0074
 6595W        W22489   5.384   9.390   1.239 -0.1174 -0.0636 -0.0308
 6596W        W22490  15.438  16.511  11.661  0.0907 -0.0565 -0.0735
 6597W        W22491   4.055  10.745  13.122 -0.0505 -0.0376 -0.2590
 6598W        W22492  16.805   1.691  12.348  0.2972 -0.0773  0.0706
 6599W        W22493   8.698  11.409   0.663 -0.0255  0.0671 -0.0491
 6600W        W22494  13.522  13.621  13.260  0.0688  0.4318  0.1204
 6601W        W22495   7.518   6.738  15.814 -0.1202  0.0510 -0.0917
 6602W        W22496   2.811   7.289  14.066  0.4152 -0.2561  0.2667
 6603W        W22497   8.164   0.521   5.366 -0.2325 -0.2698  0.3084
 6604W        W22498   1.254   1.566  11.927 -0.0641 -0.0353  0.0060
 6605W        W22499   9.859   5.539   4.218 -0.1887 -0.1313 -0.0150
 6606W        W22500   8.065   5.909   0.461 -0.3042 -0.1339 -0.2573
 6607W        W22501   2.864   0.501   0.824  0.0236 -0.3371 -0.0588
 6608W        W22502  10.879   8.173   2.400  0.0830  0.1143 -0.1083
 6609W        W22503   2.051   7.994   5.035  0.0405  0.2957  0.0519
 6610W        W22504  14.886  17.244   2.547 -0.0998  0.0877 -0.1285
 6611W        W22505  17.109  12.504  12.096  0.0944  0.1708 -0.0282
 6612W        W22506   3.761  15.158   2.997  0.2706 -0.0736 -0.1901
 6613W        W22507  12.583   5.368   3.833  0.1351  0.2320  0.0537
 6614W        W22508  16.453   4.628  11.902 -0.0501 -0.1871  0.1812
 6615W        W22509   6.456  15.058  16.093 -0.4932 -0.2523  0.2216
 6616W        W22510   6.200   9.241  13.558 -0.1037  0.0228 -0.3246
 6617W        W22511  12.329   0.544  15.726  0.0598 -0.0493 -0.1310
 6618W        W22512  13.657   2.591  12.590  0.1438 -0.0244  0.3045
 6619W        W22513   9.584   1.826  14.115  0.3971 -0.2704  0.4816
 6620W        W22514   5.574   1.260  14.550  0.0911 -0.2507 -0.1213
 6621W        W22515  11.392  11.718   1.155  0.0275  0.0927 -0.3278
 6622W        W22516   6.712  15.886   1.516 -0.0204  0.0316  0.0121
 6623W        W22517   4.693   2.767   4.815  0.1751  0.2857 -0.1063
 6624W        W22518   1.442   7.675  14.372  0.2702  0.1404  0.1418
 6625W        W22519  12.513  11.406   3.749 -0.1904  0.0908  0.1857
 6626W        W22520  13.128   2.535   3.360  0.0890 -0.1195  0.2669
 6627W        W22521  10.018   0.933  14.238  0.0505  0.0720 -0.1851
 6628W        W22522   9.376  10.453  15.910  0.1798 -0.0411  0.2421
 6629W        W22523   5.469   5.751  11.296 -0.1199 -0.2745 -0.2048
 6630W        W22524   4.341  15.468  14.461 -0.0610 -0.2941 -0.2039
 6631W        W22525   7.534  14.081  11.698  0.1415 -0.2743 -0.1486
 6632W        W22526  10.660  16.185  14.690  0.1285 -0.1110 -0.6322
 6633W        W22527  14.437   7.760   2.573  0.1112  0.0730 -0.0281
 6634W        W22528   9.101   0.815  11.192  0.0263  0.0910  0.0031
 6635W        W22529  10.333  12.472   2.274 -0.1572 -0.0407  0.0611
 6636W        W22530   8.337  18.434   5.375 -0.1890  0.0002 -0.2209
 6637W        W22531   5.991   4.604  11.613 -0.5503 -0.1960 -0.1501
 6638W        W22532  17.826  17.968  14.910  0.2140 -0.3971 -0.3097
 6639W        W22533  12.095   8.166   3.020  0.0656 -0.2066  0.0269
 6640W        W22534  14.750   5.325  13.441  0.1759 -0.2596  0.0130
 6641W        W22535  13.855   6.980   4.881 -0.1632 -0.1320 -0.0980
 6642W        W22536   7.383  13.913   1.933  0.2750 -0.1438  0.2101
 6643W        W22537   8.759  17.308  13.273  0.3617 -0.3404  0.1153
 6644W        W22538   3.491   6.417  11.476 -0.0208  0.1151  0.0823
 6645W        W22539   3.954   1.434  14.399 -0.1766  0.0316 -0.1538
 6646W        W22540  15.812  10.484   3.786  0.1995 -0.0348 -0.0792
 6647W        W22541  17.383  13.525   4.562 -0.1731 -0.4485  0.0434
 6648W        W22542   1.267   4.465  12.006  0.0433  0.1774 -0.0792
 6649W        W22543   6.752  17.261   0.280 -0.4149  0.2020  0.0169
 6650W        W22544  12.356   2.959   5.718  0.0935 -0.1523  0.3721
 6651W        W22545  10.642  11.459  14.107 -0.4706 -0.0269  0.1707
 6652W        W22546   7.494   1.379   5.232 -0.0398 -0.1582 -0.2187
 6653W        W22547   0.837  17.271  11.101  0.1301  0.1258 -0.0783
 6654W        W22548   5.029   6.966  15.714  0.2885 -0.1261  0.1951
 6655W        W22549   0.756  17.919   3.011 -0.0570  0.0793  0.0105
 6656W        W22550   4.244  15.887  15.634  0.0265 -0.0773 -0.3838
 6657W        W22551  12.339   6.816  13.483  0.0526  0.1250 -0.0338
 6658W        W22552   9.939  16.266  11.394 -0.0900  0.2290 -0.1678
 6659W        W22553  13.511   2.444  13.112  0.3612  0.1707  0.0152
 6660W        W22554  12.808  15.371   1.984  0.1014  0.0117 -0.0484
 6661W        W22555  14.484   4.818  14.935 -0.0405 -0.0146  0.1056
 6662W        W22556  10.812  17.198   2.704 -0.1241 -0.2587  0.2046
 6663W        W22557  16.145   7.989   5.525  0.1636  0.3013  0.0691
 6664W        W22558   6.922   3.931   3.562  0.0147 -0.2383  0.2213
 6665W        W22559  11.446  10.247   1.223 -0.2403 -0.1366  0.1624
 6666W        W22560  14.010   8.048  14.807  0.0016 -0.1718 -0.3081
 6667W        W22561   2.693  13.686   1.775 -0.0489  0.4219 -0.2367
 6668W        W22562   4.300  16.919  13.288 -0.1726 -0.0316  0.0450
 6669W        W22563  15.957  13.267  13.811  0.0889 -0.0199 -0.0808
 6670W        W22564  13.587   1.356   1.228  0.2673  0.1119  0.0704
 6671W        W22565   7.879  12.474   2.541  0.3651  0.0780  0.0244
 6672W        W22566  13.457   3.988   4.441  0.0283  0.0917 -0.3467
 6673W        W22567   4.904  17.640  12.169 -0.1141  0.0330 -0.3516
 6674W        W22568  17.153   1.922   4.758 -0.0706 -0.1437 -0.0860
 6675W        W22569   7.243   7.739   6.525 -0.2626  0.2252  0.0604
 6676W        W22570  17.107  14.481   0.367  0.1005  0.0293 -0.0180
 6677W        W22571  15.982   7.509  15.558  0.1095 -0.1311 -0.1292
 6678W        W22572   3.644  15.659  13.373  0.1861 -0.1037  0.0199
 6679W        W22573   1.243  13.336  12.892 -0.1259  0.4918  0.1479
 6680W        W22574  16.473   5.110  11.836  0.2330 -0.1235  0.1850
 6681W        W22575   0.727   0.472  11.700 -0.2288  0.2888 -0.4419
 6682W        W22576  14.869  15.977  15.802 -0.2257  0.0051 -0.3197
 6683W        W22577   8.867   6.170  13.594  0.0199 -0.1715  0.2972
 6684W        W22578  11.387  12.526   4.783 -0.0511  0.0990 -0.2457
 6685W        W22579   9.518   8.167   4.914 -0.1179  0.0873  0.1948
 6686W        W22580  16.682  10.895   2.122 -0.0202  0.2311 -0.1475
 6687W        W22581  14.714  12.865  11.011  0.0564 -0.0065  0.1811
 6688W        W22582  17.741  11.897   3.249  0.3376  0.0359  0.1296
 6689W        W22583  17.558  16.301   2.003 -0.1024  0.1380  0.3904
 6690W        W22584   0.829   5.624  11.866  0.2033  0.0653 -0.1916
 6691W        W22585   4.943   0.395  13.118  0.3194 -0.2043  0.1256
 6692W        W22586   3.997   1.004  14.979  0.3881 -0.3010  0.1329
 6693W        W22587   0.613  11.708  15.051  0.2714  0.0747 -0.2390
 6694W        W22588   0.531  12.930   1.912  0.0666 -0.0357 -0.3462
 6695W        W22589  14.588  17.402  12.586  0.1438 -0.0976 -0.1228
 6696W        W22590   9.079   4.724   0.734  0.0677 -0.0465  0.0753
 6697W        W22591  12.661  15.752   4.675  0.1463 -0.1633 -0.1978
 6698W        W22592   0.712  10.851   3.583  0.0510 -0.0168 -0.0402
 6699W        W22593   8.562   6.984   5.922 -0.1531 -0.1224  0.1767
 6700W        W22594   3.816   4.072  10.993 -0.2090  0.1725 -0.0183
 6701W        W22595   6.069   0.877   3.254  0.1147  0.1757 -0.0440
 6702W        W22596  13.599   2.393  14.876 -0.1605  0.1278  0.0198
 6703W        W22597  14.430   4.225   1.165 -0.2208  0.0381  0.0807
 6704W        W22598   4.626   0.502   3.655 -0.1207  0.2660 -0.3593
 6705W        W22599  16.993  11.869   2.080 -0.0432 -0.0557  0.1545
 6706W        W22600   5.325  12.100  11.006 -0.0114  0.2262 -0.1663
 6707W        W22601   6.330  14.151  12.593 -0.1975  0.3189 -0.1494
 6708W        W22602  12.205   2.196   3.159 -0.2133 -0.1561  0.0188
 6709W        W22603   1.788   5.592  15.458  0.2336  0.0470  0.1429
 6710W        W22604  10.423  10.072   0.807 -0.0969 -0.3523  0.1499
 6711W        W22605   7.831   1.434  11.512  0.0962  0.2067  0.4110
 6712W        W22606  18.301   7.232   4.564  0.0488 -0.1732  0.3167
 6713W        W22607   0.094   5.012  14.099  0.2452 -0.1095 -0.1061
 6714W        W22608   4.957   3.995  15.039  0.1171 -0.1720 -0.0772
 6715W        W22609   0.770   0.019   4.071 -0.1410  0.1060 -0.2875
 6716W        W22610   8.669  17.244   3.822 -0.2186  0.1521 -0.1096
 6717W        W22611  15.331   5.160  15.311  0.3937  0.0833 -0.2246
 6718W        W22612   7.516   4.174  12.753 -0.0901  0.0673 -0.1159
 6719W        W22613   0.014   8.560  14.361  0.3464  0.2439  0.1970
 6720W        W22614   2.971   7.344   0.970  0.0373  0.0855 -0.1960
 6721W        W22615  15.044  14.958  13.675  0.0835 -0.0110 -0.3999
 6722W        W22616   9.746   4.904  12.041  0.0195 -0.2041 -0.1002
 6723W        W22617   7.872   1.699  14.133  0.1681  0.0803 -0.2826
 6724W        W22618   6.654   3.676   9.771 -0.0142  0.1522  0.0895
 6725W        W22619   8.194   1.351   5.004 -0.2014  0.0919 -0.2586
 6726W        W22620   4.129  14.329   4.587 -0.0372  0.2661 -0.0158
 6727W        W22621   5.704  10.030   0.570 -0.1024  0.0370 -0.2040
 6728W        W22622  15.991   9.376   0.885  0.0678  0.0137  0.4960
 6729W        W22623   6.709  14.138   1.483  0.2537 -0.1984 -0.0785
 6730W        W22624   9.782   2.006   5.080 -0.1364  0.2713 -0.0020
 6731W        W22625   9.583  14.940  10.946  0.1851 -0.0405  0.0683
 6732W        W22626   1.474   6.966  11.754  0.2189 -0.0142 -0.1280
 6733W        W22627   0.522   8.531  15.853  0.1198 -0.1089 -0.0923
 6734W        W22628  17.665  13.759   0.198 -0.4842 -0.2355  0.2273
 6735W        W22629  11.900  10.823   4.844  0.2036 -0.1447  0.0886
 6736W        W22630  16.610  11.999   1.606 -0.0941  0.0392  0.3009
 6737W        W22631   0.596  17.072   5.288 -0.2410 -0.2741  0.1604
 6738W        W22632   1.361  13.680   2.811 -0.0426  0.1338  0.0399
 6739W        W22633  10.976   6.055  15.701  0.2469 -0.0121 -0.0180
 6740W        W22634  18.074   3.740  11.357 -0.2310  0.2971 -0.1137
 6741W        W22635  13.322  10.826   1.146  0.2805  0.1460 -0.1323
 6742W        W22636  15.400  17.325  15.711 -0.4087 -0.0455  0.1058
 6743W        W22637   2.629   1.375  11.650  0.1536  0.3903  0.3015
 6744W        W22638  17.498   7.007   5.638  0.0149 -0.3137  0.0166
 6745W        W22639  11.131   4.370  15.161  0.1473  0.3338  0.2945
 6746W        W22640  16.859  11.869   0.206  0.0013 -0.0991 -0.0903
 6747W        W22641  13.260  13.166   0.844 -0.1635  0.3366  0.1594
 6748W        W22642  14.043   2.264   1.534  0.2611  0.2407 -0.0607
 6749W        W22643  16.208   6.859  14.940 -0.2428 -0.4558 -0.0276
 6750W        W22644   1.834  11.645   2.316  0.2755  0.3364  0.0021
 6751W        W22645   0.941   0.072   5.937  0.1928 -0.1982  0.0362
 6752W        W22646   1.664  11.214   2.231  0.0127 -0.3264  0.0226
 6753W        W22647   4.022  10.815   0.032 -0.1974  0.3061 -0.0054
 6754W        W22648   7.660   9.682  14.586 -0.1521 -0.1181 -0.3191
 6755W        W22649  17.264  18.468  13.475  0.0383 -0.2177  0.3788
 6756W        W22650  18.136  13.882  12.973 -0.1783 -0.0572  0.0117
 6757W        W22651   6.083  13.996  10.815  0.3578  0.0508  0.3969
 6758W        W22652   7.474   4.553   3.468  0.3792  0.0774  0.1193
 6759W        W22653  16.577  16.315   2.890  0.2325  0.0076 -0.2206
 6760W        W22654  17.495  16.526  14.591 -0.0769 -0.0424 -0.3418
 6761W        W22655   6.440   7.166   1.311  0.1849  0.2096 -0.0931
 6762W        W22656  12.298   1.430  15.632 -0.0347 -0.1705 -0.0818
 6763W        W22657  10.839  15.578  10.345 -0.0504  0.1252  0.1645
 6764W        W22658   6.469   4.496  11.719 -0.0653 -0.2890 -0.1346
 6765W        W22659   4.292  13.449   3.895  0.1256 -0.1941  0.1350
 6766W        W22660   6.728   4.464  12.121 -0.0951 -0.2212  0.0137
 6767W        W22661  17.456  11.125   3.938  0.0606 -0.5999  0.3228
 6768W        W22662   2.436   1.095  11.277 -0.0539 -0.2576 -0.1337
 6769W        W22663  11.985  13.210  12.883  0.0417  0.0530  0.0692
 6770W        W22664   7.042   4.219   5.897 -0.0791 -0.1110  0.0899
 6771W        W22665  10.750  14.995  15.463 -0.1811  0.2021  0.0059
 6772W        W22666   2.668   8.367  15.589 -0.1262 -0.0338  0.1517
 6773W        W22667   4.710   3.984  10.862 -0.1974 -0.2063 -0.1762
 6774W        W22668   9.215  11.135   3.355  0.1245 -0.1180 -0.1953
 6775W        W22669   0.750   5.009  14.075 -0.1570  0.1665  0.1774
 6776W        W22670  15.382   6.042  15.818 -0.2541 -0.0077  0.3197
 6777W        W22671  18.231  17.699   0.321 -0.1684  0.2083  0.1707
 6778W        W22672  16.711   7.939   2.711 -0.1916 -0.0042 -0.0139
 6779W        W22673   6.521  16.181   5.037 -0.0167  0.1770 -0.1477
 6780W        W22674  11.775   4.884  15.612  0.2074  0.0242  0.0106
 6781W        W22675  10.396  11.906   1.319  0.0236  0.1249 -0.2434
 6782W        W22676   5.481   6.059  12.976 -0.3241  0.0511  0.0513
 6783W        W22677   0.107   8.072   4.368  0.0022 -0.2557  0.1623
 6784W        W22678   1.946   4.164   3.144 -0.1491 -0.1756 -0.3065
 6785W        W22679  18.262   0.952   0.989 -0.1330 -0.1002  0.1164
 6786W        W22680   9.392  10.537  10.941 -0.1489  0.2015 -0.3640
 6787W        W22681  15.006   5.731  12.338 -0.0017  0.0858  0.0954
 6788W        W22682   5.747   9.001   5.614  0.0723  0.1133 -0.0515
 6789W        W22683  15.324  14.471  11.776 -0.5474  0.2003  0.1604
 6790W        W22684   2.731   2.132   5.382  0.1655 -0.0598  0.0125
 6791W        W22685   0.728   0.721   0.758 -0.0412 -0.5305  0.0199
 6792W        W22686  14.210   2.102   4.816 -0.0681 -0.1390  0.0484
 6793W        W22687  10.943  10.300   2.135 -0.0910  0.0535  0.0031
 6794W        W22688  16.754   8.928   2.691  0.0300  0.0742  0.1328
 6795W        W22689  17.087  11.012   5.956  0.0619 -0.1673  0.2922
 6796W        W22690   0.338   2.263  16.033 -0.1670  0.0914 -0.2082
 6797W        W22691  13.047   7.294   2.702 -0.0882 -0.0580 -0.0105
 6798W        W22692   7.770  16.377  12.979 -0.1695 -0.1546  0.2974
 6799W        W22693   8.050   3.168   2.263 -0.1771  0.1286 -0.1479
 6800W        W22694   4.951   9.732  14.658 -0.1177  0.0722  0.1102
 6801W        W22695  13.000   8.292   0.214 -0.0581 -0.0797  0.2157
 6802W        W22696  15.506   7.652  15.429  0.0026  0.1089 -0.2464
 6803W        W22697   1.724   7.064   2.824 -0.0125  0.1547 -0.0371
 6804W        W22698   3.570  16.925  11.614  0.1161  0.3103 -0.0262
 6805W        W22699   4.256   9.521  14.000 -0.0574  0.1258 -0.0780
 6806W        W22700  11.722  10.829   0.880  0.0342 -0.2040 -0.0812
 6807W        W22701   2.098  15.157   0.912  0.1511 -0.1342 -0.2151
 6808W        W22702   1.909  15.640   5.511 -0.0257  0.3093  0.1075
 6809W        W22703   6.320   9.137  14.290 -0.6083  0.0344 -0.2493
 6810W        W22704   5.975  17.918  13.034  0.0019  0.0900 -0.1267
 6811W        W22705  13.467  14.912   5.394 -0.2857 -0.0118  0.0542
 6812W        W22706  11.984  14.641   3.231  0.1205  0.1896 -0.1247
 6813W        W22707   1.802  14.248  14.279  0.2589 -0.0374 -0.0273
 6814W        W22708  10.230   8.381   4.321  0.1103 -0.0463 -0.1340
 6815W        W22709  18.333  16.016  15.530 -0.3607 -0.2529  0.1861
 6816W        W22710   0.362  12.819  12.670  0.2584 -0.1515  0.0797
 6817W        W22711  13.603   7.475  12.769  0.2740 -0.0059 -0.1289
 6818W        W22712   2.121   0.287  12.816  0.2089 -0.1274  0.1383
 6819W        W22713   4.916  13.437   3.555 -0.0107 -0.1618 -0.0883
 6820W        W22714  16.194  16.026  16.130  0.4377 -0.0187  0.0333
 6821W        W22715  17.851  14.182   1.459  0.0337  0.1166 -0.2775
 6822W        W22716  10.537  17.327   0.169 -0.3677  0.1639 -0.1309
 6823W        W22717   7.995   7.072  16.000  0.0017  0.0229  0.1579
 6824W        W22718   3.367   1.060   1.262 -0.0700 -0.0679 -0.0661
 6825W        W22719  14.664  13.366  14.356  0.1078  0.0011 -0.1273
 6826W        W22720  13.062   5.295   1.685 -0.0237 -0.1243 -0.3255
 6827W        W22721  14.684  10.789  14.004 -0.4226 -0.2746 -0.1527
 6828W        W22722   5.775   7.232   5.737 -0.0023 -0.4599 -0.0095
 6829W        W22723   1.876  16.377   5.098  0.1016  0.0541  0.0735
 6830W        W22724  17.503   0.682   2.374  0.1352 -0.0050  0.1694
 6831W        W22725   4.042   8.260  13.057  0.0048  0.1053  0.4178
 6832W        W22726   1.241   2.304   1.416 -0.0858  0.1989 -0.1906
 6833W        W22727   4.771  18.408  15.889 -0.0805  0.0158 -0.2637
 6834W        W22728   0.536   2.769   6.380  0.0013  0.0300  0.0201
 6835W        W22729  10.714   0.116  12.734 -0.2100 -0.0006  0.1750
 6836W        W22730  11.229   5.904  11.306 -0.0537 -0.1532 -0.0988
 6837W        W22731   4.559   9.481  12.777  0.1616  0.1229 -0.1253
 6838W        W22732   5.283   2.138   3.287  0.0576  0.0133  0.0136
 6839W        W22733   4.115   4.792   3.054 -0.0674 -0.3182  0.1192
 6840W        W22734   1.172  18.006   5.553  0.0603  0.3227  0.1724
 6841W        W22735  13.523  13.234  15.102 -0.2531 -0.0721  0.0331
 6842W        W22736   4.704  10.612   3.573 -0.1612  0.0671  0.0791
 6843W        W22737  17.057   4.303  15.537 -0.0005  0.1361  0.2819
 6844W        W22738   8.958  17.098   0.478  0.4262 -0.2744  0.3937
 6845W        W22739   4.182  14.693   4.243 -0.1888 -0.2730  0.0676
 6846W        W22740  15.433   2.844  12.160 -0.0274 -0.0321  0.2012
 6847W        W22741   2.681   4.340  13.254 -0.0956 -0.3629  0.0745
 6848W        W22742   8.410   3.241   1.400  0.2308 -0.1635  0.0578
 6849W        W22743  15.839   2.270  15.053  0.3399 -0.1396  0.1590
 6850W        W22744  14.574  18.316   3.451  0.3449  0.1777 -0.0394
 6851W        W22745   3.917   6.052  11.771  0.0346  0.0782  0.1659
 6852W        W22746  16.853  14.845   4.027  0.1632 -0.0462 -0.0074
 6853W        W22747   1.974  17.901  14.216 -0.3320 -0.0602 -0.0254
 6854W        W22748   2.610   1.068   4.677 -0.1163 -0.3535  0.2387
 6855W        W22749   3.529   9.805  15.454 -0.0348  0.2376 -0.0983
 6856W        W22750   3.885   5.236   2.838  0.0030  0.0197  0.3792
 6857W        W22751  16.199   8.962   1.067 -0.1650  0.2048  0.0578
 6858W        W22752   3.384   6.998  15.993 -0.1331  0.1199  0.1205
 6859W        W22753   7.240   3.166  13.219 -0.2209  0.0244 -0.4445
 6860W        W22754  14.854   6.389   0.853 -0.1830 -0.1179 -0.3076
 6861W        W22755  11.447   2.169   2.173  0.1363  0.0291  0.1044
 6862W        W22756   8.712  13.321  11.980  0.2384 -0.1462 -0.2713
 6863W        W22757  11.423  12.009   3.682 -0.0659  0.1768  0.0555
 6864W        W22758   9.302   6.330   3.227  0.0056  0.0077 -0.2566
 6865W        W22759  16.386   1.693   4.944  0.2558  0.0146 -0.2566
 6866W        W22760   9.129   3.521   3.650  0.3221 -0.0711 -0.0670
 6867W        W22761   4.413   3.038  15.928 -0.1428 -0.2056 -0.0019
 6868W        W22762   8.946   3.545   4.146  0.0758  0.3097 -0.1644
 6869W        W22763  14.044  17.083  12.684  0.0445 -0.1792 -0.0235
 6870W        W22764  13.903   3.866   5.455  0.2321  0.1444  0.1015
 6871W        W22765  14.378  17.028   3.144 -0.1555  0.1825  0.1742
 6872W        W22766   7.584   7.956  15.655 -0.3010 -0.1235  0.1462
 6873W        W22767   4.532  17.694  11.817  0.1320  0.3703  0.3809
 6874W        W22768  13.578   7.049   3.566  0.2335 -0.1156 -0.2505
 6875W        W22769   0.581   7.581  16.045  0.2197  0.1086 -0.1217
 6876W        W22770   1.186   7.789  14.983 -0.0768 -0.1949  0.2286
 6877W        W22771   4.855   7.613  14.366 -0.0089 -0.0694  0.3329
 6878W        W22772   4.941   8.332   1.481  0.0674  0.0646  0.1477
 6879W        W22773   9.328  17.184   4.110 -0.5166 -0.0797 -0.0417
 6880W        W22774  18.013  15.332  13.117  0.1273  0.1943  0.2590
 6881W        W22775   7.032   4.283  15.698 -0.1193 -0.1436 -0.0166
 6882W        W22776   0.428  13.254  13.361  0.0554 -0.3854 -0.0380
 6883W        W22777   0.893  10.055  13.759  0.3369  0.0593  0.0348
 6884W        W22778   1.919  12.932   1.748  0.1394 -0.3286  0.1469
 6885W        W22779  17.504   4.555   0.919  0.1699 -0.3259  0.1063
 6886W        W22780  13.319  17.859  10.521 -0.0065 -0.1445 -0.0445
 6887W        W22781   0.181  16.674   4.526 -0.2155  0.3934  0.0020
 6888W        W22782   6.878   2.571  14.794 -0.3991  0.2470  0.0614
 6889W        W22783  11.773  13.076  15.563 -0.0319  0.1176  0.3007
 6890W        W22784   0.768  11.340   1.434  0.0107  0.3421  0.2495
 6891W        W22785   7.675   2.755  13.218  0.1546  0.4531  0.0264
 6892W        W22786  13.086  18.160  14.628 -0.2931  0.4347 -0.0627
 6893W        W22787   5.834   6.860   3.649  0.5208 -0.0047 -0.3437
 6894W        W22788   5.034   4.022   3.793  0.1714  0.0737 -0.1785
 6895W        W22789  13.467  17.226  14.634 -0.0582 -0.0484 -0.0706
 6896W        W22790  12.866  12.172   3.388  0.2961  0.0489  0.2222
 6897W        W22791   7.578   0.837   0.147  0.1760  0.1708  0.0073
 6898W        W22792   6.686  17.471  16.008  0.0748  0.2942  0.2156
 6899W        W22793   3.144   1.635   3.412  0.2028 -0.1599  0.1622
 6900W        W22794   2.937   0.176  14.746 -0.2681 -0.1210 -0.2142
 6901W        W22795   9.765   8.563   5.325 -0.3344 -0.2056  0.1240
 6902W        W22796   7.908   8.682   3.979 -0.3323 -0.0329 -0.0078
 6903W        W22797  15.051  18.195  11.880 -0.0064 -0.2273  0.0399
 6904W        W22798  15.441  10.558  12.914  0.0571  0.0487  0.0258
 6905W        W22799   8.755   7.149  13.251 -0.0317 -0.0634 -0.4091
 6906W        W22800  16.601   2.158  11.368 -0.1673  0.1254 -0.0891
 6907W        W22801   7.247  11.435  11.723  0.2904  0.3922 -0.0408
 6908W        W22802   4.807  11.179  10.931 -0.0635 -0.0812  0.0531
 6909W        W22803  14.356  10.353   3.986  0.0193  0.0069 -0.1387
 6910W        W22804   0.498   6.678   3.248  0.3170  0.0189 -0.0552
 6911W        W22805   5.914   4.350   3.561 -0.4907  0.2362  0.0104
 6912W        W22806  14.613  18.297  14.537 -0.3867 -0.0850  0.3496
 6913W        W22807  14.901   4.162   0.325  0.0607 -0.1736 -0.0888
 6914W        W22808  14.028   7.892   0.920 -0.2277 -0.4229 -0.4313
 6915W        W22809  18.232  10.389   1.239  0.1340  0.1976 -0.0202
 6916W        W22810   3.310   5.096  13.659 -0.0414  0.0478 -0.1939
 6917W        W22811   6.017   5.765  15.217  0.3563  0.2586  0.1204
 6918W        W22812  11.845   3.175  12.349  0.2281 -0.0491  0.1740
 6919W        W22813  10.326  11.092  11.699 -0.2302 -0.1809 -0.0393
 6920W        W22814   2.843   8.717  15.318  0.0200  0.2143  0.0756
 6921W        W22815  16.625  11.361  14.246 -0.0998  0.3702  0.3178
 6922W        W22816   6.411   1.036   4.892  0.0491 -0.2752 -0.1548
 6923W        W22817   0.313   3.052   0.188 -0.1187  0.1147 -0.1718
 6924W        W22818   2.899  16.224  14.434  0.3038  0.3083 -0.0422
 6925W        W22819  13.172   0.789   0.523  0.2443 -0.1646 -0.0803
 6926W        W22820   4.808  11.458   3.290 -0.1654 -0.2331 -0.2670
 6927W        W22821   3.243   9.650   4.985 -0.0306 -0.1640  0.0690
 6928W        W22822   7.011  16.335  14.783  0.2500 -0.2158  0.2104
 6929W        W22823   9.641   9.309  10.955 -0.0328  0.0838 -0.0814
 6930W        W22824   5.616   9.445  16.040  0.1514  0.3913  0.2974
 6931W        W22825   3.553  12.997   3.891  0.1400 -0.1328  0.1599
 6932W        W22826  11.829   3.968   3.035  0.0116 -0.0195  0.2268
 6933W        W22827   3.767  16.455  11.784  0.1846  0.0256  0.3363
 6934W        W22828   2.398   3.959  13.309 -0.0216  0.2591  0.2128
 6935W        W22829  16.756   8.293   2.096 -0.1015  0.2518  0.0743
 6936W        W22830   7.297   3.497   1.036  0.0867 -0.1931 -0.3161
 6937W        W22831   6.207   4.013  13.487 -0.2186  0.1865  0.3620
 6938W        W22832   0.618  17.275   6.154 -0.1898  0.0721 -0.3763
 6939W        W22833   0.217  12.100  14.249  0.0858 -0.2454 -0.3354
 6940W        W22834   9.739   4.843  14.970  0.5038 -0.2341 -0.3592
 6941W        W22835  10.565   7.508   4.702 -0.0278 -0.0605 -0.1131
 6942W        W22836  12.637   5.781   4.186 -0.1789 -0.1312  0.3147
 6943W        W22837   9.811   8.397   2.841 -0.0606  0.1723 -0.0275
 6944W        W22838   8.279   1.203  16.124  0.1129  0.0297  0.0167
 6945W        W22839  10.122   3.926   2.879  0.1361  0.3174 -0.0427
 6946W        W22840   3.963   8.469  11.649 -0.2880  0.3587 -0.1677
 6947W        W22841  16.314  17.772  13.762  0.1764 -0.2145 -0.0980
 6948W        W22842  12.473   4.064   1.362 -0.2465 -0.1336  0.3987
 6949W        W22843   9.415  17.809   2.050  0.0732 -0.1932  0.0217
 6950W        W22844   6.207  12.686  11.405 -0.1147  0.0773  0.3895
 6951W        W22845   6.953  17.986   5.718  0.3416 -0.2514 -0.0080
 6952W        W22846  12.323  11.111  10.620  0.2837  0.1721  0.0340
 6953W        W22847   9.094   4.167  11.623 -0.4210 -0.0852 -0.1245
 6954W        W22848  10.091  14.560  14.232 -0.1019  0.0618  0.0365
 6955W        W22849   0.922  14.293  13.251 -0.1260  0.0721  0.1373
 6956W        W22850  10.829   3.350   4.347 -0.0260 -0.0106  0.0675
 6957W        W22851  15.782   9.192  14.431 -0.1503 -0.3574  0.1155
 6958W        W22852   9.842  14.428  11.184 -0.1510 -0.0941 -0.0691
 6959W        W22853  11.200   2.454  14.831  0.0709  0.2457  0.0046
 6960W        W22854  17.186   6.331  15.622 -0.2438  0.0047 -0.0331
 6961W        W22855   6.552   5.425  12.733  0.1824  0.0042  0.2186
 6962W        W22856   6.947   3.225  14.141 -0.4097 -0.0221 -0.2849
 6963W        W22857   1.530  18.003  14.493  0.1770  0.1103  0.5167
 6964W        W22858  11.114   7.345   4.566  0.2309  0.0306  0.1842
 6965W        W22859   2.905  12.496   1.918  0.0497 -0.0368 -0.0283
 6966W        W22860  14.294   4.188   3.809 -0.1707 -0.1302  0.0613
 6967W        W22861   5.659  16.930   3.451 -0.2219 -0.0876 -0.3467
 6968W        W22862  15.296  11.139   1.146 -0.1273 -0.0838  0.1415
 6969W        W22863  13.615  17.119   2.849  0.0295  0.0954 -0.0931
 6970W        W22864  13.094  11.842  15.181 -0.2886 -0.2117 -0.1777
 6971W        W22865   3.688   2.711   3.933 -0.4166 -0.0695 -0.2896
 6972W        W22866   3.420   2.970  12.740  0.0799  0.1038  0.1284
 6973W        W22867  15.037  17.070   3.012  0.1937 -0.1687 -0.1175
 6974W        W22868  12.722   2.751  15.295  0.0467  0.1896  0.2524
 6975W        W22869   9.441   9.273   4.555  0.1328 -0.0096  0.1858
 6976W        W22870  12.756   8.143  13.154 -0.3833  0.2048  0.2248
 6977W        W22871   7.812  13.638  11.006  0.2126  0.1175 -0.0364
 6978W        W22872   1.899   7.580   4.758  0.0010 -0.1571  0.2535
 6979W        W22873   1.416  10.526  12.633 -0.0238  0.0652  0.1053
 6980W        W22874   7.962   1.811  12.421 -0.1322 -0.2466 -0.1024
 6981W        W22875   6.812   2.345  13.823 -0.2174 -0.2437  0.1545
 6982W        W22876  11.051   3.924  14.857  0.1617  0.0407  0.1584
 6983W        W22877   1.843  17.825   4.227  0.2395 -0.0194  0.0607
 6984W        W22878   1.377   3.402   1.093  0.0080 -0.0333 -0.0332
 6985W        W22879   7.142   4.400   2.414  0.1009 -0.0210 -0.2484
 6986W        W22880  10.625  17.373  12.931 -0.5279 -0.2676  0.0085
 6987W        W22881  16.941  17.031   0.880  0.1572 -0.2151  0.0274
 6988W        W22882   4.086   3.511  14.906 -0.1875 -0.2622 -0.0341
 6989W        W22883  12.264  17.807  15.925 -0.1424  0.0975 -0.0642
 6990W        W22884   7.874   3.747  10.283 -0.3263 -0.0438  0.0225
 6991W        W22885   4.669   4.432  12.772 -0.0062  0.3896  0.2433
 6992W        W22886   7.635   2.379  14.858  0.3876 -0.3892  0.1620
 6993W        W22887  16.819   5.428   3.358  0.1221 -0.1323  0.0365
 6994W        W22888  16.638   9.888  13.648 -0.3582  0.0023  0.1642
 6995W        W22889   8.257   2.784   4.448 -0.0059  0.0171  0.1756
 6996W        W22890  14.421   6.833   2.975 -0.0263  0.1859  0.1300
 6997W        W22891   3.550   2.979  15.576  0.2000 -0.0328 -0.1580
 6998W        W22892   9.460  12.399  15.308  0.0152 -0.2475 -0.1666
 6999W        W22893   7.706   5.726  13.592  0.1159  0.0503 -0.1850
 7000W        W22894  12.629   5.487   2.334  0.2947  0.2680 -0.1114
 7001W        W22895   1.245   0.138   4.047  0.2521 -0.2319 -0.0235
 7002W        W22896  15.491   7.097  12.894 -0.0425 -0.0092 -0.0555
 7003W        W22897   0.438   4.548   2.784 -0.0682  0.2426 -0.0878
 7004W        W22898  12.486  15.639   2.975 -0.0347  0.2819  0.1658
 7005W        W22899  13.478  14.756   2.411 -0.1528  0.0414 -0.0307
 7006W        W22900  17.123   9.178   2.360 -0.1270  0.0687 -0.0991
 7007W        W22901   7.263  17.329   3.067 -0.0197 -0.1140  0.0768
 7008W        W22902   8.088  17.913  12.283  0.0593 -0.2143  0.0129
 7009W        W22903   8.598   2.190   3.865  0.0225 -0.1599  0.2767
 7010W        W22904  12.213   4.179  12.817 -0.2049  0.0364 -0.1084
 7011W        W22905  11.556   0.244   5.722 -0.0050  0.0304 -0.1156
 7012W        W22906   6.116   1.966  11.459 -0.4052  0.3299 -0.1432
 7013W        W22907  13.204  14.764   1.153 -0.0115  0.1860 -0.0376
 7014W        W22908  17.711   7.443   1.154  0.3266 -0.5136 -0.1115
 7015W        W22909   6.794   7.545   4.373 -0.1895 -0.0257  0.0709
 7016W        W22910   1.823  17.185   5.603  0.0842 -0.3183  0.2507
 7017W        W22911  12.357  18.326  11.996 -0.1912  0.1442  0.3277
 7018W        W22912  14.756  15.531   2.871  0.1353 -0.1520 -0.1313
 7019W        W22913   6.629  15.613   2.567 -0.0295 -0.0690 -0.0388
 7020W        W22914  13.487   4.168   3.957 -0.2885 -0.2149 -0.0899
 7021W        W22915   9.319   7.808   4.566 -0.0684 -0.2387 -0.0622
 7022W        W22916  10.926   9.415   1.156 -0.2497 -0.0002 -0.0166
 7023W        W22917  17.212   0.389   1.761 -0.3231  0.0467 -0.2453
 7024W        W22918   5.729   5.731  13.785 -0.1714 -0.1207  0.0769
 7025W        W22919  17.180   1.939  14.433 -0.1186  0.2118 -0.1903
 7026W        W22920   3.864   3.453  14.190  0.4878 -0.2742  0.0783
 7027W        W22921   9.352  11.639  14.871 -0.3722  0.1263 -0.0033
 7028W        W22922  16.728   9.498  12.167 -0.0054  0.0229  0.0627
 7029W        W22923   7.442  12.971  14.214  0.1759  0.1560  0.0887
 7030W        W22924  13.538  10.051  11.506 -0.0490  0.0788  0.3754
 7031W        W22925   9.043  10.659   0.882 -0.1043 -0.0250  0.1745
 7032W        W22926   0.382  15.144  13.214  0.2099 -0.0688  0.2595
 7033W        W22927   9.996  15.275  11.691 -0.3366 -0.1485  0.2360
 7034W        W22928   5.858   8.529   1.283 -0.1198  0.2636 -0.0351
 7035W        W22929  13.900   6.145   1.372 -0.2833  0.2099 -0.0454
 7036W        W22930  10.624   6.916  14.040 -0.0594 -0.1660  0.1988
 7037W        W22931   3.617   8.554  13.210 -0.0348 -0.0219 -0.1093
 7038W        W22932  16.810  13.208  10.148 -0.1076 -0.2292  0.2482
 7039W        W22933   8.167   6.401   1.064  0.4460 -0.3065 -0.0194
 7040W        W22934  11.129  13.963  12.533 -0.1507 -0.0111  0.1230
 7041W        W22935  17.031   5.338   2.008  0.2037  0.1197 -0.0622
 7042W        W22936   1.671   5.927   1.787  0.2427 -0.0577  0.2276
 7043W        W22937  18.196   1.882   1.622 -0.0410 -0.1474  0.1700
 7044W        W22938  12.559   2.573   3.024 -0.1829 -0.0393 -0.0235
 7045W        W22939   7.303   3.501   0.103 -0.0219  0.1349 -0.0703
 7046W        W22940  13.571   3.135   0.114  0.0159 -0.0088 -0.3677
 7047W        W22941   5.938  16.335  14.775 -0.3685 -0.0105 -0.3533
 7048W        W22942   9.879   2.189  11.559 -0.0355  0.5373 -0.2445
 7049W        W22943  18.368  13.419   2.541 -0.0818  0.0879  0.2579
 7050W        W22944   6.453   0.470  12.396 -0.1549  0.0954 -0.1422
 7051W        W22945  12.307   5.389   0.097 -0.1153  0.0555  0.0083
 7052W        W22946   0.517  15.222   1.088 -0.0451 -0.2415  0.3992
 7053W        W22947  13.435   8.519  12.913  0.1357 -0.2865  0.1521
 7054W        W22948  15.703  14.691  11.488  0.0997 -0.1812 -0.1484
 7055W        W22949   4.594  16.476   0.355 -0.1321 -0.0822  0.3995
 7056W        W22950   7.102   8.093  14.713  0.3022 -0.0387  0.1851
 7057W        W22951   4.769   8.368   0.540  0.0743 -0.1842 -0.0036
 7058W        W22952  14.945  10.511   1.715 -0.6193  0.2206  0.2483
 7059W        W22953   7.439   0.335   0.554  0.1861 -0.2207 -0.1253
 7060W        W22954  13.283  13.109   3.469  0.3108  0.0538 -0.0705
 7061W        W22955  12.018  17.698  12.807  0.1244 -0.0314  0.1104
 7062W        W22956  16.973   4.243   1.824 -0.2173 -0.0024 -0.1138
 7063W        W22957   1.493   9.850   3.350 -0.2776 -0.1531  0.1149
 7064W        W22958   8.781   4.995   5.318  0.0995 -0.4732 -0.1336
 7065W        W22959  12.619  17.202   4.664  0.1071 -0.0674  0.0944
 7066W        W22960  13.793  10.600   0.957  0.0521  0.2203  0.0761
 7067W        W22961   8.540  17.443   1.208  0.0166  0.1431 -0.0313
 7068W        W22962   2.242   8.334  11.783 -0.0261 -0.2761 -0.1249
 7069W        W22963   8.666  10.310   2.319 -0.2400 -0.2430 -0.2442
 7070W        W22964   8.799  12.106  12.925 -0.1577 -0.0784  0.1614
 7071W        W22965  18.158   6.546   5.103  0.0295 -0.1469  0.0681
 7072W        W22966  12.995  18.360   1.794 -0.0062 -0.1751 -0.0409
 7073W        W22967  16.473   8.745   0.640 -0.2328  0.1194  0.2348
 7074W        W22968  15.468  11.024  13.824 -0.2296 -0.2097 -0.0497
 7075W        W22969   9.720  10.121   1.721  0.0351 -0.1164 -0.1143
 7076W        W22970   3.615  17.266  14.093  0.3223  0.3643  0.1965
 7077W        W22971  16.044  13.722  11.031  0.2051  0.2168 -0.0322
 7078W        W22972  10.597   7.664   1.322 -0.4816 -0.0810 -0.1853
 7079W        W22973   2.446   3.300  15.229 -0.0080  0.1216 -0.0669
 7080W        W22974  17.074   8.167   0.649  0.1864 -0.0614 -0.0039
 7081W        W22975   5.132   2.584  15.050 -0.0960 -0.0436 -0.0699
 7082W        W22976   9.452  13.132  11.244 -0.0283  0.2751  0.2712
 7083W        W22977   5.082   5.135   3.415  0.1227 -0.1646  0.1114
 7084W        W22978   6.704  15.271  15.557 -0.1494 -0.2243  0.1773
 7085W        W22979  15.901  14.659  14.122  0.1545  0.0513  0.0746
 7086W        W22980   0.366   7.843   3.202  0.1081  0.1337  0.2364
 7087W        W22981  17.756   2.755  11.887  0.3627 -0.4020  0.2291
 7088W        W22982  14.926   2.201  14.177 -0.1176  0.0785  0.0049
 7089W        W22983   1.932   1.371   1.827  0.1465 -0.0258 -0.1864
 7090W        W22984   4.097   7.023   3.972  0.1961  0.0152  0.0508
 7091W        W22985  13.596   7.303   2.498 -0.0049 -0.0203 -0.0580
 7092W        W22986  15.630   9.134   1.143 -0.3513  0.0315 -0.0751
 7093W        W22987   2.469   2.822   5.029 -0.0586 -0.1087  0.2398
 7094W        W22988   9.771  15.935   5.008  0.1467  0.1051 -0.0858
 7095W        W22989  15.411   3.915  13.857  0.1515  0.3551 -0.1551
 7096W        W22990   9.369  11.064  13.444 -0.2382 -0.4203 -0.0881
 7097W        W22991   3.962   8.219  12.079  0.1967  0.0493 -0.1806
 7098W        W22992  17.764  10.668   0.425 -0.0614 -0.4988  0.0691
 7099W        W22993   3.595   1.130  14.243 -0.0875  0.1719  0.1569
 7100W        W22994   8.092   1.660   4.306  0.1468 -0.1126  0.3522
 7101W        W22995  16.583  12.249  13.448  0.1974 -0.1129 -0.2457
 7102W        W22996   0.142   6.991   2.562  0.1468 -0.2238  0.2270
 7103W        W22997   9.703   7.545  13.566  0.2817  0.2145  0.0434
 7104W        W22998   4.926  17.352   3.480 -0.0819  0.1059  0.0009
 7105W        W22999   7.264   8.573   3.221 -0.1847  0.0451  0.1498
 7106W        W23000  13.072   9.193   4.017  0.2281 -0.2686 -0.3936
 7107W        W23001  18.455   2.226   1.435  0.0570 -0.4532 -0.0731
 7108W        W23002   8.084   0.829  12.767  0.1519 -0.2924  0.1864
 7109W        W23003   5.231   4.670   3.552  0.0434 -0.3187  0.0825
 7110W        W23004   4.214  16.036  13.319  0.1003  0.0866 -0.2972
 7111W        W23005  13.035   7.010   3.387  0.0279  0.2478 -0.1567
 7112W        W23006   0.938  11.353   4.629  0.2170  0.1433  0.2766
 7113W        W23007   0.912  10.131   0.327 -0.4060  0.1376  0.0790
 7114W        W23008   9.289  14.180   4.055  0.0555  0.1985 -0.0443
 7115W        W23009  11.509   4.938   5.110  0.1226  0.0599 -0.0652
 7116W        W23010   4.360  12.515   2.423  0.2203  0.0538  0.0495
 7117W        W23011  11.139  10.071  14.118  0.5354  0.1309  0.4764
 7118W        W23012   8.870  17.703   5.567  0.1441 -0.1050 -0.1980
 7119W        W23013   3.698   2.264   0.168 -0.2617 -0.2605 -0.0751
 7120W        W23014   6.181   0.639  12.754 -0.0303  0.2190 -0.2922
 7121W        W23015   6.574   5.587  13.555 -0.0197 -0.1256  0.2579
 7122W        W23016   8.006  18.349  10.667  0.0520 -0.0518 -0.1549
 7123W        W23017  15.208  11.197  14.633 -0.1774  0.0596 -0.2819
 7124W        W23018   1.915   7.754  15.238 -0.1693  0.1041  0.0424
 7125W        W23019   4.205   0.560  14.144 -0.1261 -0.0628  0.2061
 7126W        W23020   2.927   3.185   1.070 -0.0853  0.1277 -0.3973
 7127W        W23021  11.623  10.303  14.218  0.0546 -0.0414  0.2619
 7128W        W23022   5.484  16.707   2.684  0.1021  0.1567 -0.2571
 7129W        W23023   9.790   6.891  13.618  0.2601 -0.2061  0.0245
 7130W        W23024  17.695   5.478   2.974 -0.0762  0.2726  0.0012
 7131W        W23025  16.576  13.740  13.334 -0.1513  0.2919 -0.1034
 7132W        W23026   5.954   5.059   2.026 -0.0450  0.3131  0.0952
 7133W        W23027   0.215  18.441   4.744 -0.0421 -0.0072 -0.1897
 7134W        W23028   4.489  16.632   2.564 -0.0310 -0.1136  0.0448
 7135W        W23029  12.615   9.789  15.949 -0.1246  0.1208 -0.0183
 7136W        W23030  18.244  15.585  14.466 -0.1260  0.1203  0.1005
 7137W        W23031   8.390   1.210  14.772  0.1946  0.0999  0.1938
 7138W        W23032  13.639  13.194  14.657 -0.4014 -0.1280  0.0148
 7139W        W23033  16.397   4.193  12.716  0.1597 -0.1547  0.1767
 7140W        W23034   9.981   1.515   3.922  0.0029  0.0385 -0.0668
 7141W        W23035  15.518  18.339   0.587  0.1949 -0.2176 -0.0593
 7142W        W23036   0.812  15.945   4.694  0.0448  0.1219 -0.1621
 7143W        W23037  10.767  12.249   2.757 -0.2001 -0.0221  0.1525
 7144W        W23038  17.881  10.970   5.337 -0.2480  0.1096  0.1422
 7145W        W23039   6.112  17.771  11.736 -0.0415 -0.2520 -0.1195
 7146W        W23040  15.226   5.844   4.142 -0.0483  0.1687  0.0966
 7147W        W23041  10.550   0.195  11.310 -0.0800  0.2294  0.0964
 7148W        W23042   5.893   3.231  15.495  0.0143 -0.2236 -0.1220
 7149W        W23043  11.042  10.755  15.935 -0.3496 -0.0026 -0.0625
 7150W        W23044   1.849  15.826  12.278 -0.0138 -0.2050  0.1197
 7151W        W23045   2.206   6.726  15.611  0.1271  0.0866 -0.0913
 7152W        W23046  14.030  16.740   2.650 -0.1492  0.0140  0.1667
 7153W        W23047  16.360  13.399   0.068 -0.2704  0.0502 -0.0258
 7154W        W23048   8.454  12.514  10.765  0.0739 -0.0121  0.0965
 7155W        W23049   6.249   3.609   0.616 -0.2905  0.2410 -0.2119
 7156W        W23050  17.397  17.724  15.286 -0.0673 -0.2320  0.0956
 7157W        W23051  18.249  15.547   0.508  0.0685  0.1314  0.1466
 7158W        W23052   6.201  12.510   2.522 -0.2438  0.2625 -0.3237
 7159W        W23053  16.639  12.568   3.252 -0.3043  0.2117 -0.2485
 7160W        W23054   1.813  14.148  11.189 -0.0522  0.0511 -0.0591
 7161W        W23055  12.397  15.691   3.484  0.1101  0.1225 -0.1768
 7162W        W23056   0.465   1.295   0.962 -0.2254 -0.1584 -0.0978
 7163W        W23057   2.548  10.787   4.657  0.0541  0.0497  0.1436
 7164W        W23058   4.657  12.614   1.631  0.0039  0.1285 -0.3649
 7165W        W23059  15.545   6.548  13.848 -0.1824 -0.1796  0.3569
 7166W        W23060  15.955   9.541  11.135  0.0584 -0.0309  0.1399
 7167W        W23061   3.964  13.706   1.057  0.2012  0.0959  0.2008
 7168W        W23062   1.034  14.390   2.494  0.0785  0.1234 -0.0087
 7169W        W23063  17.231   2.821   0.856 -0.0556  0.0946 -0.0270
 7170W        W23064  15.816  10.203  13.474 -0.0220  0.0725  0.2363
 7171W        W23065   0.080   9.048  12.329 -0.0009 -0.0732  0.4459
 7172W        W23066   8.369   9.483   0.028  0.0993  0.1589 -0.0676
 7173W        W23067   2.256  14.484   0.465  0.1013  0.0139  0.1265
 7174W        W23068  13.094  16.752   1.636 -0.0510 -0.1028  0.0387
 7175W        W23069  11.668   9.106   0.708 -0.1397 -0.0864  0.2399
 7176W        W23070   2.419   0.690  10.970 -0.0822 -0.0257 -0.2392
 7177W        W23071  11.072   8.948   3.042 -0.0479 -0.0724  0.1193
 7178W        W23072   8.236  13.806   2.769 -0.1042  0.3137  0.1794
 7179W        W23073   1.580   0.832   4.700 -0.0850 -0.3216  0.2622
 7180W        W23074  10.785  13.714   1.229 -0.1111 -0.0355 -0.2368
 7181W        W23075   3.022   4.302   2.425  0.1336 -0.1373 -0.3268
 7182W        W23076  17.500  15.209  13.202 -0.0860 -0.0324 -0.0310
 7183W        W23077   3.331   2.800  13.469 -0.1060 -0.1541 -0.1853
 7184W        W23078  11.722  15.705   3.930  0.0554 -0.0954  0.1125
 7185W        W23079   1.535   5.395   2.580  0.3461  0.1918  0.0205
 7186W        W23080  16.204  13.547  12.411 -0.0251  0.0687 -0.1418
 7187W        W23081  13.587  12.702  11.972 -0.1123 -0.1892  0.1497
 7188W        W23082  13.854   4.225   1.755 -0.1952  0.3840 -0.1016
 7189W        W23083  17.130   6.098   4.504  0.1477 -0.0331  0.1489
 7190W        W23084   6.567   5.348  11.820  0.1102  0.0230  0.0822
 7191W        W23085   5.405  13.637   2.891  0.1503 -0.0515  0.2471
 7192W        W23086  13.143   5.030  15.352  0.1122  0.0492 -0.0168
 7193W        W23087   0.606   3.420   2.604 -0.2593 -0.1561  0.0195
 7194W        W23088   9.623  18.354   3.176  0.0532  0.0609  0.2180
 7195W        W23089  10.682   0.410   1.280  0.0361  0.0625 -0.0002
 7196W        W23090  17.634  14.373   6.340  0.5102 -0.1157 -0.0347
 7197W        W23091  12.439   3.751  11.814 -0.3788  0.4396  0.0371
 7198W        W23092   0.740   1.005  16.053 -0.1966 -0.1944  0.0140
 7199W        W23093   0.037   4.704   1.125 -0.4108  0.5614  0.1141
 7200W        W23094   1.608   1.356   5.558 -0.1167 -0.2074 -0.1358
 7201W        W23095   3.559  17.218   4.759  0.0095  0.2538 -0.0076
 7202W        W23096   8.821  13.547   0.071 -0.2857  0.0473  0.0452
 7203W        W23097  14.829  13.335  11.520  0.3078 -0.3197 -0.0914
 7204W        W23098  10.641  14.211  14.764 -0.0993 -0.1555  0.2237
 7205W        W23099   0.967   3.418   0.793  0.0703  0.2774 -0.0440
 7206W        W23100   6.645  11.666  11.736  0.0463 -0.2934  0.1498
 7207W        W23101   1.790  14.653   0.534 -0.3010 -0.0410 -0.0497
 7208W        W23102   7.433   7.632  13.073 -0.1290 -0.0060  0.2210
 7209W        W23103   4.595  15.279  16.095 -0.1092  0.2689  0.2414
 7210W        W23104  13.285  17.157  11.052 -0.1561  0.1048  0.0185
 7211W        W23105  11.521   0.421  15.286  0.1643  0.0626 -0.3110
 7212W        W23106   0.834   7.528  12.067  0.4867  0.2436  0.1478
 7213W        W23107  18.389   7.972   5.476 -0.0981 -0.0538  0.2294
 7214W        W23108   0.970  15.190   4.489 -0.4551 -0.1378 -0.4006
 7215W        W23109  10.208  12.047   0.413 -0.1404 -0.3131  0.2137
 7216W        W23110   2.086  10.862   0.580 -0.1015  0.0480 -0.2132
 7217W        W23111   1.882   3.134   2.267 -0.1134 -0.0917  0.0405
 7218W        W23112   4.113  14.953   2.724  0.1280 -0.0428  0.2873
 7219W        W23113  18.411  13.393   4.668 -0.0072 -0.0672 -0.2017
 7220W        W23114   3.642   8.954  13.540 -0.0412  0.2047 -0.0207
 7221W        W23115  14.224  11.784   0.009  0.1916  0.1844  0.2315
 7222W        W23116  16.551   8.673   4.070 -0.2110  0.2641 -0.0062
 7223W        W23117  15.256   8.772   0.302 -0.1274 -0.0333  0.2303
 7224W        W23118   8.202   1.573  13.099  0.0234 -0.1916 -0.3318
 7225W        W23119  13.276   8.038   1.374 -0.0102 -0.2982 -0.2154
 7226W        W23120   8.649   3.088   2.909  0.1153 -0.0042  0.0658
 7227W        W23121   4.437  13.277  15.219 -0.1043  0.0249 -0.1726
 7228W        W23122   4.284   7.459  15.053 -0.1798  0.0984 -0.0874
 7229W        W23123   6.377  11.109  12.850 -0.2676  0.0262 -0.1658
 7230W        W23124   9.720   8.896   2.563  0.2443  0.1458  0.1390
 7231W        W23125  15.849   2.700   1.136  0.0146  0.0997 -0.1443
 7232W        W23126  14.485   3.201   5.970 -0.3016  0.0372  0.5513
 7233W        W23127  10.533  17.089  12.523 -0.3871  0.0638  0.0250
 7234W        W23128  15.592   4.589  16.086 -0.0292 -0.1428  0.0733
 7235W        W23129   6.470  13.376  16.132  0.1998 -0.2435 -0.2181
 7236W        W23130   6.603   4.763   4.239 -0.0590 -0.1016 -0.2291
 7237W        W23131   1.857   5.117   4.167 -0.2066 -0.1752  0.1636
 7238W        W23132   4.475  16.749   3.814 -0.0592 -0.2659  0.1122
 7239W        W23133   0.429   8.141  12.337 -0.1117 -0.0114 -0.3228
 7240W        W23134   1.809  14.147   3.621 -0.0771  0.2305 -0.0271
 7241W        W23135  18.435   9.670   5.375 -0.3603 -0.5002 -0.2087
 7242W        W23136  12.039   2.007  15.967  0.0624  0.1552  0.2654
 7243W        W23137   8.741   2.338   3.379 -0.4266  0.0543  0.0919
 7244W        W23138  16.588  17.742   3.072 -0.0560 -0.1018  0.0615
 7245W        W23139   5.849  11.905   4.271  0.1584 -0.1429  0.1300
 7246W        W23140   5.402  11.337   2.554 -0.0073 -0.1104  0.2492
 7247W        W23141  11.993   4.220   3.528 -0.1723  0.1449  0.2254
 7248W        W23142  16.201   0.663   0.999  0.3005  0.1780 -0.3342
 7249W        W23143  14.782   2.476   1.882 -0.1554 -0.1825 -0.2055
 7250W        W23144   0.505   2.314   4.258  0.0835  0.1510  0.0238
 7251W        W23145   5.283   1.157  12.773 -0.4937  0.1471  0.0600
 7252W        W23146   5.229  11.815   3.460 -0.0403 -0.2350 -0.2940
 7253W        W23147   8.575  17.435  15.960  0.1082 -0.0303  0.1088
 7254W        W23148   8.403  11.196   2.100 -0.1689  0.2062  0.3010
 7255W        W23149   0.987  13.190  16.045 -0.0338 -0.1294 -0.1718
 7256W        W23150   5.919   0.735   3.687 -0.1101  0.1038  0.0215
 7257W        W23151  18.004  18.389   0.938 -0.1688  0.0029 -0.1884
 7258W        W23152   7.809   1.482  10.695  0.0394 -0.0861 -0.0110
 7259W        W23153   8.637   0.620   2.538 -0.1666 -0.1548  0.0967
 7260W        W23154  14.984   2.623   5.589  0.3046 -0.2888  0.3504
 7261W        W23155   2.418   5.488   2.841 -0.0927  0.2654  0.1566
 7262W        W23156  15.132  13.216   4.132  0.0007  0.2689  0.0564
 7263W        W23157  15.957   1.998   2.409 -0.3130 -0.0739 -0.4677
 7264W        W23158   1.512  13.692  10.187 -0.1322  0.1109 -0.1610
 7265W        W23159   1.155  11.483  12.507  0.1526  0.1809  0.0549
 7266W        W23160   7.328   8.737   2.478  0.0700  0.1567 -0.6497
 7267W        W23161  13.062   7.837  14.983  0.1103  0.1938 -0.1449
 7268W        W23162   4.957  17.376  15.706 -0.0377  0.0089  0.2075
 7269W        W23163  14.394  14.698  10.979  0.1000  0.1035  0.0742
 7270W        W23164  10.522  17.877  11.656 -0.1006  0.2014  0.0696
 7271W        W23165   0.902   0.395  13.355  0.1854  0.0664  0.0832
 7272W        W23166  12.310   1.719   3.339  0.1370  0.1491  0.0630
 7273W        W23167  10.354  15.355  14.733  0.0904 -0.0584  0.1901
 7274W        W23168  16.355   1.722   1.669 -0.1525 -0.0988  0.0178
 7275W        W23169  13.074   4.215   5.331 -0.0336 -0.3528 -0.0131
 7276W        W23170  12.137   3.135  12.844  0.0046 -0.2391  0.0209
 7277W        W23171   5.491  15.047   3.943  0.1040  0.0019 -0.0299
 7278W        W23172   5.919  15.325  13.325  0.1268  0.2280  0.2540
 7279W        W23173  12.400  16.875   4.341 -0.0002  0.0151 -0.0195
 7280W        W23174   1.451   9.159  11.559 -0.1860 -0.1344  0.2095
 7281W        W23175   9.341   8.500   3.770 -0.2587 -0.1065 -0.0720
 7282W        W23176   7.938  10.107   1.232 -0.1763  0.3175  0.0663
 7283W        W23177   5.650  16.926  13.029  0.0674  0.0693 -0.0772
 7284W        W23178   3.028   4.087   1.869 -0.0270 -0.1626 -0.0051
 7285W        W23179   9.324  12.750  12.603 -0.1162  0.0520  0.4614
 7286W        W23180  10.883   2.327   1.016  0.0409 -0.2567  0.1806
 7287W        W23181   2.305   5.200  15.627  0.0555 -0.4362  0.1927
 7288W        W23182  14.295  14.459  12.690  0.0466  0.0253  0.0654
 7289W        W23183   5.629  15.383  15.510  0.1544 -0.3024  0.1637
 7290W        W23184   2.392  13.332   0.087  0.2555 -0.0761  0.3218
 7291W        W23185   3.803  12.186   0.545  0.0663 -0.2890  0.2324
 7292W        W23186  18.253  12.123   3.922 -0.2212  0.3567 -0.2974
 7293W        W23187  14.271   3.655   1.133 -0.0762 -0.2162  0.1774
 7294W        W23188   6.466   3.963   0.366 -0.0212  0.0136  0.1569
 7295W        W23189   6.454  14.060   2.044 -0.3354  0.3393 -0.0950
 7296W        W23190   9.006  16.472  10.963 -0.2553  0.2346  0.1390
 7297W        W23191  12.202   0.148  11.217 -0.0307  0.0495  0.0447
 7298W        W23192   0.623   7.391  13.511 -0.0973 -0.1655 -0.3160
 7299W        W23193  14.697  11.202   3.069 -0.1232  0.2087  0.3454
 7300W        W23194  17.052   3.243  11.241  0.1740 -0.2411  0.2433
 7301W        W23195   6.623   4.621  15.997  0.0200 -0.2340 -0.0976
 7302W        W23196   2.947  11.381  10.047  0.0438 -0.1791 -0.0949
 7303W        W23197   7.645  16.248   5.501 -0.0503  0.1144 -0.1837
 7304W        W23198   4.745  18.377  14.797 -0.3141 -0.2344 -0.1889
 7305W        W23199  16.990   4.797   0.455  0.2737 -0.0462 -0.0001
 7306W        W23200  10.883   0.356   2.631 -0.0375  0.1939  0.2711
 7307W        W23201   5.851   9.247  11.838  0.2056 -0.0408 -0.3117
 7308W        W23202  14.696   8.250   0.533  0.3202 -0.0318  0.5545
 7309W        W23203  13.026  10.993   4.486  0.2155 -0.0021 -0.3595
 7310W        W23204  17.135   8.088   5.010  0.3085 -0.2666  0.0949
 7311W        W23205  15.483  14.492  13.225  0.2331 -0.0840  0.2209
 7312W        W23206   4.488   9.050  10.566 -0.0407 -0.5268  0.1206
 7313W        W23207  12.027  14.383   5.298 -0.1393 -0.0090  0.0291
 7314W        W23208  17.366   7.738   5.344  0.2361  0.0508  0.1029
 7315W        W23209  14.537  15.036   2.877  0.1806  0.1546  0.3474
 7316W        W23210  11.601   4.981   2.146  0.0978 -0.3917  0.1338
 7317W        W23211   9.002   9.476  12.513 -0.0571  0.1850  0.2451
 7318W        W23212  13.840   4.598   0.588  0.0953 -0.1236  0.0111
 7319W        W23213  14.685  11.779   1.788 -0.0608  0.1614 -0.3075
 7320W        W23214  10.708   6.895   0.183 -0.3289 -0.0527  0.1350
 7321W        W23215   0.277   2.934  14.870 -0.1419  0.2326 -0.2576
 7322W        W23216   9.462   0.457   5.977 -0.2269  0.0173 -0.1335
 7323W        W23217   9.445  16.071   0.954 -0.1198  0.1673 -0.1593
 7324W        W23218   0.337   0.604  12.616 -0.1618 -0.4513 -0.2858
 7325W        W23219  17.871  12.707   3.975 -0.0206 -0.1992  0.0240
 7326W        W23220  13.781  15.556  13.401  0.1924  0.0596  0.0496
 7327W        W23221  16.434   2.471  12.123  0.0569  0.3778 -0.2045
 7328W        W23222  18.354   1.694  16.031  0.1164 -0.0770  0.0289
 7329W        W23223  14.104   9.691   0.998  0.0303 -0.0968  0.1198
 7330W        W23224  14.420   3.095  13.907  0.2700  0.1446 -0.2265
 7331W        W23225  11.488   8.597   3.874 -0.1005  0.2412 -0.2348
 7332W        W23226   8.456   9.619  14.360 -0.2208 -0.2533 -0.3246
 7333W        W23227   0.276  12.575   4.979 -0.1012  0.0862  0.1834
 7334W        W23228   8.817  18.408  11.001  0.3127 -0.1699 -0.2291
 7335W        W23229   6.204   3.260  11.155 -0.0408  0.0192 -0.0968
 7336W        W23230   9.570   1.144   4.899 -0.1587 -0.0307  0.1792
 7337W        W23231  18.012   0.528   4.200 -0.1266  0.1546  0.2228
 7338W        W23232   8.556  17.785   3.623 -0.3193 -0.0428  0.1804
 7339W        W23233  13.796  15.183  11.275 -0.0727  0.1379 -0.0004
 7340W        W23234  17.734   2.012  13.855  0.0177 -0.0100 -0.1659
 7341W        W23235   7.712   4.611  15.108 -0.2274  0.1005  0.3148
 7342W        W23236  13.891   5.006   0.296  0.0982  0.0762  0.1258
 7343W        W23237   6.165   4.391  15.025  0.2395 -0.0596 -0.1576
 7344W        W23238  11.144   7.746   6.448  0.0973  0.0488 -0.0330
 7345W        W23239  11.316  16.628   2.823 -0.0209 -0.0117 -0.0284
 7346W        W23240  12.399  16.702   1.239  0.1299 -0.1211 -0.1815
 7347W        W23241  12.357  17.712  15.402  0.1411 -0.3710  0.1553
 7348W        W23242   8.454  11.846   3.390 -0.3486  0.1279  0.2377
 7349W        W23243   9.386  17.552  14.249  0.3053  0.1435  0.3385
 7350W        W23244   9.596   5.015   2.731 -0.3366  0.2747  0.0820
 7351W        W23245  18.037  11.407   4.037 -0.1432 -0.3721  0.1794
 7352W        W23246  10.216   1.574  10.730  0.0710 -0.0530  0.1697
 7353W        W23247   4.882   1.317   0.988  0.0819 -0.3980  0.1117
 7354W        W23248  15.648  13.967  14.447 -0.4005 -0.2244  0.2557
 7355W        W23249   4.214   6.963  13.171  0.0137  0.0349  0.1997
 7356W        W23250   7.661   0.641  10.870 -0.1398  0.2042 -0.2833
 7357W        W23251   8.189   5.844   2.033 -0.0255 -0.4047 -0.0903
 7358W        W23252   2.728  14.563  11.388  0.4081  0.1200  0.1111
 7359W        W23253   3.393  11.888   5.105  0.0033  0.3411  0.0972
 7360W        W23254  16.751   7.227  14.452 -0.0952  0.3800 -0.0175
 7361W        W23255  14.491  12.106   5.227 -0.0014  0.1539  0.1737
 7362W        W23256  11.948  17.964  14.218 -0.0782  0.0938  0.0418
 7363W        W23257   3.238   6.820  14.384 -0.0378 -0.2539 -0.0783
 7364W        W23258  14.224  16.530   5.398 -0.2039 -0.1934  0.2788
 7365W        W23259   6.898  15.809   5.023 -0.1254  0.2662  0.0351
 7366W        W23260   0.300   2.747   3.063 -0.3761 -0.1417 -0.0954
 7367W        W23261  12.013   7.692  11.985  0.0136 -0.0211 -0.2469
 7368W        W23262  11.927   0.504  14.822  0.1646  0.5337  0.2109
 7369W        W23263  18.262   5.859   5.076 -0.1313  0.0107  0.3669
 7370W        W23264   0.629  14.577   3.388  0.4156 -0.0307 -0.0234
 7371W        W23265  15.362   8.136   2.171  0.2462 -0.2419 -0.0019
 7372W        W23266   3.265  12.126  13.259  0.1748  0.0017  0.1612
 7373W        W23267   9.671  14.690   2.881 -0.0152  0.1186  0.0816
 7374W        W23268   4.450  17.172  13.703  0.2453  0.0030  0.1974
 7375W        W23269   9.936  12.336   3.404 -0.1055 -0.0152 -0.1316
 7376W        W23270  15.542  13.098  14.114  0.0982  0.0087  0.2178
 7377W        W23271   2.324  14.171  15.915  0.1045 -0.0992 -0.3455
 7378W        W23272  16.154  10.678  14.968  0.0174  0.1535 -0.0387
 7379W        W23273  17.670   5.207  14.920 -0.1072  0.0223 -0.2592
 7380W        W23274   6.715   8.453   2.058  0.0458  0.1695 -0.0083
 7381W        W23275  15.285   0.969  14.621  0.0248  0.4835 -0.2111
 7382W        W23276  16.993  14.061   3.541  0.0229 -0.5177 -0.2549
 7383W        W23277   8.286   0.407  14.491 -0.0280  0.1807  0.1387
 7384W        W23278  18.263   8.799   0.414 -0.3161 -0.1377  0.2018
 7385W        W23279   0.299   5.969  12.703 -0.0612 -0.0177 -0.3724
 7386W        W23280  14.603   4.722  12.365 -0.2745  0.0269  0.2440
 7387W        W23281  12.071  13.587   1.085  0.2749  0.1314 -0.1528
 7388W        W23282  12.624   0.490  13.551  0.2937  0.1822  0.3529
 7389W        W23283  10.335  13.529  11.607 -0.2869  0.4761 -0.0017
 7390W        W23284  13.205   1.118  11.826 -0.2234  0.3572  0.0496
 7391W        W23285   9.706  17.880  14.500  0.0633 -0.0527  0.1487
 7392W        W23286  12.974  13.327  15.191  0.2861  0.0813 -0.1245
 7393W        W23287  10.747  14.637   4.162 -0.2537  0.3626 -0.0701
 7394W        W23288  16.539  15.255   3.159 -0.0867 -0.1472  0.1443
 7395W        W23289   5.428   5.372  15.595 -0.0138  0.2250  0.1167
 7396W        W23290   9.894  15.827  11.753  0.0463  0.0266 -0.0759
 7397W        W23291  12.743   9.282   3.363 -0.2258  0.0991  0.2554
 7398W        W23292  11.523  10.631   4.061 -0.1564 -0.0249  0.2049
 7399W        W23293   1.697  18.185   0.642  0.2546  0.0500 -0.1128
 7400W        W23294  12.269   0.826   3.945 -0.0019 -0.1057 -0.0166
 7401W        W23295   4.829  10.303  11.124  0.3946  0.2085  0.1401
 7402W        W23296  12.367   4.774  13.949 -0.1110 -0.0865 -0.1273
 7403W        W23297   7.879  10.775   2.359  0.0022  0.1113  0.0159
 7404W        W23298  16.082   8.576  13.255  0.0209 -0.2640 -0.0979
 7405W        W23299   8.772  12.349  13.887 -0.3160  0.0325 -0.2156
 7406W        W23300  11.592  11.233   4.718  0.1162 -0.2028  0.1690
 7407W        W23301  13.775  11.417  15.358  0.0136  0.0661  0.0480
 7408W        W23302  17.711  15.529  15.160  0.1429 -0.0254  0.1045
 7409W        W23303  14.505   9.369   3.689  0.3815  0.2668  0.1650
 7410W        W23304  17.331   6.775   3.736  0.1083  0.0795 -0.0334
 7411W        W23305   7.018  16.024   4.549  0.2194  0.0133  0.1525
 7412W        W23306  12.727   1.991  13.173  0.1132  0.0607 -0.1272
 7413W        W23307  17.282   5.508  15.187  0.0195  0.2745 -0.0602
 7414W        W23308   9.304  10.808  14.615 -0.1560  0.2888  0.0143
 7415W        W23309   8.462  12.890  11.692 -0.0305 -0.0253  0.0726
 7416W        W23310   8.909  14.484   5.064 -0.0658  0.0724 -0.1144
 7417W        W23311  10.183   6.416  12.910  0.0803 -0.1695 -0.1461
 7418W        W23312  12.610   2.914  12.603  0.1207 -0.0340 -0.0575
 7419W        W23313   4.498   6.736   2.364  0.1877  0.1072  0.0027
 7420W        W23314   1.842   2.462  13.781 -0.1742 -0.0220 -0.0851
 7421W        W23315  11.840   5.235  15.958  0.2626  0.0275  0.1553
 7422W        W23316  17.214  11.158  11.917 -0.0838  0.0737 -0.3141
 7423W        W23317  11.577   6.072   5.325  0.0168 -0.1340  0.1640
 7424W        W23318   4.021  18.193   4.085 -0.2896  0.0385 -0.2495
 7425W        W23319  15.411  18.376   4.258  0.3989  0.2261 -0.0617
 7426W        W23320  10.415  13.791   1.815  0.1263 -0.0643  0.1653
 7427W        W23321   1.964   8.288  15.494 -0.1304 -0.3659 -0.1764
 7428W        W23322   3.714  13.282  13.829 -0.0265  0.0960 -0.1096
 7429W        W23323   9.459  16.226   5.372  0.0230 -0.2757 -0.0288
 7430W        W23324  11.187   6.775  13.393 -0.1228 -0.0063 -0.0451
 7431W        W23325  17.109   7.392   5.616 -0.0756 -0.3261 -0.0853
 7432W        W23326  15.998   3.359   0.531 -0.3442  0.1635 -0.0797
 7433W        W23327  14.533   1.885  13.651 -0.1161  0.2170  0.1989
 7434W        W23328  12.997  15.290  15.473 -0.1342  0.1560  0.2352
 7435W        W23329   9.354  14.420   3.232  0.0627 -0.2695 -0.2442
 7436W        W23330   6.192  11.730  15.133 -0.1634  0.2646 -0.0571
 7437W        W23331  18.278   2.641   3.180  0.2156  0.2020  0.3109
 7438W        W23332   5.951   4.140  11.479 -0.2798 -0.0293  0.1744
 7439W        W23333   2.262  10.385   4.917  0.1438  0.0946  0.3412
 7440W        W23334   7.357  18.138   1.620  0.0712 -0.1839 -0.2826
 7441W        W23335   6.341   8.175  11.788 -0.0781 -0.0462  0.0284
 7442W        W23336   9.240  15.380  15.621 -0.6077  0.1454  0.0233
 7443W        W23337  12.304   4.650  14.483  0.0044  0.2694  0.2618
 7444W        W23338   9.584  11.571   4.006  0.0157 -0.0165  0.0949
 7445W        W23339   4.837   5.910   5.126  0.4773 -0.3518  0.0701
 7446W        W23340   8.080  15.594  12.786  0.1473 -0.0166  0.0848
 7447W        W23341   8.469  16.592   4.618  0.1897  0.0913 -0.1542
 7448W        W23342  15.242   6.076   4.975 -0.0325  0.0680  0.1447
 7449W        W23343   5.182   9.977   0.654 -0.0370 -0.2464  0.2038
 7450W        W23344  11.307  12.149   1.486 -0.0885  0.1446  0.1843
 7451W        W23345   7.483   2.954   4.648 -0.0192 -0.2830 -0.1530
 7452W        W23346   5.559  13.033  12.248 -0.0357  0.1403 -0.0186
 7453W        W23347   5.150  14.787   3.800 -0.1246  0.2647  0.3078
 7454W        W23348   5.658   6.099   3.805 -0.0171 -0.2528 -0.1687
 7455W        W23349   3.486   0.201   2.902 -0.0023  0.0764 -0.2639
 7456W        W23350   1.597   4.502  13.615 -0.0812 -0.0033 -0.0903
 7457W        W23351   1.591  17.560  11.587  0.1217  0.0636 -0.1551
 7458W        W23352  17.035  12.202   0.999 -0.0530 -0.0576  0.1258
 7459W        W23353  16.468   0.759   1.476 -0.2519 -0.1505  0.2616
 7460W        W23354   9.940  12.034   2.482  0.0358  0.1672  0.2446
 7461W        W23355   2.048   7.841   1.519 -0.2472  0.0208  0.0085
 7462W        W23356   2.176   6.156  14.391 -0.0069  0.1109  0.1079
 7463W        W23357   0.136   8.463   0.569 -0.2297 -0.1663 -0.1383
 7464W        W23358  12.907  10.693  13.755  0.2122 -0.0566 -0.0882
 7465W        W23359   8.958   8.746   2.757  0.0119 -0.0596  0.5054
 7466W        W23360   4.506   7.701  16.006 -0.1214  0.0215  0.1857
 7467W        W23361  16.917   0.682  10.595 -0.2574  0.2581  0.0831
 7468W        W23362   2.906  13.422  12.527  0.2176 -0.2416  0.1135
 7469W        W23363  10.653  11.922  15.248  0.0099  0.0716  0.2340
 7470W        W23364   1.312  15.898  11.885  0.1248  0.0195 -0.1310
 7471W        W23365  13.472   0.049  14.934  0.0705  0.1053 -0.0269
 7472W        W23366  13.061   3.178   3.525  0.1303 -0.0130 -0.1218
 7473W        W23367   4.399  10.804  12.545 -0.1333 -0.1589  0.1983
 7474W        W23368   7.777   4.276  14.114  0.1024  0.0573  0.0428
 7475W        W23369   1.809   6.432  12.314 -0.1790 -0.3812 -0.0386
 7476W        W23370  12.578  18.335  14.593  0.1174 -0.0217  0.5665
 7477W        W23371   7.530   7.047   2.607 -0.0193 -0.1352 -0.0977
 7478W        W23372   3.493   8.830   5.860  0.1505 -0.0835 -0.0288
 7479W        W23373  14.033  12.704   3.233 -0.2011  0.1324  0.0113
 7480W        W23374   2.910  10.897   6.038  0.1639  0.1008  0.3255
 7481W        W23375   9.118  12.983  13.929  0.1126 -0.1357 -0.3152
 7482W        W23376   2.004  16.297  12.375  0.1043 -0.0636 -0.1347
 7483W        W23377   9.580  14.186  16.025  0.2647  0.0014 -0.1236
 7484W        W23378   9.801   7.651   3.156  0.1383 -0.0354 -0.1889
 7485W        W23379  14.687   1.374  12.371  0.3256 -0.0981 -0.3395
 7486W        W23380   1.645   9.541   2.995 -0.0265  0.1464  0.0275
 7487W        W23381   4.489   0.030   3.612 -0.0368  0.1526 -0.2990
 7488W        W23382   6.514   1.793   3.235  0.0191 -0.0235  0.2999
 7489W        W23383   9.212  17.649  12.175 -0.0221 -0.0149 -0.1215
 7490W        W23384   6.596   2.791   2.081  0.0018  0.1120 -0.0041
 7491W        W23385  14.176  11.583   3.040 -0.3757 -0.0296 -0.2933
 7492W        W23386   7.318   3.629   3.548 -0.1941 -0.1694  0.0802
 7493W        W23387  17.402  10.645  11.918 -0.1113  0.1426  0.2819
 7494W        W23388   9.712   5.294  14.189 -0.0429  0.2823 -0.2711
 7495W        W23389   6.803  13.452   2.704 -0.0775 -0.1443 -0.3642
 7496W        W23390   5.211  16.086  15.644  0.0508  0.0912  0.2241
 7497W        W23391  16.742   5.886   6.231 -0.1827  0.1680 -0.1967
 7498W        W23392  14.580   8.631   3.859  0.0764  0.0048 -0.2956
 7499W        W23393   3.682  13.559   0.602  0.1763 -0.1583  0.2759
 7500W        W23394  16.822  11.733   3.230  0.1874 -0.0379 -0.0384
 7501W        W23395  12.499   5.696  15.802 -0.2358 -0.1017  0.2025
 7502W        W23396  11.251   3.859   1.369 -0.1488 -0.3300 -0.1251
 7503W        W23397   8.708  14.234   0.572  0.2637  0.0601  0.3364
 7504W        W23398   6.834   9.404   1.623 -0.0805 -0.0116 -0.0572
 7505W        W23399  14.557   5.798  13.238 -0.0438 -0.1393 -0.2900
 7506W        W23400  14.969  13.568  12.519  0.1985  0.2289 -0.0700
 7507W        W23401   8.885   7.738  15.905  0.1696  0.0911 -0.1150
 7508W        W23402   3.357   6.029  13.767 -0.1847 -0.2954  0.1725
 7509W        W23403   6.566  16.373  13.930  0.3688 -0.0216  0.1460
 7510W        W23404   5.751   4.242  11.933 -0.1977 -0.1866  0.0262
 7511W        W23405   5.441   6.913   5.490  0.0346  0.0124  0.2293
 7512W        W23406   8.395   7.238   0.379  0.1758  0.2481 -0.2827
 7513W        W23407  10.361  10.719  14.476 -0.1145 -0.0040  0.2007
 7514W        W23408  15.773  11.567   3.842  0.0371 -0.0423  0.0987
 7515W        W23409  11.601  11.309   2.086  0.1716  0.0199 -0.0903
 7516W        W23410  14.149   4.963   5.901 -0.1321 -0.0247 -0.0773
 7517W        W23411   0.008  12.941  14.283  0.2174 -0.3774 -0.2139
 7518W        W23412   3.821  17.359  12.640  0.5218 -0.2144 -0.0232
 7519W        W23413  15.744  15.323   3.655  0.0754 -0.1665 -0.4353
 7520W        W23414   8.201   4.512  11.681 -0.0828  0.5195  0.4594
 7521W        W23415  11.452  14.492   4.632 -0.0258  0.2158 -0.0977
 7522W        W23416  12.256   5.895  15.393  0.0948 -0.0244  0.1504
 7523W        W23417   2.372   8.305  12.685  0.3924  0.1742 -0.0187
 7524W        W23418   4.086   9.861   1.728  0.2028  0.2107 -0.1286
 7525W        W23419   4.822  12.046  11.300 -0.2939 -0.0605  0.1753
 7526W        W23420   4.449   6.309  10.454 -0.0151  0.2696 -0.1701
 7527W        W23421   1.042  11.563  14.805  0.0531  0.0036 -0.5035
 7528W        W23422  16.180  16.935   2.273 -0.1244  0.3252 -0.2208
 7529W        W23423   6.965   5.942   3.553  0.2408  0.0239 -0.1660
 7530W        W23424  15.699   3.026   3.852 -0.1694 -0.0985 -0.2870
 7531W        W23425   0.580   3.934   3.555 -0.0920 -0.0887  0.0336
 7532W        W23426   5.652  11.454   5.431 -0.0173  0.1423  0.1331
 7533W        W23427  17.037   3.797   5.019 -0.0421 -0.0396  0.2487
 7534W        W23428   9.562   3.901   3.060  0.0852 -0.0389 -0.0031
 7535W        W23429   2.072  17.638  11.761 -0.1944  0.1091  0.2771
 7536W        W23430  14.675   8.876  14.605  0.2094 -0.0624 -0.0839
 7537W        W23431   1.502  13.668   5.203 -0.1786 -0.0742 -0.0500
 7538W        W23432  15.180  10.019   2.505  0.0892  0.0320 -0.0642
 7539W        W23433  16.363   6.737  12.618 -0.2947 -0.0354  0.3855
 7540W        W23434   5.477  12.043   0.262 -0.0690 -0.0592 -0.1899
 7541W        W23435  13.361  17.407   2.400  0.0647  0.2008 -0.1490
 7542W        W23436  15.662  11.049   3.811  0.1787  0.1498 -0.1089
 7543W        W23437   3.410  16.497  14.463  0.0624 -0.1188  0.1058
 7544W        W23438   5.955   2.200   2.294 -0.4399  0.0708  0.0660
 7545W        W23439   1.179   2.756  12.203 -0.0528  0.4329  0.2505
 7546W        W23440  17.123  10.828   3.704 -0.2450  0.1729 -0.0292
 7547W        W23441  18.185  11.401   1.448 -0.1256  0.1511  0.2033
 7548W        W23442   8.649   0.993   0.997  0.0110  0.3310 -0.1970
 7549W        W23443  11.008   5.594   1.062 -0.0672 -0.2421 -0.1002
 7550W        W23444   1.007  14.473  10.950 -0.1660 -0.0026 -0.1091
 7551W        W23445  17.747   6.846   0.573  0.0162  0.3524  0.0212
 7552W        W23446  16.638  17.052   5.605 -0.1030 -0.1134  0.0229
 7553W        W23447  14.740  10.932  14.490  0.1382  0.3977  0.0147
 7554W        W23448  13.496   6.046  11.592 -0.2091 -0.2652 -0.1720
 7555W        W23449  17.145   3.627   2.770  0.1127 -0.0369  0.0821
 7556W        W23450  14.634  16.436  15.868  0.0344 -0.7027  0.2969
 7557W        W23451   8.957   3.909  15.670 -0.2786  0.1684  0.2623
 7558W        W23452  10.954  15.296   0.107  0.1136  0.1296  0.1242
 7559W        W23453  13.479   9.535   3.084 -0.0183 -0.0837  0.1770
 7560W        W23454  14.491  16.920   2.620 -0.0656  0.0116 -0.0022
 7561W        W23455   7.321  17.072   3.499 -0.2171  0.1764 -0.0718
 7562W        W23456   3.123  14.196  14.128 -0.1743  0.2883  0.1984
 7563W        W23457   8.303   0.665  15.322 -0.0494 -0.0691 -0.0550
 7564W        W23458  17.107  15.438  11.895 -0.2641 -0.1585 -0.0190
 7565W        W23459  10.922   5.968   1.348  0.3660 -0.0401  0.0941
 7566W        W23460   5.327  12.384  15.665  0.0984 -0.3211 -0.1723
 7567W        W23461  17.709   3.185  13.662  0.6446 -0.0432 -0.3026
 7568W        W23462   8.686   6.398   0.333 -0.2638  0.4324 -0.1943
 7569W        W23463  17.019   0.884  12.384  0.1808  0.2519 -0.0721
 7570W        W23464   8.774  10.524   1.345 -0.1453 -0.0418  0.2207
 7571W        W23465  15.436   4.195   5.849  0.2003  0.0603 -0.3905
 7572W        W23466  18.366  16.765  15.994  0.0309 -0.0932  0.3217
 7573W        W23467   9.070   8.387  14.545 -0.3443 -0.0419  0.3135
 7574W        W23468   8.422   3.172   0.730 -0.3103  0.0168  0.0249
 7575W        W23469  13.602   0.027   0.902  0.5784  0.0585  0.0053
 7576W        W23470   4.519  13.156   1.497 -0.1922  0.0813  0.1232
 7577W        W23471  12.953   9.850   1.547 -0.0437  0.0780  0.0231
 7578W        W23472   2.456   1.609  14.631 -0.2446 -0.3490  0.1431
 7579W        W23473   4.868  13.013  12.346 -0.0327 -0.1579 -0.0427
 7580W        W23474  13.300   7.682  14.530 -0.2967  0.2109 -0.0764
 7581W        W23475   8.974  15.971   4.266 -0.1307  0.1683  0.3215
 7582W        W23476   2.582  14.485   4.670  0.3105  0.0233  0.2093
 7583W        W23477  12.697  13.131  15.653 -0.0413 -0.4069 -0.1043
 7584W        W23478   0.895   0.728  14.370  0.2017  0.2656  0.3024
 7585W        W23479  16.250   1.188   1.724  0.0889 -0.2485 -0.2002
 7586W        W23480   8.210  10.276   1.644 -0.0127  0.1939  0.0790
 7587W        W23481  15.609   7.383   2.012  0.0776  0.2806  0.1562
 7588W        W23482   6.684  13.281  12.675 -0.0661  0.1263 -0.0007
 7589W        W23483   4.267   3.914  11.193  0.1027  0.0378 -0.2802
 7590W        W23484   0.192  12.557   5.575 -0.0038 -0.4192 -0.2687
 7591W        W23485   8.336  11.657  11.051 -0.1839 -0.2609 -0.0031
 7592W        W23486   4.218  15.189   4.393  0.2885 -0.4948 -0.3971
 7593W        W23487   3.176  12.240   4.393 -0.0687  0.0324  0.2438
 7594W        W23488   1.066   8.253  15.008  0.1117 -0.0082  0.1422
 7595W        W23489  11.937  13.798  10.883 -0.0071  0.0875 -0.0057
 7596W        W23490  15.838   5.153   4.118  0.2285 -0.0231 -0.0344
 7597W        W23491  13.815   7.532   3.316  0.0626  0.1359 -0.1030
 7598W        W23492  12.737   0.088   2.249 -0.3260 -0.1070 -0.3030
 7599W        W23493  15.047   1.138  13.977  0.0213 -0.1217 -0.0380
 7600W        W23494  10.299   6.258   0.200  0.5494 -0.1720 -0.0678
 7601W        W23495  12.227   7.237  11.875 -0.0318  0.1971 -0.2318
 7602W        W23496   3.367   9.837   1.989 -0.0868 -0.1833  0.0517
 7603W        W23497   0.206   9.494  15.996 -0.1120  0.1000 -0.2789
 7604W        W23498   5.211   5.733   4.908 -0.0646  0.0239  0.1714
 7605W        W23499  15.712   5.695   4.088  0.2918  0.2844 -0.2864
 7606W        W23500  13.565   5.827   4.117 -0.0453  0.1667  0.1783
 7607W        W23501  15.374   0.412   0.723  0.3092  0.2167  0.2777
 7608W        W23502  11.060  12.901  13.876  0.0501  0.0733  0.0886
 7609W        W23503  11.441  15.405   1.619  0.0221 -0.1650  0.2368
 7610W        W23504   3.151   8.065  15.536  0.2151 -0.2887  0.0648
 7611W        W23505   1.462   5.004   5.069 -0.0648  0.1531  0.1248
 7612W        W23506  10.576   1.787  14.568 -0.0588 -0.1278  0.3148
 7613W        W23507  16.384   5.629  12.606 -0.3679 -0.0010  0.1721
 7614W        W23508  18.243   9.010  13.739  0.1046  0.0509 -0.2538
 7615W        W23509  11.101   2.821  12.409  0.0675  0.1194 -0.0291
 7616W        W23510   9.068   2.665  14.039  0.0281  0.1556  0.0614
 7617W        W23511  17.152  15.382  15.349 -0.0899  0.2227 -0.3755
 7618W        W23512  11.091   9.620  11.681  0.1505  0.0623  0.0854
 7619W        W23513   7.524  15.515  12.663  0.0584 -0.3493 -0.2025
 7620W        W23514   1.910  10.423   4.459 -0.3445  0.1354  0.0447
 7621W        W23515   4.230  11.713  14.216  0.2310 -0.1171 -0.0987
 7622W        W23516   0.110  15.400  14.752  0.2872 -0.1774 -0.0478
 7623W        W23517   9.155  12.533  14.970 -0.0800  0.1351  0.0023
 7624W        W23518   4.023  11.178  10.994  0.0520  0.0919  0.2281
 7625W        W23519   1.798  16.809   4.437  0.0630  0.1207  0.1197
 7626W        W23520   6.480   3.238  15.831  0.0290  0.2849  0.3327
 7627W        W23521   8.998  15.184  11.733  0.2751  0.0500 -0.1090
 7628W        W23522  16.505   9.330   5.562 -0.0635  0.0331 -0.2418
 7629W        W23523   7.505  11.696  14.279  0.2207 -0.2403 -0.1618
 7630W        W23524   5.723  16.269  13.116  0.0949 -0.0121 -0.1257
 7631W        W23525  10.658   1.876   3.637  0.0105 -0.0348  0.0674
 7632W        W23526   5.379   2.814  12.506  0.1274  0.1293  0.2497
 7633W        W23527  13.888   6.411  11.891  0.1198  0.0103  0.2224
 7634W        W23528   2.549   9.348  11.759 -0.1114 -0.2890 -0.1215
 7635W        W23529   6.298  16.176  12.078 -0.1152  0.2954 -0.0289
 7636W        W23530   2.357   6.207  15.595 -0.1627  0.0506 -0.0710
 7637W        W23531   7.645   9.103  11.511  0.2285 -0.2925  0.1937
 7638W        W23532  14.383  15.148  14.454  0.0681 -0.0345 -0.0522
 7639W        W23533   5.763  10.872  16.146 -0.1919 -0.1313  0.2606
 7640W        W23534   0.697  13.008   2.479 -0.2226 -0.0346  0.1203
 7641W        W23535   2.177   3.930  14.779  0.2898 -0.1352 -0.0677
 7642W        W23536   6.639   2.566   3.547  0.1759 -0.2326  0.1659
 7643W        W23537  16.319   0.152  14.585  0.2860 -0.1004 -0.0626
 7644W        W23538  16.405  18.232  12.167  0.1629  0.0521  0.0504
 7645W        W23539   1.131  12.078  11.722  0.0270  0.3054  0.3812
 7646W        W23540   3.791   2.557  11.757 -0.1000  0.2229 -0.0804
 7647W        W23541   1.970  12.039  13.967  0.3531  0.0750 -0.1074
 7648W        W23542   6.785  13.554   1.785  0.0557 -0.0040  0.2901
 7649W        W23543   3.487   2.782  12.145 -0.0534  0.0073 -0.1137
 7650W        W23544   4.025   6.870   5.273  0.0500  0.2543 -0.2287
 7651W        W23545  12.793   8.278  11.601 -0.0598 -0.1402 -0.1654
 7652W        W23546   6.194   1.690   4.932  0.0944  0.0631  0.1335
 7653W        W23547   0.296  10.471   0.328  0.2538 -0.4488 -0.1220
 7654W        W23548   9.677  17.194  10.819  0.0074  0.0626 -0.1182
 7655W        W23549   6.663   0.835  12.116  0.1086 -0.1651 -0.1078
 7656W        W23550   0.065  11.902  13.372 -0.5545  0.0936  0.2505
 7657W        W23551   1.541  17.913   5.146  0.1202 -0.1633 -0.1624
 7658W        W23552   5.121  14.576   2.163  0.2695  0.0797  0.0348
 7659W        W23553   3.568  17.914   0.595  0.3403  0.0419  0.0156
 7660W        W23554   6.700  10.609  15.300 -0.2269  0.1154  0.1030
 7661W        W23555   3.407  18.077   1.115  0.1575 -0.3571 -0.1288
 7662W        W23556  14.915   1.543   6.131  0.3206  0.0700 -0.3167
 7663W        W23557  13.250  14.185  15.566 -0.1439 -0.0413  0.0111
 7664W        W23558   1.063   9.275  11.291  0.3941 -0.2924 -0.1075
 7665W        W23559  11.983  13.137  14.071  0.0690  0.0272  0.3260
 7666W        W23560  12.997   2.737  12.239 -0.0338 -0.0362  0.0144
 7667W        W23561  10.845  11.095  10.802 -0.0057  0.2426  0.0889
 7668W        W23562   0.618   0.295   3.010 -0.1284 -0.0037 -0.2432
 7669W        W23563   6.620   6.995   6.312 -0.3898  0.0156 -0.3407
 7670W        W23564   8.228  15.528  13.780  0.0924  0.3272 -0.0048
 7671W        W23565  12.026   3.829   5.479  0.3475  0.3947  0.2416
 7672W        W23566  16.856  13.948   3.087 -0.3345  0.1897  0.1859
 7673W        W23567   3.926   7.376  15.433  0.2162  0.0824  0.0793
 7674W        W23568   6.995   5.696   0.410  0.1398  0.1515 -0.0291
 7675W        W23569  12.551  16.928   2.828  0.2213 -0.0074 -0.2455
 7676W        W23570  15.468  13.084  15.118 -0.1244  0.1507  0.1845
 7677W        W23571  13.750   1.421  14.531  0.0334 -0.0879  0.0346
 7678W        W23572   5.639  10.418  14.719  0.1298 -0.0568 -0.2387
 7679W        W23573  15.210  18.458   5.583  0.0916  0.0035 -0.1675
 7680W        W23574   1.658   1.520  13.060  0.1791 -0.0556 -0.0897
 7681W        W23575   1.811  15.533   5.013  0.3074  0.0827 -0.2377
 7682W        W23576  11.631   1.675  14.583  0.1910  0.0816 -0.1089
 7683W        W23577   6.942   0.125  15.778 -0.2045  0.2719  0.1815
 7684W        W23578  14.799  11.808   3.836 -0.2426  0.0131 -0.1570
 7685W        W23579  14.822   8.597   5.102  0.2484  0.0446 -0.1592
 7686W        W23580  14.216  12.485   2.039  0.0452 -0.0540  0.0432
 7687W        W23581  12.593   1.667   2.223  0.1000 -0.1532  0.1561
 7688W        W23582  15.229  13.243   1.900 -0.0830  0.0576  0.1284
 7689W        W23583  13.706  14.246   4.546  0.0621  0.1951 -0.0057
 7690W        W23584   7.635   6.217   1.865 -0.1112 -0.3683 -0.0177
 7691W        W23585  18.311   0.927  12.855 -0.0397 -0.0955 -0.1036
 7692W        W23586   6.684  13.249  14.346 -0.0449  0.2415 -0.0842
 7693W        W23587  11.874   7.870   2.556 -0.0713 -0.1562  0.1166
 7694W        W23588   6.783  17.320  15.079 -0.1756 -0.1700 -0.0016
 7695W        W23589  12.520  16.786   0.206 -0.2441  0.2465  0.0929
 7696W        W23590   3.449   3.205   3.939 -0.0612  0.4396 -0.1149
 7697W        W23591   9.258  15.633  16.056  0.0622  0.0721  0.2401
 7698W        W23592  10.232  11.204   4.700  0.2424  0.3989  0.0984
 7699W        W23593  11.971   8.936  13.298 -0.0833  0.1852  0.2685
 7700W        W23594   0.268  17.702   4.450 -0.2818  0.0830 -0.0688
 7701W        W23595  14.018  12.147  12.464  0.1707 -0.3431 -0.0919
 7702W        W23596  12.231  10.953   3.663  0.0717 -0.0617  0.0483
 7703W        W23597   8.234   5.895  14.293  0.1912 -0.2687  0.2332
 7704W        W23598   8.874   1.061   5.408 -0.1191  0.0749  0.1596
 7705W        W23599   9.336   4.613   2.544  0.2514 -0.1653  0.0989
 7706W        W23600   2.799   5.637   1.625 -0.1065 -0.1115  0.2931
 7707W        W23601   5.684  11.743   2.357  0.0189 -0.1108 -0.0066
 7708W        W23602  17.964  11.134   2.347 -0.0854 -0.2379  0.4019
 7709W        W23603   7.827   0.676   0.859 -0.1820 -0.0948 -0.0256
 7710W        W23604   2.776  13.236   4.291  0.3816  0.2969  0.1598
 7711W        W23605   8.337   2.868   1.742 -0.0637  0.2523 -0.1226
 7712W        W23606  12.165  17.295  14.242 -0.0301 -0.0918  0.1603
 7713W        W23607   4.676   0.762   4.390  0.0249  0.0751 -0.1357
 7714W        W23608   5.021  13.304  11.152 -0.3893  0.1556 -0.0956
 7715W        W23609   7.654  12.019   2.760 -0.2112  0.0337  0.2125
 7716W        W23610   3.679   1.779   3.460  0.0610 -0.0527  0.1236
 7717W        W23611   0.815   4.843  15.565 -0.1098  0.1324  0.0303
 7718W        W23612   1.586   7.084   5.082 -0.4162  0.0841  0.1812
 7719W        W23613   3.143  12.558  16.093  0.0260  0.0599  0.0300
 7720W        W23614   4.934   1.354   3.769 -0.0385  0.0843  0.3319
 7721W        W23615   4.736   5.809   5.878 -0.0403  0.0057 -0.2707
 7722W        W23616  12.422   2.512   4.979  0.0947  0.3414  0.1174
 7723W        W23617   8.228  15.186  11.039 -0.3484  0.1715 -0.0833
 7724W        W23618  11.142  14.987   1.554  0.4413  0.0421 -0.0879
 7725W        W23619   5.706   1.228  15.671 -0.0909  0.1838 -0.1611
 7726W        W23620   1.079   2.081  12.075  0.0102 -0.1132  0.1433
 7727W        W23621  11.953   2.115   2.514 -0.2714 -0.1571 -0.1549
 7728W        W23622   4.382  11.494   1.675 -0.0388  0.1427 -0.2496
 7729W        W23623  13.578  12.866   1.824 -0.0107 -0.3724 -0.1696
 7730W        W23624   2.061   7.084  13.839 -0.4508  0.2340 -0.6366
 7731W        W23625   3.780   8.859   3.083 -0.1091 -0.0523 -0.2523
 7732W        W23626  11.275   8.385   1.177  0.5156 -0.0740  0.3337
 7733W        W23627  16.099   9.444   4.274  0.1750  0.0515 -0.0828
 7734W        W23628  14.120  11.177  13.658 -0.2831 -0.0731 -0.4516
 7735W        W23629  15.514  14.176   4.025  0.0472  0.0325  0.1315
 7736W        W23630  15.596   5.304   2.788  0.1509  0.0531 -0.0547
 7737W        W23631  15.074  12.800   1.694  0.0265 -0.2078  0.1244
 7738W        W23632   7.591   6.199  15.891  0.2125  0.1670  0.0295
 7739W        W23633  15.826  13.318   2.008 -0.0975  0.1389  0.1514
 7740W        W23634   3.460  13.811   1.012 -0.3525  0.5104 -0.1464
 7741W        W23635  12.089  14.732  14.941 -0.2095 -0.0112 -0.0511
 7742W        W23636  17.014  15.691   1.504 -0.0974  0.1497  0.0974
 7743W        W23637   7.066   7.530  13.516 -0.1316  0.0515  0.1425
 7744W        W23638  11.938   8.156  11.702  0.0794  0.1171 -0.3541
 7745W        W23639   9.684  14.578  12.321  0.0214  0.3465 -0.0208
 7746W        W23640   7.115   5.836   6.050  0.3709 -0.1106  0.2044
 7747W        W23641  14.175  14.961  11.553 -0.0237 -0.1825 -0.0283
 7748W        W23642   2.545  10.540  15.892  0.3935 -0.1078  0.1315
 7749W        W23643  13.472  14.320   5.838 -0.1718  0.0005 -0.6562
 7750W        W23644  12.013   9.433  12.074  0.0039  0.0269 -0.1152
 7751W        W23645   2.128   2.655   2.426 -0.1799  0.1356 -0.0546
 7752W        W23646  13.492   4.879   4.601 -0.1950  0.0947 -0.0635
 7753W        W23647   4.633   4.651  14.394 -0.1039  0.1569  0.1104
 7754W        W23648  11.419   9.180   5.435  0.0109 -0.1655 -0.2158
 7755W        W23649   8.931   7.496   2.084  0.1560  0.2991 -0.0160
 7756W        W23650  11.629   3.757  12.054  0.0347 -0.0291  0.0202
 7757W        W23651   4.982  15.018  15.960 -0.0536  0.0910  0.1386
 7758W        W23652   8.273   5.501  16.150  0.0613 -0.0675  0.2022
 7759W        W23653  16.468   4.245   5.839 -0.5848 -0.5458  0.1658
 7760W        W23654   4.597   1.909   4.659  0.1651 -0.0412 -0.0496
 7761W        W23655   1.098  10.385  15.220  0.0136 -0.0647 -0.0812
 7762W        W23656  16.705   1.943   1.339 -0.1902 -0.0342 -0.3043
 7763W        W23657  15.178   1.689   3.025  0.6626  0.1988  0.0851
 7764W        W23658  13.132   1.279  15.117 -0.0368  0.1926  0.2211
 7765W        W23659   3.857  15.648  14.161  0.2300 -0.0038 -0.1415
 7766W        W23660   2.640   3.879   4.027  0.1813 -0.0038  0.0048
 7767W        W23661   7.521   2.017  13.367 -0.1067  0.4086 -0.2068
 7768W        W23662   9.991  17.826  11.576  0.0174  0.0679 -0.0004
 7769W        W23663  14.635   2.437  15.643 -0.1435 -0.0398  0.0116
 7770W        W23664   1.186   9.162   3.004 -0.0755  0.2472  0.0148
 7771W        W23665   0.481   8.564  11.526  0.1289 -0.3702  0.0319
 7772W        W23666  11.836  16.524  11.767  0.0636  0.0498  0.1114
 7773W        W23667   5.742   9.501   5.227  0.0013 -0.0792  0.1477
 7774W        W23668  10.125   1.754   5.371  0.0839  0.0010 -0.1373
 7775W        W23669   4.174   2.877   3.288  0.0855 -0.1814 -0.0128
 7776W        W23670   2.563  15.125  14.233 -0.0684  0.0410 -0.1129
 7777W        W23671   1.852  15.451  12.639 -0.1722 -0.1236  0.0866
 7778W        W23672   3.501   3.457  10.327  0.1633 -0.2676 -0.2689
 7779W        W23673  17.449   3.313   4.157  0.0734 -0.3264 -0.1316
 7780W        W23674   7.371   5.298   4.570  0.1342  0.0990  0.2782
 7781W        W23675   0.157  15.178  11.274  0.0356 -0.0892  0.2998
 7782W        W23676   5.315  11.877   1.530 -0.0075 -0.0330  0.1502
 7783W        W23677   8.677  12.554  14.718  0.0622  0.3241  0.1546
 7784W        W23678  12.495   2.514   2.437  0.1307  0.2311  0.2417
 7785W        W23679   4.925   0.750  12.759  0.0807 -0.0247  0.2138
 7786W        W23680  16.671   5.850   4.460 -0.2226 -0.0950 -0.1592
 7787W        W23681   7.065  10.918   1.872 -0.1687 -0.2341 -0.0130
 7788W        W23682  17.712   9.405  14.224  0.0688 -0.0858 -0.4144
 7789W        W23683   5.959  15.831  12.790 -0.1633 -0.0461  0.0518
 7790W        W23684  16.062  15.881  12.298 -0.0808  0.0542 -0.1069
 7791W        W23685   5.835   1.388   2.078  0.1341  0.0662 -0.0574
 7792W        W23686  11.134   5.148   0.740 -0.0371  0.1154  0.1501
 7793W        W23687   0.570  15.313   4.796 -0.3047  0.0676 -0.3088
 7794W        W23688   4.579  16.797   1.672  0.0500  0.1012 -0.3062
 7795W        W23689  15.384   6.971  11.326 -0.0502 -0.1250 -0.1726
 7796W        W23690   9.488   9.728  12.392  0.1355 -0.1128  0.0878
 7797W        W23691  15.953   1.122   0.145 -0.0116  0.0828 -0.5013
 7798W        W23692  16.381  13.459  12.944  0.0572 -0.2391 -0.1824
 7799W        W23693  11.813   2.170   4.000 -0.1640  0.3002 -0.3916
 7800W        W23694   6.129   2.846   4.181  0.4206 -0.2922  0.0139
 7801W        W23695  15.764   9.451  13.233  0.4554  0.1332 -0.1890
 7802W        W23696  15.553  17.344   3.111 -0.3662  0.0228 -0.3025
 7803W        W23697   5.254   1.247   4.758 -0.1404 -0.3311  0.0875
 7804W        W23698  14.113  15.534   3.949  0.3359 -0.3005  0.1100
 7805W        W23699   3.233   3.688  15.008 -0.0067  0.0031  0.4306
 7806W        W23700  13.310   6.854   0.113  0.1221  0.0135 -0.1858
 7807W        W23701  13.328   5.273   4.358  0.2850 -0.0740 -0.1964
 7808W        W23702  15.536  10.973  11.854 -0.2386 -0.1079 -0.1929
 7809W        W23703  12.283  18.018  12.521  0.0916  0.1061 -0.0355
 7810W        W23704   2.288  13.466  13.225  0.4230 -0.1180 -0.3333
 7811W        W23705   2.996   4.780  11.716  0.0337  0.4314 -0.1982
 7812W        W23706  13.263  15.179   4.889 -0.2529  0.2385  0.1388
 7813W        W23707   8.260  11.989   0.084 -0.0013 -0.2066 -0.3558
 7814W        W23708   4.658   2.779   3.082 -0.1689  0.1857 -0.0826
 7815W        W23709   5.938  10.419  15.879 -0.0745  0.0484 -0.0547
 7816W        W23710   5.153   4.829  14.718  0.1741 -0.0564 -0.3079
 7817W        W23711  18.239  15.233   1.849  0.0132 -0.0267  0.3448
 7818W        W23712  11.397  15.633   3.425  0.0983 -0.1977  0.1287
 7819W        W23713   3.653  12.617   0.292  0.2449 -0.2168 -0.0064
 7820W        W23714  13.412  10.296  13.177 -0.1055  0.1684  0.1082
 7821W        W23715  13.136   9.140   3.088  0.1209 -0.1810 -0.0371
 7822W        W23716   9.261  17.427   2.840  0.2282 -0.2715 -0.0966
 7823W        W23717  11.906   1.803  13.913 -0.1362 -0.1991 -0.0577
 7824W        W23718  10.112   8.982   5.669  0.1617 -0.1387 -0.2428
 7825W        W23719  14.022   6.515  14.359 -0.1059 -0.0866 -0.0745
 7826W        W23720  17.546   1.134   2.167 -0.3378 -0.4370  0.1566
 7827W        W23721  14.817   6.376   6.668  0.0889  0.0299  0.1977
 7828W        W23722   4.630   6.906   5.174  0.2274 -0.0823 -0.0674
 7829W        W23723   2.930   1.017  13.829 -0.1287  0.2294  0.0252
 7830W        W23724  15.257   5.729  11.930  0.4285  0.2655  0.1593
 7831W        W23725   8.040   3.684  13.612  0.2873  0.1457  0.1372
 7832W        W23726   8.314   4.591  11.114  0.0806  0.0351 -0.0385
 7833W        W23727   8.412   6.617   1.584 -0.1928  0.1370  0.0352
 7834W        W23728   2.323  11.800  13.046 -0.1081  0.0442  0.1375
 7835W        W23729   9.692  13.882  15.029 -0.2452  0.0082 -0.0963
 7836W        W23730   0.737  14.925  15.964 -0.0628 -0.0488  0.3403
 7837W        W23731  17.916   1.054  15.751 -0.5285  0.0051  0.0939
 7838W        W23732  17.391   6.237  10.825  0.0693  0.0722  0.1916
 7839W        W23733   5.411   9.218   3.622  0.2236  0.0995  0.1758
 7840W        W23734  14.905  13.654  11.918  0.2193 -0.1698  0.0137
 7841W        W23735  16.838   8.987   3.748 -0.2423  0.0964  0.0953
 7842W        W23736  16.239   4.884  15.530 -0.0528 -0.2163  0.0190
 7843W        W23737   5.187   0.904  14.534  0.2405 -0.0916  0.1118
 7844W        W23738  14.033  10.163   2.607 -0.3376  0.3272  0.1438
 7845W        W23739   8.663   8.711  14.414  0.0792 -0.1991 -0.0435
 7846W        W23740   4.379   5.031  11.995 -0.0443  0.0167 -0.3046
 7847W        W23741  14.271  11.587  13.976  0.0592 -0.0199 -0.1716
 7848W        W23742  16.760  10.007   2.876  0.3003 -0.0349 -0.0465
 7849W        W23743   0.547  16.237  13.830  0.0966 -0.0988  0.1007
 7850W        W23744   2.022  10.576  13.642 -0.1543 -0.1391  0.0495
 7851W        W23745  14.980  17.411  15.993  0.0112  0.3049 -0.1283
 7852W        W23746   1.021  16.893   0.551  0.2951 -0.0649  0.0418
 7853W        W23747   1.509  12.867   1.378  0.0989 -0.0534 -0.0762
 7854W        W23748  13.483   3.165   3.823 -0.0468  0.1971 -0.1890
 7855W        W23749   7.119   5.632  15.227 -0.0183 -0.1783 -0.3515
 7856W        W23750   8.978   5.233   1.801 -0.0772 -0.1611  0.2466
 7857W        W23751  18.194   9.076  14.241 -0.1817 -0.0227  0.1776
 7858W        W23752  18.407   9.489   2.203  0.0498  0.0254  0.0958
 7859W        W23753  11.114   3.931  15.370 -0.3355  0.3273  0.0021
 7860W        W23754  18.259  14.544   4.350 -0.0061 -0.2895  0.0997
 7861W        W23755  11.546  16.076  12.582  0.3164  0.1150 -0.1775
 7862W        W23756  14.822   7.038   6.268 -0.2075 -0.0919 -0.0698
 7863W        W23757  13.864   3.021  12.613  0.2087  0.0608  0.2114
 7864W        W23758  13.951  15.055  14.233  0.3097 -0.2238 -0.0576
 7865W        W23759   6.078   7.655   3.328  0.0619 -0.2190 -0.0107
 7866W        W23760  12.535  10.296  14.415 -0.4138  0.2733 -0.1418
 7867W        W23761  15.750   8.165   0.894 -0.0011 -0.0522 -0.2440
 7868W        W23762  15.957   0.443   5.399 -0.0944  0.2110  0.0566
 7869W        W23763   7.813  17.840  13.170 -0.2057  0.0587 -0.0011
 7870W        W23764   7.085   0.740  15.360 -0.2778 -0.4015  0.0773
 7871W        W23765   3.021  10.013   3.521  0.0377 -0.1792  0.0691
 7872W        W23766   9.248  18.451   3.546 -0.0244  0.1631  0.1648
 7873W        W23767   5.330   6.176  14.561 -0.1648 -0.1126 -0.2434
 7874W        W23768  16.727   0.387   1.754 -0.2475  0.0810 -0.2730
 7875W        W23769  13.670   4.819   5.088  0.1434 -0.0942 -0.1260
 7876W        W23770  16.071   1.399   3.245 -0.3734 -0.1240  0.1739
 7877W        W23771   5.942   5.555   5.516  0.2484  0.0732  0.3304
 7878W        W23772   5.271  14.298  15.869  0.0815  0.0616 -0.0140
 7879W        W23773  10.903   3.771  12.052  0.2011 -0.0817 -0.0340
 7880W        W23774   4.510   4.274   0.421 -0.1620 -0.2105 -0.0942
 7881W        W23775   2.788  11.066   2.437 -0.2035  0.2669 -0.0409
 7882W        W23776  18.426   5.944  14.189  0.3036  0.0437  0.2101
 7883W        W23777  18.183   6.779   2.740 -0.0279 -0.2463  0.0395
 7884W        W23778  13.294   9.449   1.196 -0.0298  0.0529 -0.1539
 7885W        W23779   9.140   9.756   4.853 -0.1362 -0.0096 -0.1542
 7886W        W23780  13.027   2.529   2.855  0.3259  0.2699 -0.3814
 7887W        W23781  17.116  15.304  13.606 -0.0000 -0.0795  0.2032
 7888W        W23782   7.355  11.520  11.199 -0.0327  0.2535 -0.2145
 7889W        W23783   9.158   7.822   0.286 -0.2185  0.0497  0.0620
 7890W        W23784  18.291  11.079   3.345  0.1122  0.0972  0.1147
 7891W        W23785  16.493  13.193   2.355  0.0593  0.0570  0.0901
 7892W        W23786   9.703  13.820  14.529  0.0079 -0.0967 -0.1028
 7893W        W23787  12.284   8.228  13.832  0.0031  0.0743  0.2780
 7894W        W23788   0.345  16.772   4.994 -0.4204 -0.1956  0.2167
 7895W        W23789   1.587  17.802   3.387  0.0590  0.0972  0.2429
 7896W        W23790  11.418   2.677   2.877  0.1181  0.0553  0.0388
 7897W        W23791  18.144  10.176   2.199  0.1305 -0.0870  0.1692
 7898W        W23792   2.913   9.120   5.233 -0.0260 -0.1056  0.3081
 7899W        W23793   2.601   9.341   4.016  0.1304 -0.0184 -0.1907
 7900W        W23794  11.004   9.921   0.929  0.0348  0.4597  0.3199
 7901W        W23795   6.793  18.286   0.020  0.4989 -0.1891 -0.1629
 7902W        W23796  12.334  16.891  10.793 -0.0499 -0.0116  0.1092
 7903W        W23797  10.585   0.683   2.853  0.1972  0.0084  0.1544
 7904W        W23798  16.225  10.739   3.812  0.1037  0.2571 -0.2502
 7905W        W23799  16.894   1.327   2.171 -0.0806 -0.1572 -0.0356
 7906W        W23800  13.397  18.189  13.169  0.2137 -0.0593  0.1185
 7907W        W23801   5.851   8.951   3.592 -0.1565 -0.0644  0.0123
 7908W        W23802  13.888   2.882   3.717 -0.0887  0.0629 -0.0684
 7909W        W23803   9.426  16.204  15.308  0.0664  0.1991  0.0660
 7910W        W23804   4.895  14.433   5.199 -0.0756  0.4396 -0.2539
 7911W        W23805  14.455   7.238   2.655  0.0901 -0.1488 -0.0496
 7912W        W23806  14.617   9.925   3.683  0.0176 -0.1083  0.2602
 7913W        W23807  16.082  16.859  11.677  0.0464 -0.0998 -0.1243
 7914W        W23808  17.965   5.822   2.259 -0.3537 -0.1638 -0.0631
 7915W        W23809   6.816  10.133   3.683 -0.1845 -0.1605  0.1470
 7916W        W23810   0.561  11.375  12.032 -0.2423 -0.0564 -0.1762
 7917W        W23811  13.692   0.356  15.266 -0.1488  0.1713  0.1229
 7918W        W23812  12.045   9.665  13.348  0.1553 -0.2086  0.2672
 7919W        W23813  16.742  13.325   3.875 -0.0580 -0.4400  0.0595
 7920W        W23814   9.004   8.656   6.311 -0.3106  0.0966 -0.1572
 7921W        W23815  18.238   6.515   0.634 -0.1386 -0.1429 -0.2173
 7922W        W23816  16.407   9.698   3.889  0.0345 -0.1829 -0.2101
 7923W        W23817   8.925   0.563  15.718 -0.0499  0.3257 -0.1729
 7924W        W23818   8.868   9.754   0.034  0.2072 -0.2643  0.1382
 7925W        W23819   1.050   0.809  15.154  0.1008 -0.1629 -0.1994
 7926W        W23820   4.487  12.214  14.236  0.0249  0.0166  0.1081
 7927W        W23821   9.060  12.458  16.049  0.0283 -0.3236 -0.1769
 7928W        W23822  12.039   6.229   3.388  0.4145  0.0420  0.2428
 7929W        W23823  13.380  15.732   6.021 -0.0461  0.0859  0.0267
 7930W        W23824  17.344   3.730   3.838 -0.1152 -0.2929  0.0884
 7931W        W23825  14.723   8.945  12.511  0.1303 -0.0055 -0.2033
 7932W        W23826  10.736  10.615   0.613  0.0292 -0.1241 -0.1014
 7933W        W23827   5.577   8.077   1.967 -0.2234  0.0723 -0.1113
 7934W        W23828  17.381   0.848   3.908 -0.0640  0.2865  0.2030
 7935W        W23829  16.782   2.663   0.822 -0.1228 -0.0240  0.1443
 7936W        W23830   3.554   7.790  15.378 -0.2051 -0.1516  0.1943
 7937W        W23831   3.917  17.539   1.679 -0.0329 -0.0347  0.0933
 7938W        W23832  10.715  12.511  10.376 -0.2555 -0.1209 -0.2743
 7939W        W23833  16.939   7.512   0.563  0.0843  0.0970 -0.3865
 7940W        W23834   5.409  17.225  14.509 -0.1627  0.2293 -0.2480
 7941W        W23835   4.828   3.307   0.016  0.0507 -0.2866  0.2767
 7942W        W23836   4.223   2.412  10.684  0.1513 -0.1390 -0.2993
 7943W        W23837   2.996  12.645   2.469 -0.1200 -0.1611  0.1966
 7944W        W23838   5.360  18.381  16.079 -0.0016  0.3293  0.2739
 7945W        W23839   4.772   1.896   4.093 -0.0775  0.3926 -0.2909
 7946W        W23840   7.745   3.980   3.691 -0.0946 -0.1280 -0.0810
 7947W        W23841   2.826   4.875  13.349  0.0367 -0.1040  0.1025
 7948W        W23842   2.354   8.029   1.036  0.1118 -0.2720 -0.0792
 7949W        W23843   2.581  17.503  11.204 -0.2202  0.3108 -0.0843
 7950W        W23844   9.373  16.307   1.919 -0.2788  0.2876  0.0115
 7951W        W23845   3.218   2.111   5.781 -0.1628 -0.1174  0.2498
 7952W        W23846  15.937  12.331  14.670 -0.2605  0.2603  0.1596
 7953W        W23847   4.029  13.877  15.796 -0.0155 -0.0973  0.2084
 7954W        W23848   0.902   0.326  15.060  0.1742 -0.0017  0.2397
 7955W        W23849   7.607   7.428   0.104 -0.2062 -0.1609 -0.0072
 7956W        W23850  17.013   2.898   1.762 -0.1728  0.0728  0.2002
 7957W        W23851   6.878   7.371   3.559  0.1384 -0.1697 -0.2385
 7958W        W23852   4.115  11.050   2.534 -0.3191  0.0205  0.1292
 7959W        W23853  12.507  11.025  13.756  0.1634 -0.0060 -0.1423
 7960W        W23854   9.149  16.041   0.322  0.1201 -0.1527 -0.1310
 7961W        W23855  17.033  18.087  12.681 -0.0125  0.0900  0.0118
 7962W        W23856   4.828  10.017   1.361  0.1720 -0.1724 -0.0628
 7963W        W23857   7.110   7.657   2.284  0.0276 -0.2604 -0.0567
 7964W        W23858  16.202  18.078  14.615 -0.0724 -0.1996  0.1518
 7965W        W23859   1.291   1.276   4.634  0.3138  0.0131 -0.2194
 7966W        W23860   3.146  17.849   3.035 -0.2133 -0.1801 -0.0545
 7967W        W23861   1.957  11.395   2.899  0.3139  0.0355 -0.1580
 7968W        W23862  18.365  11.809   2.301 -0.1951 -0.2042  0.1350
 7969W        W23863  10.743   7.136  14.497  0.0323  0.0468 -0.3605
 7970W        W23864   8.495   4.165  11.461 -0.2536 -0.0052 -0.0038
 7971W        W23865  15.854   0.479   3.311  0.0120 -0.1197 -0.1061
 7972W        W23866   2.976   1.668  16.081 -0.1581 -0.3710 -0.2814
 7973W        W23867   1.278   1.852  15.149 -0.1008 -0.2529 -0.2075
 7974W        W23868   6.249  14.680   3.803 -0.1094  0.3604  0.2944
 7975W        W23869  15.725   9.049   0.037  0.2618  0.0246 -0.3214
 7976W        W23870   8.486  17.270  10.292  0.2347 -0.2569  0.4203
 7977W        W23871   0.607  17.782   0.601 -0.0091 -0.1871  0.2698
 7978W        W23872  13.170   6.832  14.490 -0.0410 -0.0250  0.1204
 7979W        W23873  16.894   5.445  12.806  0.1828 -0.1739  0.2429
 7980W        W23874   3.201  14.610  11.451  0.1824  0.2639  0.2388
 7981W        W23875  12.756   6.274   1.908  0.1266 -0.2391  0.1175
 7982W        W23876  10.184   7.802  13.963  0.2354  0.4318  0.0322
 7983W        W23877   1.797  14.859  15.797 -0.1815 -0.2161  0.0795
 7984W        W23878   0.336  14.873  13.713  0.1851  0.1749 -0.1808
 7985W        W23879   5.608   3.832  12.631  0.4279  0.0117  0.3021
 7986W        W23880  12.393   5.868  11.859 -0.0957  0.2687  0.1043
 7987W        W23881  11.231   9.678  13.039 -0.3398 -0.1131 -0.1948
 7988W        W23882   1.429   9.201  15.226 -0.0776  0.2506  0.1434
 7989W        W23883  13.620   5.893  13.470 -0.1848  0.0645  0.0601
 7990W        W23884  15.590   9.679   4.404  0.1788  0.1998  0.3546
 7991W        W23885  11.608  15.941  15.754 -0.1481 -0.3162  0.0331
 7992W        W23886   5.809   7.716  12.688  0.0273 -0.2392 -0.0729
 7993W        W23887  13.544   3.564   0.433 -0.1605 -0.0835 -0.0724
 7994W        W23888   6.655  11.464   1.525 -0.1536 -0.1063  0.3372
 7995W        W23889  18.034   0.873  11.413 -0.0666 -0.1956 -0.0251
 7996W        W23890   9.413  10.404  11.737  0.1744 -0.2111 -0.1752
 7997W        W23891  15.202  18.450  12.929 -0.3134  0.1134 -0.1489
 7998W        W23892   0.895  14.582  15.591  0.1370  0.3539 -0.2363
 7999W        W23893   6.069   2.861   0.753  0.4599  0.3478  0.1151
 8000W        W23894   6.157  11.813  12.054  0.1571  0.1730  0.0632
 8001W        W23895  13.393   9.533   2.237 -0.1216 -0.2717 -0.0740
 8002W        W23896   6.062   4.813   0.704 -0.0343  0.0450  0.1050
 8003W        W23897  13.396  12.776  15.206 -0.1770 -0.0083 -0.1073
 8004W        W23898  13.470   2.255   3.026 -0.2074 -0.3263  0.1102
 8005W        W23899   8.745  12.716  14.223 -0.0807  0.1351  0.1560
 8006W        W23900  10.128   7.532   1.270 -0.2543 -0.0406 -0.3560
 8007W        W23901   8.666  15.842   3.324  0.3621 -0.0968  0.3143
 8008W        W23902  10.386   4.945  12.920 -0.2372  0.0693 -0.1649
 8009W        W23903  15.789   8.030  14.891 -0.0437 -0.2477 -0.5781
 8010W        W23904  10.194   2.533   0.995  0.2171  0.0596  0.2642
 8011W        W23905  13.144  10.858  12.584 -0.0121  0.0300  0.3225
 8012W        W23906   5.917   9.651  11.570  0.2863 -0.2348 -0.0281
 8013W        W23907   4.970   7.369   6.170 -0.1293 -0.1770 -0.1088
 8014W        W23908   5.917   9.107   2.063 -0.1368 -0.3445 -0.3145
 8015W        W23909   5.795  14.360  12.603  0.2308  0.1697 -0.1500
 8016W        W23910   7.870  12.189  15.882  0.0203  0.0947  0.0696
 8017W        W23911   4.690  15.945   0.435  0.0479  0.1338 -0.2439
 8018W        W23912   3.670   1.944  14.914  0.2514 -0.1757 -0.1634
 8019W        W23913  16.725   2.563  12.723  0.0736 -0.0545  0.3516
 8020W        W23914  15.988  13.715   1.271 -0.2111 -0.0504 -0.1848
 8021W        W23915   8.453  16.372   2.621 -0.0604  0.0729  0.1340
 8022W        W23916   5.098  17.213  11.244  0.2193  0.0585 -0.0053
 8023W        W23917   9.350   2.598   0.084 -0.0141  0.0445 -0.2087
 8024W        W23918   6.377  17.719   1.548 -0.0762  0.0778  0.1216
 8025W        W23919   4.122  13.840   4.347  0.0457  0.1490 -0.0776
 8026W        W23920   2.363   6.898   2.530  0.1724  0.1503 -0.0184
 8027W        W23921   5.644  12.566  10.046  0.0611 -0.1354 -0.0846
 8028W        W23922  12.609   0.721   0.138  0.0496  0.0910 -0.2103
 8029W        W23923  11.517  14.176   1.021  0.3629 -0.1153  0.0402
 8030W        W23924   0.223   8.656   1.138 -0.1094  0.3005 -0.4208
 8031W        W23925   1.760  15.956   2.463 -0.0349  0.1845  0.3935
 8032W        W23926   9.492  17.100   0.140  0.0507 -0.2627 -0.1489
 8033W        W23927   2.743   6.375   5.403  0.1989 -0.2106 -0.2014
 8034W        W23928   0.905   4.941   3.740  0.3071  0.1149  0.0694
 8035W        W23929   4.279   3.422   3.361  0.0479  0.0099 -0.0664
 8036W        W23930  16.649   7.439   6.172  0.4792 -0.3887 -0.1636
 8037W        W23931  15.411  15.679   3.627  0.1373  0.1714 -0.0417
 8038W        W23932  11.760   1.692  11.311 -0.0856 -0.1822 -0.2763
 8039W        W23933  12.695  12.266   5.341 -0.1230  0.1132  0.0380
 8040W        W23934   9.385   1.453   1.602 -0.2421 -0.0671  0.5041
 8041W        W23935  13.208   5.801   5.389 -0.1162  0.2509 -0.0604
 8042W        W23936  10.687   4.658   1.267  0.0602  0.2714 -0.0815
 8043W        W23937   3.574   1.139   4.490  0.0423  0.3258 -0.1023
 8044W        W23938   6.962   8.959   3.370 -0.1663  0.0471  0.3829
 8045W        W23939  10.764   4.672  11.715 -0.1837  0.0239 -0.0773
 8046W        W23940  17.096   5.668   3.719  0.1835  0.0462  0.1107
 8047W        W23941   9.642  13.881   3.676  0.0050 -0.2837  0.0362
 8048W        W23942   8.004  17.250  15.158 -0.0292 -0.2972  0.0897
 8049W        W23943   6.232  14.718  15.824  0.0380  0.0820  0.1923
 8050W        W23944   3.416   6.478  12.956 -0.3396  0.3729  0.1159
 8051W        W23945   2.051   1.800   5.014  0.0206 -0.1987  0.2376
 8052W        W23946   7.936  13.088   0.163  0.0636 -0.0668 -0.0336
 8053W        W23947  15.103  14.125   2.655  0.1091  0.3931  0.0477
 8054W        W23948   6.948   8.883   1.683  0.1995  0.1091 -0.0106
 8055W        W23949  15.050   0.065  11.464 -0.0575 -0.1823  0.1612
 8056W        W23950   6.959  15.461  14.790 -0.0255  0.1024  0.0933
 8057W        W23951  11.850   6.484   5.644 -0.1358  0.1151  0.1245
 8058W        W23952  10.427   8.091  14.983  0.1200  0.0589  0.1556
 8059W        W23953   6.881  14.006  14.893 -0.0484 -0.0981  0.2002
 8060W        W23954   8.435  15.811  12.465  0.0216 -0.0573 -0.0744
 8061W        W23955   8.564  16.447   1.092 -0.1775 -0.1174 -0.1041
 8062W        W23956   2.314   2.100   3.175 -0.4060 -0.3446 -0.0048
 8063W        W23957   7.588  16.032  14.148 -0.2580  0.1564 -0.1408
 8064W        W23958  16.080   1.804  10.919 -0.3933 -0.0994  0.2406
 8065W        W23959   7.269   6.661  12.258 -0.0844 -0.2532  0.1257
 8066W        W23960  16.364  12.888   3.534 -0.0522  0.2727  0.0128
 8067W        W23961   7.853   5.816   1.591 -0.1752  0.0832  0.2145
 8068W        W23962  12.333   0.321  10.444  0.1996 -0.4606  0.0216
 8069W        W23963   5.058   3.425  13.882 -0.3685 -0.2142  0.1906
 8070W        W23964  14.262  15.850   2.505 -0.2175 -0.0917 -0.0187
 8071W        W23965   9.986   0.907  11.967 -0.0358  0.0123 -0.0043
 8072W        W23966   9.995  10.233   2.142 -0.4311 -0.2369  0.2369
 8073W        W23967   6.545   1.999   4.075  0.0110 -0.2524  0.0721
 8074W        W23968  11.106   6.341   0.648 -0.2467 -0.1431 -0.1823
 8075W        W23969   5.135  12.805  13.703 -0.3381  0.0578 -0.1750
 8076W        W23970   9.807   1.680  12.107  0.1213 -0.1683  0.1776
 8077W        W23971  13.660  16.695   3.142 -0.0172 -0.0389  0.1105
 8078W        W23972   3.661   9.381  12.648 -0.3329  0.0775 -0.3337
 8079W        W23973  13.511   6.395  13.523 -0.0973 -0.0303  0.1358
 8080W        W23974  17.934   2.728   1.405  0.0147 -0.2067  0.2322
 8081W        W23975  17.045   1.960  11.569  0.0605  0.0236 -0.3887
 8082W        W23976   7.860  15.100  13.429  0.1071  0.1082  0.1321
 8083W        W23977   5.996   1.878   3.204  0.4840  0.1026 -0.1781
 8084W        W23978   8.707  15.535  13.437  0.5346 -0.3067  0.2145
 8085W        W23979   6.551  11.606   3.921  0.1899 -0.1956 -0.3790
 8086W        W23980   7.880  12.290   2.029 -0.0164 -0.6293 -0.0741
 8087W        W23981   0.963   2.175   3.136  0.4764 -0.3525  0.0429
 8088W        W23982  15.095   6.615  12.353  0.0664  0.1072 -0.0687
 8089W        W23983  10.748  15.685  11.339 -0.3360 -0.3589  0.0354
 8090W        W23984  17.118  11.046  14.752 -0.0618  0.1458 -0.1357
 8091W        W23985   6.467   5.699   4.776 -0.4149 -0.1065  0.4262
 8092W        W23986  17.769   1.581  15.123 -0.1002  0.2454 -0.1942
 8093W        W23987   9.913  12.130   1.263 -0.1286  0.4931  0.0826
 8094W        W23988   5.680   2.032   3.601 -0.2147  0.2373 -0.2322
 8095W        W23989  12.095  10.163  13.453  0.0981  0.2673  0.0126
 8096W        W23990   3.023   2.213  11.278 -0.1008 -0.3149 -0.4007
 8097W        W23991  16.705  13.735  14.592  0.0990  0.2038  0.1738
 8098W        W23992   9.017  16.665   1.629  0.0429  0.1425  0.0880
 8099W        W23993  16.457  11.297  13.331 -0.0955 -0.1022  0.1600
 8100W        W23994  15.036   7.939  14.493 -0.1168 -0.1509  0.1499
 8101W        W23995   9.659  14.693   2.338  0.1351 -0.2460  0.2422
 8102W        W23996   3.586  14.204   3.040 -0.3010  0.5839 -0.1190
 8103W        W23997  15.057  15.830   4.753  0.1131  0.2428 -0.1249
 8104W        W23998  10.381   8.759   2.617 -0.0064  0.2953  0.0425
 8105W        W23999  17.781  17.828   2.611  0.3112 -0.0224  0.1553
 8106W        W24000   5.539  18.196   1.708 -0.1088 -0.0863  0.1434
 8107W        W24001   6.514   4.988   1.889  0.1142  0.1019 -0.0939
 8108W        W24002  16.308   2.143   2.770 -0.0556 -0.2557 -0.0363
 8109W        W24003   2.898   7.448   3.371  0.0981  0.0562  0.0300
 8110W        W24004   2.589  15.935   4.324 -0.2840 -0.1699  0.1037
 8111W        W24005   6.953   6.511  11.783  0.0184 -0.3384 -0.4567
 8112W        W24006  15.491  14.029  15.371 -0.0322  0.2500 -0.1492
 8113W        W24007  10.339   5.594  13.499 -0.0802 -0.1969  0.0096
 8114W        W24008   7.331   0.532  13.620 -0.3080  0.2229  0.0597
 8115W        W24009   2.019   9.931   6.166 -0.0708  0.1454  0.0303
 8116W        W24010   9.153   1.360   4.678 -0.0598  0.4611  0.1008
 8117W        W24011   5.084   5.463   1.698  0.0739 -0.1655  0.0627
 8118W        W24012  12.132   5.060   1.364  0.0729  0.3534  0.1240
 8119W        W24013   3.396   1.852   1.443  0.1390 -0.1051  0.1624
 8120W        W24014  11.046   6.190  13.356  0.2246 -0.3361 -0.1797
 8121W        W24015   8.431  13.818  15.909  0.0353 -0.2180  0.2899
 8122W        W24016   6.272   9.024  10.870 -0.1319  0.0993  0.0193
 8123W        W24017   0.547   0.924   2.207 -0.1948  0.3013  0.0868
 8124W        W24018   0.452   9.880  12.297 -0.0785 -0.0487 -0.1058
 8125W        W24019  17.516   5.288   5.378 -0.0222  0.0608 -0.0290
 8126W        W24020   7.283   1.696   1.524 -0.1712 -0.1420  0.1250
 8127W        W24021  13.164  11.792  14.520 -0.1498  0.0541 -0.0176
 8128W        W24022   4.079  16.934   1.669 -0.3544 -0.3260  0.1526
 8129W        W24023  13.208   3.656   2.230  0.3423 -0.1867  0.1231
 8130W        W24024   1.729  13.695   2.375  0.0860 -0.2461 -0.0485
 8131W        W24025  14.798   4.720   5.661 -0.0001 -0.2003 -0.1904
 8132W        W24026   9.909   5.680  11.478  0.1572 -0.1495 -0.2367
 8133W        W24027   6.660   0.310   2.134 -0.3110 -0.0125  0.1269
 8134W        W24028  12.705  18.121  15.062  0.0148 -0.1154 -0.0509
 8135W        W24029   5.498  16.111  12.643  0.0846  0.1071  0.0427
 8136W        W24030  12.123  15.967   1.636 -0.1674  0.1420 -0.2267
 8137W        W24031  11.815   0.453   1.283  0.1096  0.0967 -0.2734
 8138W        W24032   0.539   4.679   0.780  0.2703  0.0787  0.1189
 8139W        W24033   9.545   5.932   4.227 -0.3105  0.0033 -0.0415
 8140W        W24034  11.932   7.435  14.263  0.1205  0.0969  0.1903
 8141W        W24035   9.359  12.437   0.531  0.4593 -0.3439 -0.1597
 8142W        W24036  10.991  12.863  15.268  0.0116 -0.2970 -0.1723
 8143W        W24037   4.187   6.415  11.280 -0.1895  0.1594 -0.0736
 8144W        W24038   6.891   2.193  11.511  0.4897  0.1126  0.0166
 8145W        W24039  16.950  16.174   1.492  0.0011 -0.2559 -0.3913
 8146W        W24040  10.497   5.353  13.924 -0.0376  0.1608 -0.1931
 8147W        W24041  11.745  13.474   0.151  0.1422  0.1992  0.3847
 8148W        W24042   8.631  17.758   4.749 -0.1219 -0.2702 -0.1194
 8149W        W24043  15.715   1.443  15.295  0.0897  0.2626  0.0356
 8150W        W24044  14.092  12.117   4.380 -0.1566  0.1462  0.1093
 8151W        W24045  15.341  14.563   5.612  0.2105  0.2288  0.2259
 8152W        W24046  18.377   0.368  12.114 -0.1518  0.0537 -0.1730
 8153W        W24047   2.006  18.213   2.938  0.0600  0.2112 -0.4705
 8154W        W24048   7.867  13.162   1.668 -0.0318  0.1743  0.0567
 8155W        W24049  16.905  10.505   1.877 -0.1244  0.1287  0.1009
 8156W        W24050   1.764   0.378  12.448  0.1388 -0.1992 -0.1413
 8157W        W24051  15.159  10.515   2.702 -0.1692 -0.1167  0.0588
 8158W        W24052  15.902   1.080  13.071 -0.2254  0.3199 -0.0790
 8159W        W24053   4.334   1.838   1.799 -0.0489  0.4440 -0.1055
 8160W        W24054  18.450  18.219   3.291 -0.2417  0.1224  0.0046
 8161W        W24055   5.906   7.190   3.222  0.0736 -0.2051  0.0752
 8162W        W24056  10.579   5.862   3.676 -0.0515 -0.0810  0.1516
 8163W        W24057   3.137   6.130  14.904 -0.3121 -0.0456  0.1816
 8164W        W24058  13.981  17.500  15.483  0.1868  0.4057  0.0653
 8165W        W24059  12.233   2.364  15.091  0.1813  0.1096 -0.1611
 8166W        W24060   9.652  10.987   2.256  0.1945 -0.2458  0.1333
 8167W        W24061   3.795  13.659   0.066  0.3702  0.3856  0.0753
 8168W        W24062   7.931  10.912   0.928  0.1051  0.0720 -0.2546
 8169W        W24063  12.855  18.338  13.397 -0.1518 -0.0062 -0.0206
 8170W        W24064   0.348   8.553   1.641  0.5316  0.0816  0.0977
 8171W        W24065   5.192   5.078  13.914 -0.0840 -0.0505 -0.1048
 8172W        W24066   7.735   8.585  12.989  0.0752 -0.3488 -0.1957
 8173W        W24067   5.958   3.262  11.825  0.0096  0.1605 -0.0144
 8174W        W24068   4.049   0.017   5.180  0.2317 -0.0120 -0.0613
 8175W        W24069  15.836   4.360  13.429  0.0322  0.0085 -0.3523
 8176W        W24070  18.303   7.772  13.357  0.1858  0.0413 -0.1922
 8177W        W24071   4.799   9.427   5.008  0.0934  0.0273 -0.0162
 8178W        W24072   8.980   5.722  11.558  0.4044  0.3824 -0.0078
 8179W        W24073  12.658  12.004  11.662  0.1186 -0.0574  0.0142
 8180W        W24074  10.701  17.761   0.328  0.1946  0.2079 -0.2516
 8181W        W24075  15.711   8.068   3.649 -0.1234  0.1319 -0.1328
 8182W        W24076  12.404   5.827   3.168  0.2716 -0.1676  0.0289
 8183W        W24077  13.752   0.386  11.979  0.0307  0.2223 -0.0192
 8184W        W24078   9.710   2.441   4.320 -0.2734  0.1811 -0.1464
 8185W        W24079  16.006  16.610   5.280 -0.0004 -0.1424 -0.0659
 8186W        W24080   8.464   3.798  12.084 -0.0238 -0.1061 -0.1253
 8187W        W24081   1.321  16.089   3.382 -0.1806  0.1343  0.2592
 8188W        W24082  16.654   3.841   0.308 -0.2275 -0.2954 -0.0034
 8189W        W24083  13.383   2.084   0.096  0.2661 -0.0137 -0.0833
 8190W        W24084  16.066  15.344   4.147 -0.3119 -0.2176 -0.2578
 8191W        W24085   3.230   1.075  13.311  0.1036 -0.1215  0.2338
 8192W        W24086   4.187  11.740  13.666  0.3107 -0.0301 -0.2404
 8193W        W24087  12.692  14.905  12.187 -0.1244 -0.1438 -0.0278
 8194W        W24088  16.814   4.779  15.632  0.0041  0.1334  0.0309
 8195W        W24089   4.014   1.120   1.584  0.0783 -0.0270 -0.0564
 8196W        W24090   4.372  12.283   1.448 -0.1765 -0.4475  0.0444
 8197W        W24091   9.670   3.787   0.410  0.1267  0.1254 -0.0393
 8198W        W24092   7.289   5.763   4.961 -0.1571 -0.0766 -0.2607
 8199W        W24093   5.054  11.681  11.012  0.2194 -0.4106 -0.3672
 8200W        W24094   5.048   6.426  13.239  0.0908  0.0234  0.0212
 8201W        W24095  18.344  11.268   2.023  0.0754 -0.0497 -0.0754
 8202W        W24096  10.931  15.408   2.969 -0.1802  0.2036  0.0752
 8203W        W24097  14.531  10.483   0.504 -0.1194 -0.0673 -0.0643
 8204W        W24098   0.742   7.991  11.830  0.5555  0.0893  0.0570
 8205W        W24099   8.205  15.010  13.786  0.0714  0.2040 -0.1998
 8206W        W24100   6.802   7.157   4.005  0.0281  0.3312  0.0739
 8207W        W24101  15.623   1.641   3.247 -0.0878  0.1645  0.1037
 8208W        W24102   5.551   2.404  12.076  0.0431 -0.0192  0.0971
 8209W        W24103  18.066  12.565  14.268 -0.0375  0.0103  0.3577
 8210W        W24104   4.494  15.139   5.660  0.0406  0.0173 -0.1950
 8211W        W24105   8.528  15.602  11.038  0.1349  0.0740  0.0986
 8212W        W24106  14.842   0.749  14.788  0.1139 -0.0033 -0.0516
 8213W        W24107  15.790   9.479   3.483  0.3032 -0.0354  0.1058
 8214W        W24108  12.002   0.128  15.594 -0.0334  0.2262 -0.1021
 8215W        W24109  11.691  11.990   2.827 -0.2119 -0.0461  0.0586
 8216W        W24110  12.968   4.519  15.061  0.2963 -0.1018 -0.3349
 8217W        W24111   9.733   6.605   1.293  0.0007 -0.0491  0.2174
 8218W        W24112   0.787   9.008   2.756  0.1297 -0.2429  0.3479
 8219W        W24113  16.934  12.398  14.479 -0.0086 -0.0215 -0.2685
 8220W        W24114  11.500   0.979   2.677 -0.2312  0.0625  0.0491
 8221W        W24115   3.402  17.509   3.241  0.0294  0.1692 -0.0728
 8222W        W24116   9.524  10.570  14.187 -0.0153  0.0619 -0.2406
 8223W        W24117   1.913   6.759  16.043  0.1352  0.0324  0.0178
 8224W        W24118   1.317  13.900  12.576 -0.0578 -0.3024 -0.0361
 8225W        W24119   3.355  10.278  15.764 -0.0492 -0.2612  0.1583
 8226W        W24120   5.760   0.228  11.760  0.2112  0.3994 -0.2562
 8227W        W24121  11.203   5.817   6.198  0.0972 -0.1502 -0.2340
 8228W        W24122   1.355  16.597   0.355  0.1684 -0.0659  0.0300
 8229W        W24123   2.960   4.813  12.803 -0.0758  0.4226 -0.0783
 8230W        W24124   9.142  13.032   0.619 -0.1307 -0.1378 -0.1012
 8231W        W24125  13.507   2.930   3.349  0.1396 -0.4700 -0.1287
 8232W        W24126  10.392   5.466   0.142  0.2048 -0.0406  0.0425
 8233W        W24127   8.176   9.822  12.414 -0.0085  0.0749 -0.0825
 8234W        W24128  15.843  15.240   5.226  0.0483 -0.0543  0.1452
 8235W        W24129   3.124  15.608   2.046 -0.0029  0.3676  0.2598
 8236W        W24130   1.653  13.232  13.994 -0.2659 -0.1257 -0.1277
 8237W        W24131   1.597  12.729  14.311 -0.0790  0.2612  0.0520
 8238W        W24132  16.084   2.741   0.657 -0.0088  0.2107 -0.3557
 8239W        W24133   7.801   4.268   1.473  0.0293 -0.2097 -0.0239
 8240W        W24134   5.437   0.040   0.791  0.0222  0.2271  0.3325
 8241W        W24135   3.286   9.007  14.526  0.3500  0.3280  0.2929
 8242W        W24136   4.010  10.367   3.560  0.1295 -0.0267  0.0645
 8243W        W24137   0.745  13.764   1.643 -0.3250 -0.1282  0.1212
 8244W        W24138   0.726  10.220  12.092  0.3875  0.0307 -0.0736
 8245W        W24139  12.437   7.241  15.015 -0.0459  0.4811 -0.3517
 8246W        W24140  10.473  15.116   2.957 -0.3835 -0.2359 -0.1786
 8247W        W24141   4.681   6.085   3.687 -0.0391 -0.1951  0.1147
 8248W        W24142   2.181   2.329   5.018  0.1948  0.0676 -0.1864
 8249W        W24143  12.515   7.578   2.404 -0.1695  0.1082  0.0071
 8250W        W24144   8.683  11.729   4.518 -0.1431 -0.0438  0.1290
 8251W        W24145   9.312   8.626  14.941  0.1501 -0.1448  0.0464
 8252W        W24146   7.288  18.330   0.839 -0.0332  0.4024  0.0638
 8253W        W24147  17.101  14.702   4.961 -0.2210 -0.0624 -0.0772
 8254W        W24148  13.286   4.619   0.883  0.1973 -0.0472  0.0931
 8255W        W24149  14.722  11.310  11.780  0.0433  0.3832 -0.1557
 8256W        W24150   7.741  12.091   1.494  0.1274 -0.4116  0.4352
 8257W        W24151   4.804   5.747  15.110 -0.1022  0.3043  0.1331
 8258W        W24152  12.093  11.378  13.020  0.1927  0.3537 -0.0620
 8259W        W24153   3.308  12.414   0.616  0.2198  0.0619 -0.1913
 8260W        W24154   0.175  10.993  12.220  0.0234  0.0690  0.1637
 8261W        W24155   2.707   0.261  12.822 -0.0117  0.0858 -0.3807
 8262W        W24156   6.505   4.805  15.066 -0.0243  0.1359 -0.1120
 8263W        W24157   4.228  16.407  13.027  0.3509 -0.0251 -0.2081
 8264W        W24158  14.893  13.600   3.597 -0.2745 -0.3368  0.0468
 8265W        W24159   6.953   5.585   1.305 -0.0193 -0.0668 -0.2181
 8266W        W24160  10.422  11.993  14.692  0.0309 -0.0942  0.1781
 8267W        W24161   9.841  11.506  15.669 -0.0935 -0.3691  0.1741
 8268W        W24162  15.030   2.916   1.726 -0.2863  0.1089  0.0049
 8269W        W24163   0.542   0.075   3.587 -0.1113 -0.2188 -0.1007
 8270W        W24164   4.523   5.891  14.300 -0.1371 -0.3018 -0.1425
 8271W        W24165  16.197   5.397  12.086 -0.3908  0.0064  0.2931
 8272W        W24166   7.330   8.803  14.596  0.3972  0.1104 -0.0962
 8273W        W24167  11.059  11.737  16.077  0.1902 -0.2889 -0.1065
 8274W        W24168  12.384  13.058   4.050  0.1188  0.0628 -0.1011
 8275W        W24169   6.007   6.583   2.088  0.1791  0.2360  0.2258
 8276W        W24170   3.695  10.754  15.254 -0.0443  0.0615  0.1224
 8277W        W24171   1.367  15.737   3.005  0.2312  0.0044  0.1821
 8278W        W24172  11.610  10.740   0.429 -0.1962 -0.1589  0.3460
 8279W        W24173   2.722   0.957   3.969  0.1053 -0.2095 -0.0766
 8280W        W24174  11.767   3.460   4.100 -0.1212 -0.2218  0.0851
 8281W        W24175   5.243   8.562  15.074 -0.0366 -0.4188 -0.3115
 8282W        W24176  10.713   5.242   2.942 -0.1451 -0.2766 -0.1018
 8283W        W24177   2.346   5.703  15.578  0.2500 -0.0184  0.0683
 8284W        W24178   9.049  13.747   2.334 -0.0776 -0.0063 -0.1155
 8285W        W24179   5.914   1.016  16.105 -0.0089 -0.0152 -0.4478
 8286W        W24180   0.735   9.581   1.773 -0.3559  0.1636  0.1727
 8287W        W24181   0.946   2.147   0.175  0.1207 -0.2225 -0.0764
 8288W        W24182   8.280   2.804  14.658 -0.2705 -0.2260  0.0213
 8289W        W24183   2.522   1.912   4.976 -0.1554 -0.0502 -0.0901
 8290W        W24184   1.214   0.525  14.735  0.1934  0.0977  0.0630
 8291W        W24185   0.318  15.269   2.716  0.2203  0.0082  0.3844
 8292W        W24186   4.267  17.584   0.437  0.0871  0.2935  0.1269
 8293W        W24187   4.441  14.753   0.131  0.0661 -0.1130 -0.1791
 8294W        W24188  17.477   6.122   5.518  0.2342 -0.0122 -0.3060
 8295W        W24189  12.409  11.085  11.366 -0.2818 -0.1013 -0.0492
 8296W        W24190  15.571   0.763   5.443  0.0803  0.0233  0.2604
 8297W        W24191  17.336  17.235  15.387  0.3600 -0.0416  0.0277
 8298W        W24192   7.303  13.008  15.062  0.1328  0.0602  0.1485
 8299W        W24193  16.189   5.123  14.501  0.2794  0.1706 -0.2707
 8300W        W24194   0.020  11.497  13.020  0.0165 -0.1111  0.1543
 8301W        W24195  13.340  12.257   3.045  0.2914 -0.1737 -0.2249
 8302W        W24196  13.825   6.423  11.362 -0.0378  0.2725 -0.0980
 8303W        W24197  10.369  14.126   2.392  0.0425  0.0166  0.0721
 8304W        W24198  14.004   8.559   3.810  0.0922  0.0248 -0.3045
 8305W        W24199   7.238  14.906   0.667  0.0563 -0.1955 -0.1086
 8306W        W24200   7.532  15.440  13.168 -0.3098 -0.0205 -0.0178
 8307W        W24201   4.758   0.423  14.796 -0.2456  0.1804 -0.0812
 8308W        W24202   2.517  13.539   6.127 -0.1702  0.4474 -0.0958
 8309W        W24203   1.537  12.701   2.145 -0.0217 -0.2997  0.1582
 8310W        W24204  13.122   8.685  11.692  0.2575 -0.1016 -0.4414
 8311W        W24205   9.099   3.753   1.737  0.2329  0.2859  0.2056
 8312W        W24206  15.331   7.890   0.804  0.0496  0.2477  0.0266
 8313W        W24207   1.402  15.422   3.610 -0.0153 -0.0830 -0.2538
 8314W        W24208   2.476  12.153  11.823  0.3644  0.0136 -0.2765
 8315W        W24209  14.939   2.908   5.142  0.1089  0.0398  0.2500
 8316W        W24210   2.501  17.558  12.111 -0.1748 -0.1346  0.1296
 8317W        W24211   8.909   6.964   2.183  0.3308 -0.0427  0.1546
 8318W        W24212  13.136  10.446   4.633  0.3529 -0.0909 -0.0010
 8319W        W24213  10.588   4.114   1.494  0.2184  0.3590  0.0034
 8320W        W24214  17.894  13.980  12.507 -0.0318  0.1601  0.0010
 8321W        W24215   7.360  16.746   3.134  0.2780  0.1049 -0.0177
 8322W        W24216  10.442   9.189   0.470 -0.2048  0.0558 -0.1918
 8323W        W24217   7.216   8.105   3.303  0.3279  0.1101  0.1434
 8324W        W24218  16.421   1.691   2.990 -0.2821  0.0015 -0.1592
 8325W        W24219  10.002  13.571  10.702 -0.0136 -0.1167  0.1995
 8326W        W24220   0.660  13.955  11.942 -0.0891 -0.1998  0.2062
 8327W        W24221  15.444  16.814   5.301 -0.0552  0.0078  0.1904
 8328W        W24222  17.531   4.180   1.833  0.0168  0.1304  0.1228
 8329W        W24223  17.035   2.038   1.994 -0.1425 -0.0636  0.0546
 8330W        W24224   5.170  17.108   2.909 -0.1981  0.0102  0.2442
 8331W        W24225  11.978  18.049   0.186 -0.0148 -0.1377 -0.3457
 8332W        W24226   9.308  17.510   1.612 -0.1255 -0.2472 -0.3312
 8333W        W24227  10.195   0.504  15.749 -0.0091  0.0550  0.2424
 8334W        W24228  11.605  14.602  11.337 -0.1660 -0.0117  0.0991
 8335W        W24229   8.212  10.474   3.655 -0.4039  0.3440 -0.1605
 8336W        W24230   5.092   1.841  12.231  0.1233  0.0722  0.0781
 8337W        W24231  10.713  16.849   4.699  0.1723 -0.0489  0.4320
 8338W        W24232   5.248  14.771   0.556 -0.0434 -0.2097  0.1949
 8339W        W24233  16.210  12.625   1.802 -0.0512  0.0773 -0.1378
 8340W        W24234  15.829   5.859   4.961  0.1379  0.1171 -0.3372
 8341W        W24235   0.457  12.274  12.552 -0.0067  0.0067 -0.1400
 8342W        W24236  15.135  11.516   0.899  0.0554 -0.1431  0.0806
 8343W        W24237  12.135  16.011   2.123 -0.0083 -0.1083 -0.2904
 8344W        W24238  13.864  13.051  12.240 -0.2341  0.0832  0.1104
 8345W        W24239  12.867   8.984   6.031 -0.2524 -0.0607  0.1873
 8346W        W24240   3.553   1.105  12.296  0.1856  0.2583  0.0736
 8347W        W24241   3.345   0.353   1.917 -0.0436 -0.1431  0.0061
 8348W        W24242   4.757   4.846  13.962  0.1406 -0.1090 -0.0517
 8349W        W24243  13.932  17.376   4.461  0.0767 -0.2382  0.1099
 8350W        W24244  16.622   4.092   6.290 -0.2226  0.1447 -0.0176
 8351W        W24245   1.643  12.613   4.385  0.1012 -0.0508  0.2039
 8352W        W24246   8.358   1.027   3.463  0.0285 -0.0962 -0.1972
 8353W        W24247   7.952  14.257  12.418  0.2916 -0.1650 -0.2310
 8354W        W24248  15.967  11.068  13.435  0.1676  0.0221 -0.1597
 8355W        W24249  14.421  17.834  15.510  0.1828 -0.0562  0.2000
 8356W        W24250   7.431   6.520   4.174 -0.1890 -0.1932 -0.2796
 8357W        W24251   2.116  17.201   3.684  0.1769 -0.1405 -0.0492
 8358W        W24252  14.838   1.459   3.326 -0.1904  0.2166  0.3853
 8359W        W24253   0.868  12.156   5.975  0.1525 -0.2435  0.2401
 8360W        W24254  14.132   5.987  13.612 -0.1247  0.1981  0.0210
 8361W        W24255  11.824  10.106  12.436 -0.1668 -0.0337  0.0604
 8362W        W24256  12.211   8.944   4.047  0.3442  0.0200  0.2473
 8363W        W24257  13.243  14.988  12.094  0.0652 -0.0791 -0.0273
 8364W        W24258   5.642   2.755   4.203  0.2566  0.0515  0.1182
 8365W        W24259  13.010  14.801  14.693 -0.1351  0.1250 -0.1362
 8366W        W24260   3.300   8.177  13.888  0.1075  0.1432  0.1275
 8367W        W24261  15.191  15.028  12.445 -0.1719 -0.0399  0.1807
 8368W        W24262   8.063  18.382  15.877 -0.0520  0.1853 -0.0452
 8369W        W24263  16.787  12.628   0.961  0.1449 -0.0568  0.2105
 8370W        W24264   4.081  15.492  13.365 -0.2078 -0.2980  0.2887
 8371W        W24265  13.512  18.186  11.330  0.0614  0.0285  0.1494
 8372W        W24266   5.325   3.436  11.230  0.2354 -0.0275 -0.0072
 8373W        W24267   9.260  10.756  12.499  0.0484 -0.1881  0.1776
 8374W        W24268   7.074   9.205  11.700 -0.0144  0.2252  0.0414
 8375W        W24269  11.685  13.294   0.936  0.2930  0.0034  0.0066
 8376W        W24270  11.866  11.975   4.717 -0.0479  0.0558  0.0589
 8377W        W24271   1.624   4.228   4.194  0.0666  0.2828  0.4301
 8378W        W24272   4.160   2.074  11.993  0.0092  0.1287 -0.2131
 8379W        W24273  16.008   1.185  13.608  0.0027 -0.0071 -0.0806
 8380W        W24274   8.857  18.303  14.054  0.1051  0.0412 -0.0222
 8381W        W24275  12.207  10.096   1.560 -0.1472 -0.2094  0.3912
 8382W        W24276  11.299  12.128  15.806  0.1571 -0.0131 -0.0177
 8383W        W24277  18.188   1.238   5.247 -0.1712 -0.2940 -0.0204
 8384W        W24278  15.274  11.632  14.881  0.0245  0.1201 -0.2807
 8385W        W24279   7.470   4.016  11.509 -0.2725 -0.1737 -0.1933
 8386W        W24280   1.925   7.633  14.240  0.0431 -0.4416  0.1354
 8387W        W24281   2.695   3.804  11.990 -0.0815  0.3168  0.3093
 8388W        W24282   4.048  15.474   1.822 -0.0822  0.0104 -0.4550
 8389W        W24283  17.823   2.611  12.491 -0.1123  0.3359  0.1398
 8390W        W24284   4.092  14.400   0.363 -0.1848 -0.0359 -0.0904
 8391W        W24285  10.579   6.191   4.302  0.0737 -0.0100  0.1011
 8392W        W24286   1.379   9.593  12.575 -0.1841  0.0582  0.4465
 8393W        W24287   7.196  16.536   2.689 -0.0319 -0.0901  0.2975
 8394W        W24288   2.775   5.801  15.291  0.1312 -0.0238  0.0310
 8395W        W24289   6.281  12.223  10.754  0.0782  0.0344  0.1504
 8396W        W24290   2.822  16.289   4.958 -0.2427 -0.1184 -0.1595
 8397W        W24291   3.353   1.950   0.886  0.2590 -0.1260  0.1497
 8398W        W24292  11.636   6.298  14.080 -0.1873  0.0245 -0.0411
 8399W        W24293  10.788   6.091  11.765  0.1366  0.1590  0.0576
 8400W        W24294   6.791   8.045   2.360  0.1114  0.0271 -0.2102
 8401W        W24295   5.551   4.777   0.559 -0.0811  0.1207  0.2146
 8402W        W24296   9.284  17.978  14.886  0.0950 -0.0219  0.1425
 8403W        W24297  17.717  13.190   4.229  0.1043  0.1147  0.0987
 8404W        W24298  10.312   1.692   2.758 -0.2526 -0.2939  0.1518
 8405W        W24299   0.690  11.681   2.940 -0.2919  0.4676 -0.1403
 8406W        W24300   9.866   0.690   2.188  0.0099  0.0916  0.1803
 8407W        W24301   3.824   1.689  15.938  0.1016  0.1963  0.1365
 8408W        W24302   8.813   4.144   1.829  0.0652  0.0779  0.2060
 8409W        W24303   5.133  11.403  12.596  0.0626  0.2324 -0.1534
 8410W        W24304  18.315   2.827  14.622  0.0000  0.0135  0.1029
 8411W        W24305   6.398  12.237  14.485 -0.1136  0.1392  0.0171
 8412W        W24306   0.011   6.124  13.151  0.0926 -0.0079 -0.0648
 8413W        W24307  11.156   2.488  11.440  0.1190  0.1730 -0.0638
 8414W        W24308  17.112   8.902  13.875 -0.0743 -0.0386  0.1202
 8415W        W24309   7.732   5.782  12.560 -0.0681  0.2440  0.2338
 8416W        W24310  17.041   1.887   3.734  0.2387  0.0318  0.2997
 8417W        W24311   3.600   5.164   3.742 -0.1403 -0.2520  0.0920
 8418W        W24312   8.442  15.236  12.038  0.2053  0.1981 -0.0637
 8419W        W24313   3.608  15.540   3.572 -0.3275 -0.1291 -0.0049
 8420W        W24314   6.647  11.620  12.769  0.0777 -0.1186 -0.0837
 8421W        W24315   6.160  10.816   3.569  0.2885  0.3692  0.1501
 8422W        W24316  14.830   7.333   3.006 -0.3765  0.1206 -0.0571
 8423W        W24317   7.236   0.795   2.678 -0.1910  0.1491  0.1717
 8424W        W24318   9.404   6.320   4.414 -0.1272  0.0464 -0.1344
 8425W        W24319  18.451   3.007  14.131 -0.3311  0.0810 -0.0108
 8426W        W24320  18.180  12.982  15.893 -0.1025 -0.2564 -0.1786
 8427W        W24321  17.004  16.575  11.457  0.1081  0.4280  0.0925
 8428W        W24322   4.349  10.226  15.204 -0.2509 -0.2432  0.0486
 8429W        W24323   4.107  12.546  13.453 -0.0236  0.2555  0.0249
 8430W        W24324  10.374   3.379  12.001 -0.1132  0.2376 -0.1144
 8431W        W24325  15.863  15.736  15.418 -0.0537 -0.2078  0.1585
 8432W        W24326  17.914   8.672  13.540 -0.0112  0.1190  0.3062
 8433W        W24327  15.115   4.447   0.790 -0.0046  0.2385  0.0472
 8434W        W24328  12.903  10.129  10.864 -0.1956 -0.2917 -0.0039
 8435W        W24329  14.012  15.468   2.073  0.1674  0.0953 -0.0992
 8436W        W24330   3.552   3.052   1.259 -0.0201 -0.2667 -0.0471
 8437W        W24331   2.706   3.978   5.934  0.2950  0.3002 -0.0528
 8438W        W24332   9.301  18.016  15.508  0.1571 -0.0246  0.1043
 8439W        W24333  18.446   5.207   1.213 -0.2308  0.0052  0.0146
 8440W        W24334  15.936  17.346   0.682 -0.0579  0.1402 -0.3414
 8441W        W24335   2.869   9.229   2.507 -0.3384 -0.0087  0.0043
 8442W        W24336   8.916  14.722  10.922 -0.0217  0.2396 -0.1027
 8443W        W24337   3.861  15.305   3.973 -0.1591  0.2450 -0.1829
 8444W        W24338  10.534   2.330   3.518  0.2936  0.0680  0.0833
 8445W        W24339   6.586   7.737   2.030 -0.0070  0.4156 -0.1157
 8446W        W24340   2.623   0.191  15.990 -0.2919 -0.1633  0.2124
 8447W        W24341  13.064   3.613  12.515 -0.1983 -0.2091  0.1269
 8448W        W24342   0.140  17.169   5.439  0.2928 -0.1345  0.1379
 8449W        W24343   1.080   9.545  13.895  0.1599  0.0332 -0.2903
 8450W        W24344   0.986   3.182  12.054 -0.0411  0.1765  0.2503
 8451W        W24345   7.034   5.986   5.388 -0.3234  0.1030  0.1535
 8452W        W24346   6.447  17.074  14.730 -0.1376  0.2857 -0.1299
 8453W        W24347  17.728   9.767   3.558 -0.2188  0.3824  0.0558
 8454W        W24348  17.264  14.010   2.659  0.0691  0.2510  0.2885
 8455W        W24349   9.595   0.554  12.713  0.0301  0.3316  0.3117
 8456W        W24350   7.362   3.003  14.372 -0.0289  0.2075  0.1169
 8457W        W24351   9.468   3.561  14.577 -0.2060 -0.1181  0.3135
 8458W        W24352  17.505  17.046  14.108  0.1903 -0.2192  0.0207
 8459W        W24353   5.156  10.720   4.513  0.0798 -0.3559 -0.1768
 8460W        W24354   1.109  17.305   2.695  0.1701 -0.4045  0.0205
 8461W        W24355  13.207  12.326   1.542  0.1693 -0.0614 -0.3352
 8462W        W24356  12.802   9.116  14.673  0.1428 -0.1418  0.0820
 8463W        W24357   5.019   8.767   4.305  0.1021 -0.0772  0.0779
 8464W        W24358   5.090  17.540  13.086 -0.0606 -0.3174  0.3030
 8465W        W24359   7.287   7.108   2.160 -0.1741 -0.1731 -0.3420
 8466W        W24360  16.247  16.114  15.208  0.0241  0.1112 -0.1854
 8467W        W24361  12.753   2.560   3.779 -0.1508  0.1216 -0.0538
 8468W        W24362  13.554  10.919  15.220 -0.2122 -0.1529  0.2012
 8469W        W24363   6.451   0.120   2.803  0.0841 -0.0565  0.0896
 8470W        W24364   5.471  16.796   3.859 -0.0290 -0.0832 -0.0760
 8471W        W24365   5.865   3.079   0.320  0.1135 -0.2447 -0.1224
 8472W        W24366  14.830   6.057   1.801 -0.1855 -0.1655  0.2000
 8473W        W24367   6.365  15.075   0.456 -0.0542 -0.2455 -0.2996
 8474W        W24368   6.493  12.371   4.200  0.0557  0.5336 -0.2299
 8475W        W24369   8.273   0.410  10.124  0.0408 -0.1105  0.1444
 8476W        W24370   7.555  14.226   1.507  0.2201  0.0111  0.3734
 8477W        W24371  10.829  10.918  13.406 -0.0655  0.0766 -0.2601
 8478W        W24372  16.118   0.092  15.480 -0.2018  0.2710 -0.1048
 8479W        W24373   2.052  10.023   2.108 -0.2677 -0.0122 -0.2994
 8480W        W24374   9.543   1.064   2.540 -0.1920 -0.1046  0.3079
 8481W        W24375  17.470  12.057  11.882  0.0471  0.1937  0.1744
 8482W        W24376   0.298  16.933  14.709 -0.0278  0.0116  0.1179
 8483W        W24377  15.697  11.469  14.707  0.1909 -0.0237 -0.1260
 8484W        W24378   1.765  12.366  11.855 -0.3494 -0.0850  0.1936
 8485W        W24379  15.233  12.574  15.050  0.0169 -0.2059 -0.0330
 8486W        W24380   7.605   9.185   5.116  0.2861  0.0637  0.2420
 8487W        W24381   7.915   0.708  13.996 -0.0033  0.1038 -0.0139
 8488W        W24382   0.418  16.668   5.453  0.0354  0.0910  0.2920
 8489W        W24383   3.997   1.179  11.342 -0.2259  0.1246  0.1033
 8490W        W24384   8.926  18.448  12.080  0.0127 -0.3047 -0.2319
 8491W        W24385   3.862  12.150  13.875 -0.1446  0.3533  0.1218
 8492W        W24386  11.067  13.511  14.151 -0.0910 -0.1910  0.0670
 8493W        W24387   2.345  15.154   4.113 -0.0325 -0.0414  0.0822
 8494W        W24388   0.458   4.068  14.217  0.0927 -0.0036 -0.3219
 8495W        W24389  11.477   6.672   1.458 -0.2221  0.0244  0.0812
 8496W        W24390  14.181  17.305   2.755 -0.0760  0.0819  0.2980
 8497W        W24391  16.925   9.426   4.042 -0.0639 -0.3989  0.2078
 8498W        W24392  18.044   1.066  15.183 -0.2714  0.0398 -0.3331
 8499W        W24393   9.880  10.761   3.143 -0.1060  0.1717  0.0386
 8500W        W24394  14.506  11.505   1.444  0.1671 -0.1414 -0.1257
 8501W        W24395  12.611   3.415  12.700  0.0582 -0.2181  0.0778
 8502W        W24396  14.000   1.510  11.440 -0.1322 -0.0506  0.3342
 8503W        W24397  17.348  17.711   1.041  0.0397 -0.5176  0.4121
 8504W        W24398  14.206   0.740  16.004  0.3605 -0.2815 -0.0377
 8505W        W24399  16.395  10.522   1.402 -0.0370  0.2304 -0.1045
 8506W        W24400   0.372   5.413   6.094  0.1932  0.1495 -0.2267
 8507W        W24401   3.398   0.826   2.337 -0.0147 -0.3234 -0.1954
 8508W        W24402  13.932  16.020  16.135 -0.2586  0.1792 -0.0934
 8509W        W24403  18.388   9.433  12.921 -0.0351  0.1386 -0.0095
 8510W        W24404   2.092  12.938  13.716 -0.0231 -0.2254 -0.0213
 8511W        W24405  18.056   0.692   3.642 -0.1067  0.1438 -0.1723
 8512W        W24406   1.518   8.505   0.387 -0.0160  0.3980 -0.0346
 8513W        W24407  14.651  13.201  15.716 -0.2078  0.0942  0.1222
 8514W        W24408  16.910   0.868   4.049 -0.0930  0.0956 -0.1035
 8515W        W24409   7.760  13.088   4.682  0.2685 -0.0489  0.0981
 8516W        W24410   6.722   0.526  12.811  0.0810 -0.0735  0.0490
 8517W        W24411   3.465  14.901  11.166 -0.2422 -0.1515  0.1865
 8518W        W24412  12.342  12.926  10.678  0.1353  0.1038  0.2836
 8519W        W24413  12.113  10.361  12.037  0.0836 -0.2072  0.0739
 8520W        W24414   3.949   8.965   3.901  0.1004 -0.1318  0.1184
 8521W        W24415  12.741  12.636   2.389  0.0957 -0.3513 -0.3009
 8522W        W24416   2.793  13.587   0.937 -0.1854 -0.1478  0.1024
 8523W        W24417   8.306  12.125  12.693  0.1564 -0.1870  0.0905
 8524W        W24418   0.390  12.983  16.072  0.0386  0.0636 -0.4043
 8525W        W24419  14.920   7.040  14.632 -0.0735  0.0574 -0.1624
 8526W        W24420   6.212  15.153  15.139  0.1179  0.2108  0.2561
 8527W        W24421   4.128   6.779  12.170 -0.0465 -0.0007 -0.0557
 8528W        W24422   0.791  10.416   3.272  0.4619  0.1500 -0.0402
 8529W        W24423   4.031  17.155   2.150  0.1387  0.2428  0.2026
 8530W        W24424   3.095  17.867   1.480  0.0515 -0.2123  0.0842
 8531W        W24425   4.746   0.390   4.123  0.2370 -0.1201  0.3018
 8532W        W24426  17.087   7.680   3.687  0.1230 -0.0029 -0.2026
 8533W        W24427  13.174  10.462  15.139  0.1598 -0.2292  0.2920
 8534W        W24428   3.346   3.362  15.362 -0.0373 -0.2485  0.0303
 8535W        W24429   2.537  10.354  11.447 -0.2177 -0.2186  0.3827
 8536W        W24430   9.190  14.307   1.241  0.1386  0.0231  0.0767
 8537W        W24431  17.979  18.142   0.458 -0.0837  0.0601  0.2590
 8538W        W24432   3.113   8.624   0.834  0.0760 -0.3758 -0.0793
 8539W        W24433  17.706  13.700  14.884  0.2556 -0.0327  0.1270
 8540W        W24434   4.312   7.400   0.660  0.4777 -0.0620 -0.2180
 8541W        W24435  16.813  12.777   4.137 -0.0321 -0.0302 -0.0598
 8542W        W24436   5.732   6.508   5.233 -0.1997  0.1343 -0.2472
 8543W        W24437   1.901  11.493  15.974 -0.1191  0.1569  0.0086
 8544W        W24438   2.933   1.178  15.842  0.0748 -0.1711  0.0463
 8545W        W24439   6.305  12.743  12.624 -0.2912 -0.2790 -0.1523
 8546W        W24440  17.434  12.479  16.049 -0.1371  0.1990  0.0901
 8547W        W24441   1.427   5.866   0.314 -0.1128  0.4064  0.2196
 8548W        W24442  18.247   3.564   2.003 -0.1157  0.0449 -0.0749
 8549W        W24443   9.201  14.086   4.967 -0.0133  0.0473 -0.1803
 8550W        W24444   3.843  12.166  16.071  0.1325  0.0616  0.1429
 8551W        W24445  17.409  12.363   1.265 -0.0015 -0.1688 -0.2284
 8552W        W24446  17.207   6.622   2.643  0.3946 -0.0095  0.0709
 8553W        W24447   5.618  14.049   3.594  0.1435 -0.0774  0.0196
 8554W        W24448  13.983  18.424   0.085 -0.0194 -0.0091  0.0815
 8555W        W24449   9.910   6.181   1.896 -0.0785 -0.1357  0.1482
 8556W        W24450   0.681   1.648   5.176 -0.2339  0.1184  0.3673
 8557W        W24451  10.871   3.744   0.820 -0.0330  0.0776  0.1810
 8558W        W24452   0.301  17.604   5.230 -0.0397  0.0964 -0.0179
 8559W        W24453   2.045   3.755   4.792 -0.1645  0.2443  0.0521
 8560W        W24454  15.372  17.195  14.193  0.1862  0.3819  0.1535
 8561W        W24455  15.234  18.211  15.329  0.2581 -0.1440  0.0866
 8562W        W24456  15.868  15.960   2.594 -0.0615 -0.1268 -0.0216
 8563W        W24457   6.949   8.735   4.600  0.1721  0.3568 -0.0078
 8564W        W24458   6.574  13.598   4.435  0.2360 -0.3861 -0.1718
 8565W        W24459   4.328   8.367   5.639 -0.4710  0.0914  0.0572
 8566W        W24460   1.474  15.971   4.320  0.1552  0.1801 -0.1953
 8567W        W24461  14.014   2.543   4.723  0.3849 -0.0594 -0.1843
 8568W        W24462   9.070  13.895  13.512 -0.1216  0.1721 -0.2264
 8569W        W24463   3.589  14.318  12.731  0.1421  0.0502 -0.0993
 8570W        W24464  15.578   2.095   2.771  0.0125 -0.1478  0.1800
 8571W        W24465  16.747  15.411  12.833 -0.1774  0.2059  0.1135
 8572W        W24466   4.379   0.597  13.585 -0.2603  0.0989  0.0476
 8573W        W24467   0.140   4.629   5.120 -0.1080  0.1397 -0.0752
 8574W        W24468  10.738   8.996  14.696  0.1885  0.1179  0.0699
 8575W        W24469  11.286   0.962   0.934 -0.2882  0.1645  0.0758
 8576W        W24470   3.506  17.335  15.363 -0.2042  0.2110 -0.0127
 8577W        W24471   3.121   5.454   3.163  0.1601 -0.0780 -0.1021
 8578W        W24472  10.350   2.286   4.660 -0.2894  0.4376 -0.0628
 8579W        W24473   4.182   6.657   1.540  0.0483  0.0700 -0.1218
 8580W        W24474  18.191  11.719  14.671 -0.0143 -0.0118 -0.3210
 8581W        W24475   3.034  11.104   5.536 -0.2492 -0.1835 -0.1526
 8582W        W24476  12.312   8.452   3.354  0.0887  0.1235 -0.1520
 8583W        W24477   5.790   1.389   5.042  0.0612  0.0348 -0.1066
 8584W        W24478  18.366   8.085  12.059 -0.1617 -0.1068 -0.0339
 8585W        W24479   9.767   7.886  13.140  0.3708  0.2729  0.0159
 8586W        W24480   6.744   3.069  13.211 -0.1297 -0.2645  0.1824
 8587W        W24481   7.345  17.373  14.051  0.4171  0.2719  0.1016
 8588W        W24482   2.670  13.440   3.880 -0.1391  0.1500  0.0617
 8589W        W24483   3.125   9.332  15.492 -0.1039  0.0394 -0.1169
 8590W        W24484   8.924  11.294  16.031  0.0641 -0.0357  0.3304
 8591W        W24485   2.717   1.566  12.090 -0.1653 -0.2525  0.0442
 8592W        W24486  14.846  16.585   0.791  0.0707  0.2605  0.0260
 8593W        W24487   1.986  14.616   3.776  0.2189 -0.1672 -0.0502
 8594W        W24488  13.553  13.708   4.144  0.1005 -0.0123 -0.1249
 8595W        W24489  11.906  13.689   1.772  0.2672 -0.1279  0.4016
 8596W        W24490   8.732  16.209   2.965 -0.2003 -0.1099  0.1030
 8597W        W24491  13.815   1.739   6.200 -0.0682 -0.0457  0.1133
 8598W        W24492   8.986   9.382   2.529  0.1583  0.3512 -0.1095
 8599W        W24493  16.788   6.408   4.295 -0.2213 -0.2367 -0.0679
 8600W        W24494  16.675   6.333  15.532  0.0658 -0.3458  0.0841
 8601W        W24495   8.310   6.937  15.643 -0.1848  0.1633 -0.0473
 8602W        W24496  13.657   0.845  15.403 -0.1746 -0.1628  0.0139
 8603W        W24497  17.980   1.153   0.492 -0.1061  0.0165 -0.2604
 8604W        W24498  16.752  14.602  11.540 -0.0551  0.2616  0.1934
 8605W        W24499  17.534   9.651  11.576 -0.3113  0.1067 -0.1170
 8606W        W24500   4.957   0.195   2.874 -0.1322 -0.0864 -0.0837
 8607W        W24501   8.362   9.428  12.580 -0.2852  0.0736  0.0166
 8608W        W24502   3.499   5.067   6.097  0.2935 -0.0467 -0.1082
 8609W        W24503  14.830  14.687  15.074  0.2294 -0.3615 -0.0417
 8610W        W24504   3.258  11.625   4.271  0.0833 -0.0805  0.0923
 8611W        W24505   9.896  15.476   3.530  0.3963 -0.1410  0.2428
 8612W        W24506   8.274   9.643   4.645 -0.0164  0.1578  0.1444
 8613W        W24507  14.067   0.653   1.037 -0.1183 -0.2556 -0.2427
 8614W        W24508   4.448   6.932  11.184 -0.0080 -0.0866 -0.4228
 8615W        W24509  14.293  11.116   4.307  0.1003 -0.0606  0.3851
 8616W        W24510   1.312   5.104   3.577  0.1836 -0.2286 -0.0048
 8617W        W24511   3.625  12.743  12.356 -0.1265 -0.2372 -0.1605
 8618W        W24512  14.397   1.183  14.136 -0.1858 -0.1015  0.1789
 8619W        W24513   9.142   8.010   3.644 -0.2482 -0.1623 -0.0944
 8620W        W24514  11.629   8.054  12.124  0.3357 -0.3583 -0.2578
 8621W        W24515   0.915  14.317   5.067  0.0580  0.1151 -0.2662
 8622W        W24516   1.420   2.579   4.386 -0.1911 -0.0920  0.0953
 8623W        W24517  13.125  11.564  15.619  0.2989  0.2537 -0.0795
 8624W        W24518   0.942   8.532   2.964  0.1266  0.2056 -0.3322
 8625W        W24519  11.486   9.067   4.055 -0.0177  0.1722  0.1977
 8626W        W24520   7.438  10.665   1.083 -0.0438  0.2124  0.2168
 8627W        W24521   1.578  17.485  13.974  0.0539  0.4044  0.0745
 8628W        W24522  17.626   8.997   2.293 -0.2031  0.1607  0.2332
 8629W        W24523  12.268  18.182  13.338  0.1931 -0.0654  0.1745
 8630W        W24524   6.895   2.375   4.059  0.0601  0.1177  0.0846
 8631W        W24525   9.073  10.694  11.456 -0.0497 -0.0547 -0.3831
 8632W        W24526   7.203   1.539   4.646  0.2264  0.3023  0.3609
 8633W        W24527  15.499   7.674  13.760  0.1137  0.2891 -0.0560
 8634W        W24528   0.204  16.224  12.266 -0.1347 -0.0752  0.0265
 8635W        W24529  15.646   7.427   4.827  0.1316 -0.0083 -0.0164
 8636W        W24530  14.715  11.214   3.925 -0.0821 -0.0608 -0.2455
 8637W        W24531   2.561   7.811  12.721  0.3594 -0.2887  0.1433
 8638W        W24532  17.547  16.194   0.718 -0.0389  0.0869  0.0710
 8639W        W24533   0.650   1.841  11.307  0.1185 -0.1028 -0.1613
 8640W        W24534  12.089   1.420   0.895 -0.2697  0.3510 -0.2444
 8641W        W24535   5.023   7.647  16.140  0.0139 -0.2035  0.1695
 8642W        W24536  10.505   5.928  15.367 -0.1746 -0.1795 -0.0020
 8643W        W24537  10.412  12.849  15.420 -0.0302 -0.1072 -0.3270
 8644W        W24538   4.969   8.929   1.455 -0.2369 -0.0118 -0.0612
 8645W        W24539  15.177   4.649   6.029 -0.0027  0.2133 -0.0102
 8646W        W24540  10.454   3.390  13.451 -0.0012  0.0366 -0.3170
 8647W        W24541   3.772   7.705   2.211  0.0506 -0.1063  0.1511
 8648W        W24542   8.576   9.530   2.206  0.1387  0.1369 -0.0138
 8649W        W24543   0.191  10.631   1.455  0.0352 -0.0122  0.1284
 8650W        W24544  11.601   1.654   2.506 -0.1397  0.4179  0.0952
 8651W        W24545  13.503   4.845   0.023 -0.2569  0.2001 -0.0207
 8652W        W24546   1.216   8.108  13.381  0.2732  0.0845  0.5458
 8653W        W24547   1.343  15.453   5.343  0.0596  0.3499  0.4460
 8654W        W24548  12.548   6.115   5.726  0.1771 -0.0670 -0.2684
 8655W        W24549  17.731   7.956   4.495 -0.0689  0.0758 -0.2535
 8656W        W24550  16.676  12.859   4.676 -0.0947 -0.2384 -0.0936
 8657W        W24551   5.107  13.281   0.703 -0.2347 -0.2745 -0.3287
 8658W        W24552   7.883   8.938   1.684  0.0626  0.2864  0.4817
 8659W        W24553  16.949  18.308   4.652  0.1752  0.1700  0.2581
 8660W        W24554   6.608   9.384  13.855 -0.1579 -0.1355  0.0530
 8661W        W24555  13.556   8.030   3.183  0.0750 -0.0798 -0.1057
 8662W        W24556   4.537   6.209  13.356  0.1253  0.0745 -0.3288
 8663W        W24557   4.760   3.459   3.074  0.1890 -0.0781  0.2217
 8664W        W24558  12.866  17.136   2.539  0.1137  0.2394 -0.1658
 8665W        W24559   4.340  11.519  15.051  0.0559  0.2908 -0.2218
 8666W        W24560   6.140   8.449  15.177  0.1471 -0.1624 -0.0205
 8667W        W24561  15.881   2.857   2.940  0.2127  0.0322 -0.0539
 8668W        W24562   5.393   5.964   1.302  0.1425 -0.4105  0.1181
 8669W        W24563   5.897   4.917  14.223  0.1643 -0.1574 -0.0427
 8670W        W24564  18.230   9.726  14.944 -0.2042 -0.3157  0.1566
 8671W        W24565  16.438  14.323  15.377  0.0250  0.0960 -0.1989
 8672W        W24566  16.371   6.445  13.117  0.0575 -0.1239  0.1351
 8673W        W24567   8.312   1.542   2.699  0.0025 -0.1078  0.0230
 8674W        W24568   3.192   6.244  11.091 -0.0267 -0.0126 -0.0659
 8675W        W24569   0.226   8.978   0.289 -0.3260 -0.2659  0.1405
 8676W        W24570   2.413  18.311   5.319  0.4474  0.0685 -0.0483
 8677W        W24571   6.992   1.345  12.264 -0.2124  0.1089  0.1236
 8678W        W24572   5.356   1.750  14.736  0.0227 -0.0759 -0.2007
 8679W        W24573   6.368  15.400   4.427  0.0968  0.2699  0.2141
 8680W        W24574   6.999   6.678   2.368  0.0742  0.0848 -0.1810
 8681W        W24575  11.141  12.157  12.872  0.1171 -0.0330  0.0263
 8682W        W24576  14.292   1.628  14.956  0.1244 -0.0375  0.0703
 8683W        W24577  18.154   7.137  12.312 -0.2987  0.0149  0.0803
 8684W        W24578  17.771  11.892   0.750 -0.3221  0.0221  0.0307
 8685W        W24579   0.212   7.387   6.136 -0.3232  0.0053  0.0465
 8686W        W24580  16.227  18.185  15.168 -0.4741  0.0416 -0.0976
 8687W        W24581   2.262  14.951  15.852 -0.0860 -0.1710 -0.0438
 8688W        W24582  14.504   1.476  11.493 -0.2931 -0.0995 -0.2710
 8689W        W24583  15.029  13.402  14.783 -0.0663  0.0778 -0.1267
 8690W        W24584  16.769   8.043  14.413 -0.0150 -0.4271 -0.0665
 8691W        W24585  11.086  17.894  12.499  0.0751 -0.0222  0.2976
 8692W        W24586  16.461   3.072   4.453  0.0939  0.0988  0.3096
 8693W        W24587  10.585   5.756  15.812  0.1322 -0.1249  0.0177
 8694W        W24588   8.171   8.493  15.088  0.0170 -0.2422  0.1091
 8695W        W24589   5.357   5.083  15.976  0.1940  0.0942 -0.3501
 8696W        W24590   3.876   8.386   0.093 -0.0258 -0.1328 -0.0816
 8697W        W24591   8.982   2.867  14.490  0.0158  0.1362 -0.1227
 8698W        W24592   8.092  18.174  12.874 -0.2635  0.3679  0.1888
 8699W        W24593   7.542   5.497  14.962  0.1005 -0.0700 -0.2366
 8700W        W24594   2.997  11.719   4.788  0.0071  0.1843  0.0572
 8701W        W24595   3.923  12.839  12.770  0.1873 -0.2900 -0.2081
 8702W        W24596   7.733   9.591  12.654  0.0385  0.0238  0.0760
 8703W        W24597  17.830  10.629   1.450 -0.0124 -0.1045  0.5038
 8704W        W24598   6.268  14.675  13.952 -0.1713 -0.0083  0.2511
 8705W        W24599   6.620  12.948  12.166  0.0379 -0.3684 -0.0963
 8706W        W24600  12.322  12.845  13.239  0.1212  0.0291  0.2581
 8707W        W24601   8.819  13.987  15.370  0.2172 -0.0973 -0.3210
 8708W        W24602  18.022  13.900  13.573 -0.0657 -0.0986  0.2070
 8709W        W24603   3.877  14.032   0.647 -0.0979 -0.0876  0.1621
 8710W        W24604   8.479  16.343  10.748  0.0621  0.0701  0.1747
 8711W        W24605   4.669   2.304   5.315  0.3184 -0.3647  0.0873
 8712W        W24606   2.440   5.963   1.767 -0.3636 -0.1225 -0.1665
 8713W        W24607   0.058   2.018  11.636 -0.0007  0.3581  0.0487
 8714W        W24608   4.620  11.486  14.396  0.0624  0.1610  0.1704
 8715W        W24609  12.433  15.549  11.011  0.1111 -0.2879  0.2183
 8716W        W24610  13.526  15.251   2.291  0.0077  0.0385 -0.0466
 8717W        W24611   2.143  10.364  11.741 -0.2159 -0.2736 -0.0921
 8718W        W24612  11.805   1.741  15.068  0.0689 -0.1621 -0.1524
 8719W        W24613   5.147  13.199  14.206  0.0431  0.0418  0.1220
 8720W        W24614  11.475   5.464  13.873 -0.0353 -0.1528 -0.1952
 8721W        W24615   3.083   7.291   3.802  0.2669  0.1304 -0.0687
 8722W        W24616  11.281  12.970  15.645 -0.1252 -0.2959 -0.1330
 8723W        W24617  14.406   6.766   0.860  0.3328 -0.4705  0.1105
 8724W        W24618  12.459   6.913   5.678  0.0709 -0.0302  0.2904
 8725W        W24619  14.487   6.651  14.353 -0.5108 -0.2374 -0.2139
 8726W        W24620  13.223   1.330  12.560  0.1327 -0.1492  0.1857
 8727W        W24621   2.254   5.801  14.052 -0.0209 -0.2730 -0.1678
 8728W        W24622   4.952   9.216  11.323 -0.1344  0.0492 -0.3734
 8729W        W24623  14.303  14.509   1.297  0.3349 -0.1671  0.0756
 8730W        W24624   1.480   1.013  11.241  0.1177  0.3774 -0.0468
 8731W        W24625  16.439  17.918   3.535  0.0631  0.0835 -0.0556
 8732W        W24626   7.465   7.101  13.860  0.1678  0.1455 -0.0016
 8733W        W24627  16.492  14.239  11.735  0.1155  0.0652 -0.3504
 8734W        W24628  11.335   0.924  15.485 -0.1686  0.0240 -0.1034
 8735W        W24629   5.233   7.752   5.443 -0.3071 -0.1780 -0.1174
 8736W        W24630  14.745   7.349   0.373 -0.1366  0.0669  0.2275
 8737W        W24631   9.834  17.046  14.059 -0.3232 -0.1324 -0.1076
 8738W        W24632   3.749  11.288  11.894 -0.1446 -0.1452  0.0426
 8739W        W24633  17.467  14.171  14.967 -0.3216  0.3371 -0.3545
 8740W        W24634  13.960   6.867   3.194  0.0339 -0.3862 -0.0369
 8741W        W24635   2.136   0.970   3.904 -0.0332  0.2401 -0.0768
 8742W        W24636   7.618  16.892  15.162 -0.1852 -0.2663  0.3288
 8743W        W24637  17.472  16.856   3.650  0.0441  0.1420  0.0818
 8744W        W24638  17.811  15.771   1.456  0.0142  0.0413  0.0309
 8745W        W24639  17.460   4.857   5.835  0.0327 -0.1096 -0.0293
 8746W        W24640  14.069   4.201  15.366 -0.2906 -0.2209  0.0419
 8747W        W24641  14.969   6.574   1.680  0.3515  0.2219 -0.1956
 8748W        W24642   0.644   1.789   3.438 -0.2201  0.0994 -0.2624
 8749W        W24643  11.430   7.607   4.237  0.2710 -0.0313  0.1967
 8750W        W24644   9.672  15.951   0.525  0.2563  0.0764  0.0415
 8751W        W24645  12.704  10.139   0.813 -0.2380  0.0034 -0.0570
 8752W        W24646  12.760  16.451  16.043  0.3410  0.1603 -0.1203
 8753W        W24647   1.261   6.965   3.109 -0.0608  0.0885  0.2070
 8754W        W24648  12.150   5.577   0.484 -0.3129 -0.1331 -0.2360
 8755W        W24649  11.092   4.138   4.029 -0.2272  0.0279  0.0336
 8756W        W24650   7.937  13.126   5.815 -0.1890 -0.0936  0.1778
 8757W        W24651  10.066   3.343   3.455 -0.1506  0.5008 -0.0322
 8758W        W24652   5.029  15.134   5.561  0.0300 -0.1320  0.2080
 8759W        W24653   7.768   4.964   4.400 -0.1735 -0.0451  0.1712
 8760W        W24654  17.014  10.854  12.331 -0.2458 -0.0195  0.0490
 8761W        W24655  11.389   8.062  15.401 -0.0024  0.0254 -0.0050
 8762W        W24656   8.989  11.156  12.465  0.3140  0.2537  0.2563
 8763W        W24657  13.594  16.357  12.339  0.3438 -0.0891  0.4199
 8764W        W24658   6.894   8.452  12.561  0.0696 -0.3138  0.1030
 8765W        W24659   8.558  15.676  15.906  0.2705 -0.2686  0.1924
 8766W        W24660  11.807   9.696   5.955  0.0872 -0.0037 -0.1626
 8767W        W24661  12.710   0.971  12.712  0.0435  0.0465 -0.0417
 8768W        W24662   2.995  16.684   0.365 -0.1303  0.1537 -0.0795
 8769W        W24663   7.711  10.190  12.306 -0.0259 -0.2845  0.0867
 8770W        W24664   3.915   0.386  11.274 -0.2333 -0.0783 -0.0634
 8771W        W24665  18.224   5.601  14.989  0.2908  0.3492 -0.0872
 8772W        W24666   4.031   9.372   0.870 -0.4582 -0.3676 -0.0164
 8773W        W24667   8.624  17.436   5.168 -0.2455 -0.1324  0.1063
 8774W        W24668  17.744   6.541   5.624 -0.2535  0.3663  0.0001
 8775W        W24669   0.207   3.534  15.521 -0.2613  0.1417  0.0005
 8776W        W24670   2.527   7.359   2.249  0.0518  0.0621 -0.0791
 8777W        W24671   8.489   3.797   5.105 -0.2001  0.4446 -0.0042
 8778W        W24672   7.665  11.393  14.864  0.1519 -0.1756  0.1102
 8779W        W24673   2.366  15.348   1.311  0.0133 -0.0907  0.1049
 8780W        W24674  13.739  14.363  13.605  0.2361  0.1974 -0.2400
 8781W        W24675   9.840  17.032   1.016 -0.2101 -0.0216  0.1208
 8782W        W24676   5.398  16.106  13.500 -0.2339 -0.5177  0.3610
 8783W        W24677   0.688   0.539  11.229 -0.0464 -0.0853 -0.2182
 8784W        W24678   8.219  14.413  13.983 -0.0506  0.3065  0.1020
 8785W        W24679  17.944   0.054   1.905 -0.2815 -0.1032 -0.0540
 8786W        W24680  15.428  17.347   5.296 -0.1378 -0.0613 -0.1140
 8787W        W24681   9.192   9.183  10.947 -0.0367  0.0983  0.1155
 8788W        W24682  17.814  17.433   3.055  0.0462  0.0033  0.1841
 8789W        W24683   7.810   0.875  12.373 -0.1005 -0.2470  0.2110
 8790W        W24684   0.708  17.234  15.446 -0.2686 -0.1855  0.0395
 8791W        W24685  15.121  14.026  12.333 -0.2264 -0.2523  0.0341
 8792W        W24686   7.112  17.209  15.975 -0.0128 -0.1780 -0.0277
 8793W        W24687   9.122  10.850   2.537  0.2841  0.0650 -0.1437
 8794W        W24688  16.509   5.915   0.645  0.0607 -0.2612 -0.2084
 8795W        W24689   1.565   0.930  15.189  0.1129  0.0854 -0.1964
 8796W        W24690   0.251  17.579  13.077  0.0646 -0.0826 -0.2153
 8797W        W24691   3.438   2.825   3.495  0.1869 -0.1078 -0.2181
 8798W        W24692  14.663   3.792  14.801  0.2568 -0.1265 -0.0784
 8799W        W24693  15.327   1.161   2.090 -0.1608 -0.3727 -0.3054
 8800W        W24694  12.806   4.247   2.719  0.1266  0.1279  0.2435
 8801W        W24695   1.716   5.786   3.421 -0.0359 -0.0058 -0.2762
 8802W        W24696  15.158   3.960   0.849 -0.1713 -0.2135  0.2067
 8803W        W24697   2.093   6.118  13.446 -0.1141  0.3109  0.0759
 8804W        W24698   3.830  16.651  15.071  0.1020 -0.2615  0.1636
 8805W        W24699  12.849   3.805  13.541  0.0242 -0.2879  0.2363
 8806W        W24700  15.318  11.096   0.579 -0.1359 -0.2443  0.2456
 8807W        W24701   6.353   5.520   2.991  0.0569  0.0204  0.3039
 8808W        W24702  16.771  17.837  13.955 -0.2443 -0.0204 -0.1119
 8809W        W24703   8.837   6.238  15.380 -0.0031  0.1576 -0.1897
 8810W        W24704  17.621   0.380  13.201 -0.1803 -0.0674 -0.0807
 8811W        W24705   8.520   2.315  15.185 -0.0061 -0.1072  0.0202
 8812W        W24706  14.626   0.546   0.189  0.3343 -0.1311 -0.1385
 8813W        W24707   0.992  14.507  16.112  0.1112  0.0162 -0.0826
 8814W        W24708   5.371  12.021  13.917 -0.4249 -0.2466 -0.1569
 8815W        W24709  16.889   2.122  13.599  0.2787 -0.1513  0.0812
 8816W        W24710  12.821  11.956  13.765  0.1239  0.0826 -0.0427
 8817W        W24711  14.404  17.311   1.558 -0.0756  0.0611 -0.0102
 8818W        W24712  12.069  13.482   2.185 -0.1959 -0.2655  0.1422
 8819W        W24713  12.721   2.533   0.659  0.0970 -0.0957 -0.5006
 8820W        W24714  17.256  11.262   1.952  0.0912  0.0525  0.0532
 8821W        W24715   3.426   5.886   3.233  0.0919  0.0071  0.0045
 8822W        W24716   3.558   1.007  15.422 -0.2334  0.1614 -0.0585
 8823W        W24717  17.552   7.716   1.577 -0.4466 -0.2851  0.2154
 8824W        W24718  10.606   4.247  12.154 -0.2000 -0.1639 -0.2817
 8825W        W24719   6.086  13.224   0.730 -0.0018 -0.0671 -0.1960
 8826W        W24720  13.951   6.212   4.421  0.0307 -0.2283 -0.0286
 8827W        W24721   0.228   5.436  14.844 -0.0175 -0.0138 -0.1955
 8828W        W24722   8.928   8.480   5.492  0.2363  0.1019 -0.1169
 8829W        W24723   9.591   7.598   0.802  0.0447 -0.3142  0.1682
 8830W        W24724   8.154   2.359  11.617 -0.0501  0.1788  0.0899
 8831W        W24725   2.878   9.233  11.167  0.3558  0.0916  0.2807
 8832W        W24726  16.145  11.148  15.880  0.1568  0.0010  0.0383
 8833W        W24727   5.556  10.554  12.041 -0.1116  0.0436  0.6058
 8834W        W24728  15.998  15.530  10.047  0.1819 -0.1202  0.2424
 8835W        W24729   7.196   8.916  13.083  0.2049  0.1660 -0.0667
 8836W        W24730  11.407  17.664  14.667  0.0492 -0.0583  0.0153
 8837W        W24731  10.220  11.683  15.349  0.1217  0.0981  0.0467
 8838W        W24732   2.123   9.325   4.754  0.2783 -0.0970  0.0602
 8839W        W24733   9.811  12.328   6.005 -0.0203 -0.0072 -0.2896
 8840W        W24734   1.396  10.025  16.097  0.4235  0.1508  0.1053
 8841W        W24735  17.586   6.206  13.277  0.1836 -0.0603  0.0279
 8842W        W24736   9.631   8.395  14.540 -0.2139 -0.1301 -0.2919
 8843W        W24737   1.639   6.774   1.900  0.1100 -0.2956  0.2437
 8844W        W24738   9.257  15.235  12.755  0.0505 -0.0685 -0.1075
 8845W        W24739   3.519   6.247   2.260 -0.1156  0.2373 -0.0605
 8846W        W24740  12.744   2.628  11.391  0.0809  0.1457 -0.2147
 8847W        W24741   1.495  13.438  10.689  0.0563  0.3859 -0.0190
 8848W        W24742   4.117   7.923  15.075  0.1461 -0.1602  0.1168
 8849W        W24743  13.286  15.210  11.603 -0.0560 -0.1065 -0.2411
 8850W        W24744   4.818   7.455  15.728  0.1549  0.1229 -0.0612
 8851W        W24745   5.197  10.516  15.299  0.1831 -0.3068 -0.2282
 8852W        W24746  18.178   3.349   3.683  0.2773 -0.3827  0.2000
 8853W        W24747  14.214   9.261  11.421  0.1269  0.1896 -0.0166
 8854W        W24748  16.098   1.494   6.461 -0.0779 -0.0246  0.2857
 8855W        W24749  16.212   9.743  11.513  0.1789 -0.0697  0.0654
 8856W        W24750  16.961  11.928  12.591 -0.0914 -0.3354 -0.1943
 8857W        W24751   5.810   5.095   2.560  0.2854  0.1723  0.1352
 8858W        W24752   1.710   7.041  13.538 -0.2915 -0.0943  0.0764
 8859W        W24753  12.713  13.950  13.982 -0.1192 -0.1761 -0.3006
 8860W        W24754   8.189   2.768  15.147  0.2017  0.3000  0.0205
 8861W        W24755   8.591  10.555  13.590 -0.1172 -0.2763 -0.2750
 8862W        W24756   4.627   1.557   1.391  0.1934 -0.2665 -0.0387
 8863W        W24757  12.829  10.046   3.556  0.0284  0.1150 -0.1034
 8864W        W24758  12.577  11.003   4.722  0.0280  0.2019  0.2757
 8865W        W24759  12.566  11.959  13.060 -0.1394  0.0321 -0.0760
 8866W        W24760  16.343  16.704  13.656 -0.0015 -0.0326  0.1799
 8867W        W24761   1.296   0.320  12.278  0.1925  0.1302 -0.1499
 8868W        W24762  15.473   2.764   3.482  0.0522  0.0662 -0.1032
 8869W        W24763  13.920   7.501  12.033  0.0049 -0.0421 -0.4403
 8870W        W24764   1.016   8.857  12.191  0.3847 -0.1557  0.0204
 8871W        W24765   0.363   8.990  11.810  0.3621 -0.1467  0.0638
 8872W        W24766   5.562   7.600   4.727 -0.1549 -0.3617 -0.0238
 8873W        W24767   8.750   3.360  12.422  0.0521 -0.0979  0.1231
 8874W        W24768  15.705   0.703   3.832  0.1325  0.2084 -0.1268
 8875W        W24769   3.087  11.326   2.828 -0.0216  0.1601  0.4029
 8876W        W24770  15.770  15.348   4.631 -0.0899  0.1553 -0.1255
 8877W        W24771  11.114   7.937  12.002  0.2773  0.0605 -0.1710
 8878W        W24772  14.015   8.990   2.853  0.0284  0.0117 -0.1165
 8879W        W24773   2.903   2.616   3.513  0.3363  0.1646  0.1227
 8880W        W24774  16.610  11.811   5.410  0.0069  0.3803 -0.1144
 8881W        W24775  17.268  10.450   6.223 -0.1824 -0.0033 -0.0651
 8882W        W24776  17.416  18.427  12.855  0.0834 -0.3262 -0.1906
 8883W        W24777  13.675   1.676  14.103  0.4139  0.0151  0.0325
 8884W        W24778  14.681  12.198  15.342  0.1293  0.0508  0.0489
 8885W        W24779   2.624  15.881  11.725 -0.1496  0.2329 -0.1496
 8886W        W24780  15.134  12.190  13.720 -0.3123 -0.1822 -0.2901
 8887W        W24781  14.083   5.794   4.123  0.0646  0.0087 -0.0481
 8888W        W24782   0.259   5.780   2.986 -0.1941 -0.0619  0.1917
 8889W        W24783  11.717   5.490   2.381  0.0428 -0.5202  0.3968
 8890W        W24784   2.605  17.752  14.382  0.0566 -0.0809  0.1863
 8891W        W24785  16.917  10.529   1.393 -0.3334 -0.4391  0.0339
 8892W        W24786  14.461  13.895  16.102  0.1279 -0.3636  0.2312
 8893W        W24787  14.067   1.457   1.237 -0.2257 -0.1823 -0.1491
 8894W        W24788   4.578   1.400  12.151 -0.4591 -0.1708 -0.2194
 8895W        W24789   8.469   0.698   0.219 -0.1141  0.1182  0.4058
 8896W        W24790   7.588   6.830  10.788 -0.4311 -0.1686 -0.0495
 8897W        W24791  16.572  13.886   4.765  0.1099  0.0517  0.1262
 8898W        W24792  10.548   1.390   4.653  0.2536  0.1649  0.4272
 8899W        W24793   2.785  17.544   0.404  0.2158  0.0118 -0.0487
 8900W        W24794  12.148   3.732  14.082 -0.0216  0.0815 -0.1199
 8901W        W24795  11.477   0.390  13.431  0.2498 -0.1706 -0.2385
 8902W        W24796   2.486  11.569   1.075  0.2044  0.3197  0.4527
 8903W        W24797   6.341   5.395  15.039 -0.1745  0.1348 -0.1412
 8904W        W24798   2.365  13.340   0.962  0.2589  0.1242  0.2377
 8905W        W24799   1.552   3.713   3.966  0.0933 -0.1939  0.0564
 8906W        W24800   4.773   7.673  13.217 -0.0300 -0.1020 -0.0274
 8907W        W24801   3.769   3.098   4.786  0.1105  0.3204  0.2415
 8908W        W24802  15.836   7.865   2.291 -0.0807 -0.4079  0.1903
 8909W        W24803   4.913   2.608  14.177  0.2061 -0.0511  0.0462
 8910W        W24804  12.973   6.503   2.240  0.1160 -0.2363 -0.2955
 8911W        W24805  15.696  15.516   6.035  0.1629 -0.0174  0.3030
 8912W        W24806  17.384  14.568  14.756 -0.3622 -0.1599  0.0106
 8913W        W24807  10.456   0.458   4.861  0.0021  0.1402  0.1737
 8914W        W24808   3.682   3.994  15.632 -0.1632 -0.2082 -0.0011
 8915W        W24809  14.623   1.784   5.009  0.3130 -0.1675 -0.2645
 8916W        W24810  17.354  13.274   1.428 -0.2153 -0.1435 -0.1417
 8917W        W24811  10.818   7.141   4.935 -0.0348  0.0126  0.1937
 8918W        W24812   1.363  10.226  13.822 -0.1171  0.0504 -0.1753
 8919W        W24813   4.019   9.366   4.363  0.1928  0.0654  0.1425
 8920W        W24814  11.421   7.842  14.210 -0.0682 -0.1044 -0.1878
 8921W        W24815  13.840  10.244  12.385 -0.0208 -0.0104  0.1974
 8922W        W24816   5.887  18.070  13.521 -0.0943  0.0415  0.0583
 8923W        W24817   7.395   0.766   4.269 -0.0115 -0.0024 -0.1147
 8924W        W24818  10.577   5.132   5.284  0.1409 -0.0118 -0.0221
 8925W        W24819   6.700  11.282   4.383 -0.0781 -0.1263  0.2580
 8926W        W24820   6.770  13.767   5.977  0.3413  0.1316  0.1412
 8927W        W24821   2.139  12.204   1.577 -0.1110  0.4610 -0.3703
 8928W        W24822  11.358  11.764  11.473  0.0174  0.1991  0.1692
 8929W        W24823   9.279   3.453   0.774  0.0340 -0.2169 -0.1235
 8930W        W24824   5.617   9.599   0.758  0.2130 -0.0186  0.1015
 8931W        W24825   0.260   8.481   4.695  0.0281 -0.2268 -0.3165
 8932W        W24826  13.031   4.036   3.082  0.0849 -0.1779 -0.0243
 8933W        W24827  17.428  15.947  14.898  0.0138  0.1413  0.0532
 8934W        W24828   8.456  11.500   3.751  0.0077 -0.0189  0.0969
 8935W        W24829   0.469  15.346  10.937  0.2592 -0.1278  0.0537
 8936W        W24830  14.077  13.425   2.630 -0.1291  0.1018  0.3370
 8937W        W24831   1.863   3.606   2.054 -0.0462 -0.0391  0.2155
 8938W        W24832  14.956  14.566   1.131 -0.3247 -0.2867 -0.2020
 8939W        W24833   0.004  13.256  16.146  0.1248  0.2493 -0.0632
 8940W        W24834   2.860   4.187  14.241  0.0046 -0.0962  0.0141
 8941W        W24835  12.679   4.659   4.066  0.0536  0.2069 -0.1916
 8942W        W24836   0.387   3.365  13.690 -0.1102 -0.2033  0.1909
 8943W        W24837  12.668  10.597   4.460  0.1461  0.1638  0.2371
 8944W        W24838   6.669   4.175  11.108  0.1767 -0.1034 -0.1280
 8945W        W24839   9.179  14.026   2.817  0.0628  0.2875  0.2095
 8946W        W24840   1.437   3.451  14.424 -0.0296  0.0039  0.6090
 8947W        W24841  16.519   5.820  15.427 -0.1972 -0.1494 -0.3346
 8948W        W24842  14.674   7.854  11.961  0.2718 -0.1115 -0.0749
 8949W        W24843  14.382   0.565  11.725  0.0300  0.0531  0.1642
 8950W        W24844   7.348  13.270  13.364 -0.0083  0.2005 -0.0800
 8951W        W24845   0.454   7.267  14.051  0.2502 -0.3185 -0.0549
 8952W        W24846  16.697   2.875  12.004  0.2585 -0.1551 -0.1351
 8953W        W24847   1.861  11.280   1.367  0.0538  0.1850 -0.0473
 8954W        W24848   8.590  13.985   0.178  0.0794  0.0405 -0.1541
 8955W        W24849  18.400  15.078   3.088  0.1417 -0.0456  0.0328
 8956W        W24850   3.561   8.250  14.366 -0.1148  0.1432 -0.2192
 8957W        W24851  15.605  17.027   0.573  0.2103  0.0312  0.2190
 8958W        W24852   5.232  13.882  13.127 -0.0525  0.0421 -0.0583
 8959W        W24853   9.386   4.414   1.191  0.0800 -0.1913  0.2248
 8960W        W24854   0.930  13.730  14.875 -0.2348  0.2153  0.0358
 8961W        W24855  15.544  17.885   1.875  0.0769 -0.3292 -0.1065
 8962W        W24856  16.119  15.634   3.166 -0.0205 -0.0641 -0.1571
 8963W        W24857  11.018   7.148  13.093  0.0272  0.3323 -0.3308
 8964W        W24858  14.264   3.597   4.826  0.5336 -0.1066  0.1523
 8965W        W24859   7.289   1.590  14.705  0.1059 -0.0322  0.0290
 8966W        W24860  10.476  12.509   0.303 -0.0303  0.2091  0.1288
 8967W        W24861  13.457  13.978  12.276  0.0242 -0.0636  0.1232
 8968W        W24862  13.432  17.870   0.058  0.0100  0.0333  0.1961
 8969W        W24863  12.198   6.053   1.801  0.1258  0.2956  0.2063
 8970W        W24864   2.866   8.128  13.004 -0.1097 -0.1048  0.0815
 8971W        W24865  15.789   4.460   0.403  0.0537 -0.0345  0.3513
 8972W        W24866  16.014  11.676   2.301 -0.0703 -0.0593 -0.0078
 8973W        W24867   9.976  16.692  12.977 -0.4969  0.3816 -0.0120
 8974W        W24868   8.153   6.012  10.677 -0.1849  0.2217  0.2016
 8975W        W24869   5.574   8.154  12.969  0.0962 -0.3558  0.1995
 8976W        W24870  13.802   3.896   3.551  0.2200 -0.3171  0.0352
 8977W        W24871   2.286   1.031   1.129  0.1902  0.0857 -0.0910
 8978W        W24872   7.394   7.072   1.307  0.2090  0.0979 -0.2311
 8979W        W24873   6.770   5.504   2.631  0.2369 -0.1605 -0.3254
 8980W        W24874   7.349   6.851  15.284  0.6634  0.0027 -0.0221
 8981W        W24875   4.246   1.775   5.061  0.3220 -0.0930  0.1363
 8982W        W24876  17.783   2.444   5.416  0.0471  0.3098 -0.1710
 8983W        W24877  16.587   8.091   1.316 -0.4291 -0.0080  0.1350
 8984W        W24878  15.403   8.533   3.457 -0.0904  0.0280 -0.0050
 8985W        W24879  16.657   0.899   0.978 -0.0387  0.4302 -0.0954
 8986W        W24880   0.645   9.306   4.130 -0.0443 -0.0399  0.1681
 8987W        W24881   4.834  13.666   5.001 -0.2394 -0.1065  0.1480
 8988W        W24882   6.969   6.363  13.554  0.1775 -0.2330  0.1044
 8989W        W24883  11.476   1.986  11.795 -0.2073  0.4603  0.3364
 8990W        W24884  15.628   7.546  15.993 -0.0636 -0.3509 -0.1537
 8991W        W24885  13.002  11.323   1.197 -0.2835  0.1395 -0.1009
 8992W        W24886  16.938  17.284   3.279 -0.1067  0.1818 -0.0699
 8993W        W24887  16.534  16.203   0.365 -0.0793 -0.3592 -0.0042
 8994W        W24888  15.788   7.213  12.237 -0.1191 -0.0035  0.1360
 8995W        W24889   7.246   5.676   2.446 -0.0127  0.0288 -0.0304
 8996W        W24890   1.477   1.533  13.578  0.1394 -0.3339 -0.0615
 8997W        W24891  11.753   9.411   5.045  0.2732  0.2013  0.1473
 8998W        W24892   5.191   0.991  11.982  0.1045 -0.4485  0.1030
 8999W        W24893   3.911   2.719   1.468 -0.1299  0.1018 -0.2134
 9000W        W24894  10.412  18.054   1.263 -0.0412  0.0249  0.2127
 9001W        W24895   4.798   0.084  11.192 -0.2082  0.0817  0.3048
 9002W        W24896   0.150  13.003   2.706 -0.0345 -0.1890  0.1592
 9003W        W24897   6.873   7.621  14.782 -0.1366 -0.0705  0.2074
 9004W        W24898  16.587  10.559   5.010 -0.1594  0.0783  0.0197
 9005W        W24899   8.115   3.604  15.029  0.2987  0.0745  0.1442
 9006W        W24900   6.615   9.504   5.129  0.0365  0.4132  0.0833
 9007W        W24901  16.101   1.077  14.738  0.1240 -0.0337 -0.2343
 9008W        W24902   0.518   0.440   5.967 -0.0305 -0.1866  0.0964
 9009W        W24903  11.668   5.713  14.578 -0.2089  0.1470  0.3007
 9010W        W24904   6.742  12.862   3.387 -0.3325 -0.2103  0.2967
 9011W        W24905  13.920  17.711  13.788  0.2749 -0.0259  0.1943
 9012W        W24906  11.763  12.745   1.691 -0.0975 -0.0448  0.2032
 9013W        W24907   2.623   8.266   3.789 -0.0913 -0.0602 -0.0816
 9014W        W24908  12.233  16.409  16.107  0.4662  0.0077 -0.3087
 9015W        W24909  13.062  17.785  12.585 -0.2877 -0.1435  0.1263
 9016W        W24910   9.246  14.299  12.321  0.1011  0.2064  0.1061
 9017W        W24911  14.144   8.392   1.232  0.0023 -0.1534  0.0386
 9018W        W24912  15.976  16.275  12.562 -0.2970 -0.0606 -0.0697
 9019W        W24913   2.381   7.451  11.836 -0.0847 -0.1465  0.2791
 9020W        W24914   0.692   2.702   3.888  0.0126 -0.0500 -0.3617
 9021W        W24915   8.704   8.429   4.614  0.2067 -0.0635  0.0917
 9022W        W24916  17.670   8.380   3.335 -0.0479  0.0262 -0.2886
 9023W        W24917  17.574  11.036  11.198  0.1870  0.0750 -0.0883
 9024W        W24918  15.650   5.937   1.954 -0.1861 -0.1560  0.2169
 9025W        W24919   2.921  14.032   3.708 -0.1377  0.0069  0.0362
 9026W        W24920   8.910   2.412   0.621 -0.0268 -0.1112  0.1167
 9027W        W24921   1.809  13.055   4.460 -0.2520 -0.3048 -0.1493
 9028W        W24922   0.602   6.192   2.861  0.0754  0.2741 -0.2765
 9029W        W24923   9.184  14.775  12.062  0.1509  0.1481  0.2412
 9030W        W24924   9.255  17.347   2.322  0.1776  0.0297 -0.1084
 9031W        W24925   2.963  16.615  15.376 -0.1497  0.4791 -0.1619
 9032W        W24926   4.688  10.409   2.081 -0.1299  0.1548  0.0514
 9033W        W24927   7.075   7.808   1.813 -0.1049 -0.0416  0.1329
 9034W        W24928   8.389   7.144   2.262  0.2692  0.1778 -0.2686
 9035W        W24929  11.500   9.519   0.368  0.0562  0.2249 -0.4834
 9036W        W24930   7.708   5.081   1.211  0.0348  0.0545  0.1755
 9037W        W24931  10.729  10.324   3.324  0.1256 -0.0238  0.2590
 9038W        W24932   6.995   1.636   3.344  0.0957  0.1306  0.0343
 9039W        W24933   6.284  10.424   5.226  0.2319  0.0252  0.0267
 9040W        W24934  13.626   0.964   3.228 -0.2544 -0.0375  0.0649
 9041W        W24935  13.571   4.621  15.686 -0.0878  0.0119 -0.3958
 9042W        W24936  12.461   7.910  11.799 -0.1164 -0.2175 -0.0321
 9043W        W24937   7.164  13.018   3.957  0.2236  0.1775 -0.2932
 9044W        W24938   0.595  11.770   3.779 -0.4223 -0.0331  0.0577
 9045W        W24939   9.897  11.462   0.717  0.0799 -0.1376 -0.0049
 9046W        W24940   6.079  12.496   5.789 -0.1449 -0.2426  0.1954
 9047W        W24941  18.096   2.775  15.772 -0.1438  0.1942  0.0588
 9048W        W24942  12.966   6.162  12.958  0.1633  0.3007  0.1072
 9049W        W24943  11.138  12.531  10.688 -0.0867 -0.3676  0.0384
 9050W        W24944  12.582   6.297   4.068 -0.2142 -0.1705 -0.0530
 9051W        W24945   1.339   0.581  11.461  0.1385 -0.0192  0.0554
 9052W        W24946   4.887   2.301   4.863 -0.0529  0.0330  0.1044
 9053W        W24947  12.711  10.632  15.260  0.2194  0.1016  0.0972
 9054W        W24948  15.159  10.123  12.175 -0.1648  0.1434  0.0737
 9055W        W24949   1.419  15.659   0.649 -0.1178 -0.0549  0.1694
 9056W        W24950  13.636  16.896  10.787  0.0579 -0.0607  0.2547
 9057W        W24951  11.385   6.500  12.997 -0.1202  0.0009  0.2247
 9058W        W24952   6.576  12.873   5.665 -0.2044 -0.0683  0.1807
 9059W        W24953  16.672   2.348  15.800 -0.1697  0.2801 -0.2298
 9060W        W24954   2.559  17.043  12.186  0.1822 -0.0730  0.1291
 9061W        W24955  17.776  12.959   0.091 -0.4070  0.0577 -0.2488
 9062W        W24956  11.590  11.587  13.511 -0.1563 -0.0389 -0.0700
 9063W        W24957   1.870   2.637   5.219 -0.2479  0.1265  0.1487
 9064W        W24958   9.892   7.925  14.726  0.1787  0.0263  0.0548
 9065W        W24959  12.990   5.725  12.522 -0.2097  0.2123  0.0782
 9066W        W24960   2.036   6.359   5.053  0.2570  0.2020  0.0695
 9067W        W24961   6.325   9.173  12.695  0.0592 -0.1562 -0.1882
 9068W        W24962  11.333   9.914  15.642  0.2002 -0.0436  0.3421
 9069W        W24963  17.977  15.507   3.094 -0.2633 -0.1738 -0.0214
 9070W        W24964   7.857   5.508   3.796 -0.1205 -0.2235  0.1383
 9071W        W24965   9.423  11.065  13.999 -0.2317  0.0176 -0.3849
 9072W        W24966   4.991  10.368  15.912  0.2807 -0.0610 -0.2009
 9073W        W24967  10.234   1.428  11.834  0.2842  0.0877 -0.1949
 9074W        W24968   7.993  12.185   4.297  0.1563  0.0398  0.1336
 9075W        W24969  13.368  14.462  14.971  0.0948 -0.0104 -0.2305
 9076W        W24970  14.609  17.801  12.300 -0.1306  0.0760  0.1253
 9077W        W24971   0.570  15.649  11.849 -0.2109 -0.3515  0.0922
 9078W        W24972   6.994  11.980  10.762  0.1982  0.1589 -0.1850
 9079W        W24973  17.133  11.693   2.555  0.1108 -0.1340  0.0086
 9080W        W24974  13.433  17.902  14.340  0.2411  0.1846  0.1621
 9081W        W24975   3.874  18.320  13.072 -0.2755  0.2258 -0.0889
 9082W        W24976   4.682  16.471  11.386 -0.2622 -0.1002 -0.2334
 9083W        W24977   9.505   0.151   2.103 -0.1766 -0.2494 -0.0480
 9084W        W24978  15.012  10.047  13.629  0.1778  0.3321  0.0204
 9085W        W24979   5.609  10.198  12.331 -0.1591  0.2662  0.1695
 9086W        W24980  10.233   3.262  11.569 -0.2570  0.1049 -0.0966
 9087W        W24981   9.055   4.709  12.025  0.1189 -0.1690  0.2768
 9088W        W24982  11.156  13.921  15.713 -0.0313 -0.0220 -0.0634
 9089W        W24983   9.967   3.869   3.371 -0.2938 -0.0333 -0.0173
 9090W        W24984   0.911  12.634   0.912 -0.1675 -0.0322  0.0687
 9091W        W24985  15.148  13.811   1.625  0.1337 -0.1892 -0.2254
 9092W        W24986   3.879   1.379  15.477  0.0495 -0.1287 -0.1166
 9093W        W24987   6.744  14.054  10.864  0.1002  0.1733  0.2363
 9094W        W24988   3.484   0.002   9.709 -0.2333  0.1847 -0.1163
 9095W        W24989  14.464  16.735   1.517 -0.1583  0.1570  0.2738
 9096W        W24990   1.248  17.677   1.949 -0.2819 -0.0618 -0.0420
 9097W        W24991  11.442   7.432  14.444 -0.2371 -0.3347 -0.0166
 9098W        W24992   8.955   2.578   3.765 -0.0698  0.1029 -0.1485
 9099W        W24993  11.224   7.276  14.848 -0.2523  0.1441  0.0610
 9100W        W24994   7.398  15.085   3.629  0.1630 -0.1210  0.1262
 9101W        W24995  14.088   4.250   2.219  0.0929 -0.0694  0.1777
 9102W        W24996  15.744   7.159   1.269  0.0629  0.2734  0.0380
 9103W        W24997   2.322   1.607   0.867  0.3664 -0.1909 -0.0683
 9104W        W24998  16.511  14.673   0.641 -0.0636  0.1809  0.1483
 9105W        W24999  17.285  12.151  15.706 -0.0636  0.1884  0.3015
 9106W        W25000  14.504   3.531  14.312 -0.0847  0.2739 -0.2302
 9107W        W25001  17.608   0.027   3.770 -0.0874 -0.1482  0.3696
 9108W        W25002   2.105   1.435  12.863  0.1673  0.2200  0.0176
 9109W        W25003  12.329   2.969   2.733 -0.0629 -0.1855 -0.0872
 9110W        W25004   6.466  15.057   4.019  0.1498  0.1428 -0.0990
 9111W        W25005  12.877  16.872   3.605  0.0937 -0.2340  0.5553
 9112W        W25006   7.106   2.187  15.582 -0.0842 -0.0590 -0.1117
 9113W        W25007  17.241   5.888   1.104 -0.0607 -0.1439  0.3375
 9114W        W25008  12.899  16.146   4.219 -0.0985 -0.2022 -0.0630
 9115W        W25009   3.842  13.571   5.179  0.2280 -0.2084  0.2690
 9116W        W25010   5.761   3.671   1.684 -0.0615  0.1646  0.0684
 9117W        W25011  13.910  13.386   4.945  0.0190  0.0137 -0.0117
 9118W        W25012   5.492  13.519  13.417  0.3292 -0.0950 -0.2188
 9119W        W25013   1.209   6.706  15.438 -0.0891  0.2175 -0.0179
 9120W        W25014   0.488   8.438   5.134 -0.2999 -0.1116  0.0456
 9121W        W25015  13.381   6.070  12.581  0.2120  0.0480 -0.1465
 9122W        W25016   5.779  10.760  13.461 -0.0696 -0.0230 -0.1743
 9123W        W25017   1.656   0.881   3.780  0.0974  0.2188  0.5447
 9124W        W25018   4.625   1.872  14.260  0.0223  0.0300 -0.0257
 9125W        W25019   5.942  10.886  11.368 -0.0756  0.1507 -0.1863
 9126W        W25020  11.544   5.922   0.372  0.1131  0.2077 -0.1757
 9127W        W25021  12.380   9.207   3.019 -0.1929 -0.0338 -0.2389
 9128W        W25022   1.859   8.970   1.230  0.3475 -0.0938 -0.1178
 9129W        W25023   3.928  14.558  11.684 -0.0731 -0.1766 -0.0804
 9130W        W25024   0.423   8.987   1.476 -0.1091 -0.0729 -0.0081
 9131W        W25025   7.055  12.703   5.372  0.0384 -0.1958  0.1952
 9132W        W25026  12.772  17.441  11.317 -0.0700  0.2600 -0.1490
 9133W        W25027   0.907  17.602   2.330  0.2953 -0.0674 -0.1616
 9134W        W25028  12.318   0.544   0.534  0.0927 -0.0875  0.3880
 9135W        W25029   0.222  17.197  13.383 -0.0541 -0.2154 -0.1798
 9136W        W25030   9.304   0.746  14.998 -0.1053 -0.1243 -0.0374
 9137W        W25031   7.955   1.139  14.346  0.1765 -0.1215 -0.0334
 9138W        W25032  18.313  11.678   2.821  0.4070 -0.1253  0.1230
 9139W        W25033   9.885   4.383   5.052  0.3667 -0.1033 -0.0687
 9140W        W25034  15.841   6.265   6.597  0.0111  0.1631  0.1766
 9141W        W25035   5.785   8.980  13.049 -0.4075  0.4721  0.1413
 9142W        W25036   0.168  17.940   1.054 -0.0040  0.2306  0.1774
 9143W        W25037   8.260  18.362  13.323  0.1829 -0.4319  0.0089
 9144W        W25038   9.614   1.563  10.090 -0.0218  0.0092  0.2612
 9145W        W25039   5.525  14.328  14.413 -0.0855 -0.5060 -0.1286
 9146W        W25040  12.702  16.008   1.619 -0.0233 -0.4307  0.2045
 9147W        W25041   7.716   3.710   3.220  0.1027  0.3443 -0.2563
 9148W        W25042   9.330   4.319   0.629  0.1423 -0.2195 -0.1956
 9149W        W25043   5.746  14.603  13.983 -0.2476  0.1972  0.2030
 9150W        W25044  14.973   3.343   0.009 -0.2002  0.1014  0.0611
 9151W        W25045  11.389   4.935  11.975  0.2533  0.3922 -0.0854
 9152W        W25046  16.558   4.641  16.118 -0.1249  0.0877  0.1393
 9153W        W25047   7.879   7.115   0.358  0.0579  0.0133  0.2332
 9154W        W25048   4.397  17.798  14.204 -0.0679  0.1802  0.3125
 9155W        W25049  16.973   0.413   2.218  0.2389  0.0357 -0.1083
 9156W        W25050  10.639  13.560   3.441 -0.0777 -0.1230  0.0603
 9157W        W25051   2.636  11.898   0.288  0.3278  0.0718  0.0741
 9158W        W25052   0.482  14.049  14.890  0.1191 -0.0612 -0.0038
 9159W        W25053   0.634   1.465   0.482  0.0588 -0.2900 -0.1999
 9160W        W25054   1.514   8.943  14.774  0.1821  0.2203  0.0406
 9161W        W25055   3.773   5.666   3.739 -0.2875  0.2112  0.1405
 9162W        W25056   5.696   2.656  14.146  0.2637 -0.0827 -0.1063
 9163W        W25057   8.076  13.710   4.803  0.0454  0.2367  0.1170
 9164W        W25058   7.731  17.583   2.809  0.0239 -0.4288 -0.0144
 9165W        W25059  17.269   5.887   4.119 -0.0037  0.3245  0.1119
 9166W        W25060  11.612  12.358   2.489 -0.2241  0.2033  0.1133
 9167W        W25061   6.428  12.857  13.273 -0.0382 -0.4030 -0.1288
 9168W        W25062   0.198  15.335   3.425 -0.0687 -0.1964 -0.0913
 9169W        W25063  12.080  16.715   2.084  0.0249  0.0884  0.1681
 9170W        W25064   9.318   1.124  14.662  0.2134 -0.2399  0.3699
 9171W        W25065  15.197  15.765   2.781  0.0748 -0.5504 -0.0131
 9172W        W25066   9.891   7.375  15.463 -0.0339  0.0117  0.4171
 9173W        W25067  16.461   3.869  12.349  0.0298  0.0898 -0.0870
 9174W        W25068   9.142   4.318  14.057 -0.1273  0.0155 -0.2052
 9175W        W25069   8.638   8.296   2.914  0.1168  0.2480 -0.2832
 9176W        W25070   5.693   8.161  13.457  0.2196 -0.1662  0.0912
 9177W        W25071   1.047  10.311  13.112  0.2534 -0.1444  0.2911
 9178W        W25072  17.614  11.245   4.420 -0.1369  0.0809  0.2926
 9179W        W25073  17.621  12.406  11.426 -0.0865 -0.1701  0.0315
 9180W        W25074   4.449  18.060   3.389 -0.3011  0.0969 -0.2628
 9181W        W25075   5.963  14.365   2.878  0.2307  0.2494  0.1357
 9182W        W25076   9.933   1.573   0.250  0.1650 -0.0232 -0.0131
 9183W        W25077   4.081  14.818   3.704 -0.0365  0.2743 -0.2479
 9184W        W25078   9.622   1.667  13.055  0.1347 -0.0299  0.1514
 9185W        W25079  15.013   0.166  13.902  0.0251 -0.0452 -0.0078
 9186W        W25080  10.683   3.053  14.329 -0.1401  0.0915 -0.0602
 9187W        W25081   4.952  13.358   4.072 -0.0386  0.4294 -0.0069
 9188W        W25082  10.242   3.681  15.863  0.1550  0.0398 -0.2115
 9189W        W25083  16.564   4.252  15.177  0.3174  0.2011  0.2224
 9190W        W25084   2.138  11.533   5.194 -0.1978 -0.0061 -0.1776
 9191W        W25085   0.015  12.523   3.534  0.1753  0.2830  0.0114
 9192W        W25086  16.727   9.772   4.884 -0.2763  0.0069 -0.3122
 9193W        W25087  13.058   9.091   0.879 -0.1163 -0.0417 -0.0017
 9194W        W25088   0.819  12.195   4.326  0.0677 -0.1321 -0.1578
 9195W        W25089   1.099   0.616  11.962 -0.4600  0.0354 -0.0493
 9196W        W25090   0.124   8.029   5.028  0.0597 -0.1522  0.2135
 9197W        W25091  16.506  15.612  13.882  0.1843 -0.0894 -0.1938
 9198W        W25092  12.157   7.058  14.637  0.0354 -0.1232 -0.1620
 9199W        W25093  13.272  13.751   1.005 -0.0752  0.2146  0.1642
 9200W        W25094   0.672   0.846   1.251 -0.5509  0.4275  0.3918
 9201W        W25095  11.254   3.533   5.293  0.1263 -0.1794 -0.2505
 9202W        W25096  16.807  14.703  15.512 -0.1807 -0.0999  0.0199
 9203W        W25097  10.200  14.968  12.456  0.1073  0.1750 -0.4248
 9204W        W25098   8.102   6.080   4.471  0.3099 -0.3976  0.4151
 9205W        W25099   9.777   2.546  13.520  0.1198 -0.0026 -0.0382
 9206W        W25100   5.189   5.654  13.857 -0.0927  0.2737 -0.1141
 9207W        W25101   7.425   2.891  10.682  0.1011 -0.0924 -0.1582
 9208W        W25102   7.919   1.704  15.275 -0.0519  0.1050  0.0781
 9209W        W25103   4.147   9.468  11.545 -0.4216 -0.0217  0.0189
 9210W        W25104  10.417   4.346   4.675 -0.1160 -0.1396 -0.2132
 9211W        W25105  15.654   5.857   0.936 -0.0355 -0.1438 -0.1933
 9212W        W25106   8.838   8.025   2.008 -0.0378  0.1324 -0.0293
 9213W        W25107   3.456   5.946  12.333  0.0229 -0.0590 -0.3402
 9214W        W25108   6.041  16.863   1.998 -0.1442 -0.0678  0.2634
 9215W        W25109  11.169  17.637   0.608 -0.2145 -0.1064 -0.1835
 9216W        W25110  17.359   3.489  13.328  0.1171  0.5232  0.3623
 9217W        W25111  10.739   9.776  14.515  0.0517  0.3862  0.1919
 9218W        W25112  15.780   8.382  14.092  0.1563 -0.1047 -0.2835
 9219W        W25113   7.805  17.914   3.752  0.0363  0.0380  0.1041
 9220W        W25114  11.869  16.730   1.153  0.3979  0.0670 -0.0286
 9221W        W25115  17.116   6.432  12.438  0.4668  0.1192  0.2849
 9222W        W25116  14.224   9.022   4.031  0.0348 -0.0594  0.2375
 9223W        W25117  14.587   3.305  13.473 -0.0179  0.2030 -0.2511
 9224W        W25118  16.146   6.449   5.518 -0.0413  0.0504  0.1216
 9225W        W25119   7.838   8.668   2.827  0.0150 -0.0899  0.2065
 9226W        W25120  11.433  17.574  11.616 -0.0693  0.1214  0.1329
 9227W        W25121   5.016  15.114   2.229  0.1436 -0.0746 -0.1694
 9228W        W25122  14.663   7.226   5.485 -0.1320 -0.0405  0.1031
 9229W        W25123  17.402   3.112   4.651 -0.0378 -0.2495 -0.0248
 9230W        W25124  11.051  16.045   5.782  0.1259  0.1036  0.2414
 9231W        W25125   9.964  17.828  13.562 -0.0659 -0.1080  0.2695
 9232W        W25126   8.783  14.905   3.729 -0.0563 -0.2253  0.0974
 9233W        W25127   7.091  14.584   3.455  0.0752 -0.0091 -0.1590
 9234W        W25128   1.101  17.747   0.461  0.0050 -0.0093 -0.6002
 9235W        W25129  13.855  17.701   2.535  0.2237  0.0558 -0.1214
 9236W        W25130  14.309  14.984   4.067 -0.1384  0.2015 -0.0184
 9237W        W25131  17.890   7.115   2.065  0.3112  0.1583 -0.0797
 9238W        W25132   5.514  16.682   1.894 -0.1018  0.2087  0.3644
 9239W        W25133   0.701   3.833   2.991 -0.0284  0.1359 -0.5055
 9240W        W25134   3.951   7.486   4.099 -0.0782 -0.2780 -0.2546
 9241W        W25135  16.989   9.176   0.647 -0.0022 -0.1539  0.2197
 9242W        W25136  14.120  14.028   3.362  0.2112  0.1129 -0.0635
 9243W        W25137   7.582  17.825   1.932 -0.1837  0.0371 -0.0392
 9244W        W25138   9.923  14.784   0.470  0.0465  0.1946 -0.0191
 9245W        W25139   8.880   5.212  15.342  0.1626  0.0093 -0.1056
 9246W        W25140   3.636   4.960  11.095  0.1152 -0.0888  0.3601
 9247W        W25141   3.513  17.586  14.503 -0.2589 -0.3903 -0.2045
 9248W        W25142  10.082  13.569  14.753 -0.0190  0.1012  0.2615
 9249W        W25143  12.150  10.793  15.172  0.0228 -0.3473  0.3899
 9250W        W25144   0.512   2.077  13.346 -0.4159 -0.2438 -0.1691
 9251W        W25145   6.205  15.485  15.578 -0.1533  0.0706  0.2628
 9252W        W25146   0.062  18.416   1.153  0.2931  0.3425  0.0140
 9253W        W25147   5.381   9.455  14.758 -0.2734 -0.0586 -0.0829
 9254W        W25148  18.374  14.905   0.551 -0.1052 -0.0100  0.1118
 9255W        W25149  11.898  14.063  11.271 -0.0994  0.1390 -0.2327
 9256W        W25150   1.887   6.127  11.291  0.1861  0.2621  0.0913
 9257W        W25151   0.258  10.350  15.488  0.4336 -0.0497  0.0805
 9258W        W25152  15.164  14.476   1.696 -0.0324  0.2080 -0.2375
 9259W        W25153   2.998   5.866   5.008 -0.2248  0.1114  0.1420
 9260W        W25154  13.014  14.700   3.524  0.1622  0.1875 -0.0886
 9261W        W25155   5.137   1.827  14.274 -0.0408  0.0580  0.0754
 9262W        W25156  14.983   6.398   5.278  0.1634 -0.2549  0.0874
 9263W        W25157  17.674   5.018  11.813 -0.1786  0.2041 -0.1948
 9264W        W25158  15.551   6.466  11.313  0.1835 -0.3976  0.0863
 9265W        W25159   1.707  12.134   3.290  0.0172  0.0505  0.0154
 9266W        W25160  16.380  16.937  15.273  0.0050 -0.1729  0.0150
 9267W        W25161   2.404  13.970  10.640 -0.0221  0.4320 -0.0080
 9268W        W25162  12.992   5.946   3.167  0.3147 -0.2983  0.2640
 9269W        W25163   1.212  10.162   5.718  0.0337  0.0559  0.3270
 9270W        W25164   1.911  17.058   1.459  0.2780 -0.0852  0.0119
 9271W        W25165  10.949   5.540   3.356  0.0195 -0.3597  0.0526
 9272W        W25166   3.416   1.562  15.571 -0.2389 -0.1302 -0.3715
 9273W        W25167   7.193   0.352  12.841 -0.2550 -0.0460  0.0168
 9274W        W25168   0.632   8.693  13.899 -0.0827 -0.0433 -0.1331
 9275W        W25169  15.833  13.474  15.847 -0.0765 -0.4240  0.0970
 9276W        W25170  12.992   5.778  15.774  0.1410 -0.2830  0.0160
 9277W        W25171   3.631  14.423  11.236  0.0907 -0.0899  0.0016
 9278W        W25172   3.902   5.558   3.307  0.0963  0.1973 -0.0811
 9279W        W25173   6.020  17.850   0.570  0.0304 -0.0198  0.3114
 9280W        W25174   7.991   6.534  15.812  0.5161  0.1249  0.1237
 9281W        W25175   4.476  14.920   1.153 -0.0298 -0.1166  0.2108
 9282W        W25176  14.425  18.084   3.010  0.1592 -0.2045  0.3051
 9283W        W25177   3.453  10.201   0.417 -0.0787 -0.0949 -0.1193
 9284W        W25178  18.051  18.386  11.483  0.2305 -0.0144  0.2187
 9285W        W25179   2.106  17.132   2.961 -0.0926 -0.1128  0.3783
 9286W        W25180   0.758  17.232  15.944  0.3473 -0.1269  0.0869
 9287W        W25181   2.373  16.985  13.588  0.1592 -0.1879  0.3567
 9288W        W25182   6.823  18.003   1.638 -0.1067 -0.1237 -0.0004
 9289W        W25183  16.259  15.354   4.872 -0.1297 -0.1737 -0.0585
 9290W        W25184  18.292  18.345  11.892  0.2079 -0.1673 -0.1554
 9291W        W25185   2.711   4.685   2.818 -0.1356 -0.1154  0.0814
 9292W        W25186  15.529   7.268   4.313  0.1346 -0.1822 -0.1188
 9293W        W25187   4.781  17.923   1.765  0.2796  0.1014 -0.0978
 9294W        W25188   9.836  16.659   3.962 -0.0316  0.3275 -0.1747
 9295W        W25189  10.011  10.880  10.809  0.2076  0.1304  0.2939
 9296W        W25190   1.409  10.290   0.624  0.1645 -0.4458  0.2246
 9297W        W25191   5.841  11.144   1.778  0.1128  0.1022 -0.0411
 9298W        W25192   2.379   6.721   5.263  0.2348 -0.2079 -0.0006
 9299W        W25193   9.200   8.029   1.410  0.1837  0.0704 -0.1691
 9300W        W25194  10.021  15.130   1.659  0.2328  0.1337  0.1735
 9301W        W25195   7.664  17.888   4.897  0.3963  0.0977  0.2421
 9302W        W25196  10.677  13.837  12.379  0.0826 -0.2244  0.0336
 9303W        W25197   4.119  10.920   0.892  0.1539  0.0582  0.1665
 9304W        W25198  17.565  15.039   4.631  0.2465  0.0005 -0.2347
 9305W        W25199  10.477   3.162   1.795  0.2102  0.3469  0.0947
 9306W        W25200  16.324   1.690   1.161 -0.0944  0.1318  0.1608
 9307W        W25201  11.327   7.411   3.777  0.1059  0.1771  0.2517
 9308W        W25202  16.261   4.769   4.094 -0.0934 -0.2171 -0.0099
 9309W        W25203   4.171   5.051   2.404 -0.2110 -0.0563  0.3476
 9310W        W25204   3.147   6.505   0.151  0.3797  0.1211  0.0647
 9311W        W25205  12.377   1.313   5.233  0.1690 -0.1741  0.0609
 9312W        W25206   3.667   6.615  11.005 -0.0346  0.3867 -0.1096
 9313W        W25207  13.392  14.834   4.534  0.1589  0.2763  0.1235
 9314W        W25208  13.771  15.705   4.426  0.1986 -0.3259 -0.0382
 9315W        W25209  14.157   9.667  15.649  0.1022  0.1356 -0.2093
 9316W        W25210   3.824   4.322  15.178  0.0909 -0.1753 -0.1448
 9317W        W25211  12.372   9.761  13.742  0.0875 -0.0561 -0.3123
 9318W        W25212   1.095  16.032  13.819 -0.0366  0.0192 -0.3147
 9319W        W25213   3.982   4.831  11.552  0.0036  0.1199 -0.0518
 9320W        W25214   9.584  11.781   1.414 -0.1378 -0.1363  0.1167
 9321W        W25215  16.245  16.897  12.171  0.1883 -0.0751  0.2048
 9322W        W25216   3.271   8.135   2.474  0.2326 -0.2680  0.0706
 9323W        W25217  12.018   6.655   6.292  0.0235  0.0037 -0.0096
 9324W        W25218  16.699   3.790   3.644 -0.0521 -0.4884  0.0350
 9325W        W25219   9.903   5.340  11.077  0.0806  0.0103 -0.0769
 9326W        W25220  11.440  12.598  15.279 -0.2853 -0.0647 -0.1151
 9327W        W25221  14.466  16.754   0.040 -0.0042  0.0992  0.3913
 9328W        W25222   1.347  14.129   5.116 -0.0900  0.0487  0.2266
 9329W        W25223  11.615   1.291  10.925 -0.3992  0.1573  0.0712
 9330W        W25224  13.255   6.662   3.641  0.1839  0.1545 -0.2363
 9331W        W25225  11.487  15.742  13.445  0.1551  0.1568 -0.1569
 9332W        W25226   2.523  10.848  13.857 -0.3067 -0.0266 -0.1560
 9333W        W25227  11.944   1.798   2.932 -0.0827  0.1733 -0.0055
 9334W        W25228   3.246  10.465   3.720  0.1136 -0.1917  0.0283
 9335W        W25229  18.250  15.512  13.728  0.2172 -0.1472 -0.0179
 9336W        W25230   2.136   4.874   3.700 -0.1873  0.0084 -0.1578
 9337W        W25231   8.325   4.034   1.858  0.2612 -0.0065  0.2747
 9338W        W25232  16.935  16.717  14.786 -0.1528 -0.1777  0.1407
 9339W        W25233   3.675   3.908  14.440  0.0339  0.1463  0.1204
 9340W        W25234   3.999   9.595  11.984  0.3843 -0.2718  0.3100
 9341W        W25235   4.809   9.946  13.635  0.0051 -0.1999  0.1944
 9342W        W25236   7.655  17.406  15.987  0.0385  0.3019  0.0337
 9343W        W25237  11.094   8.944  14.242 -0.5721  0.3099 -0.1777
 9344W        W25238   9.054   9.058  14.878 -0.1546  0.3735 -0.0052
 9345W        W25239  12.628   9.025  11.688  0.1169 -0.1494  0.2867
 9346W        W25240   2.821   6.633  12.428 -0.3486 -0.0154 -0.3820
 9347W        W25241   2.157  12.408  14.896 -0.1595 -0.2174 -0.0968
 9348W        W25242  10.428   9.837  12.443  0.1966  0.0302 -0.2134
 9349W        W25243   2.565  10.108   3.067 -0.0053 -0.2262 -0.0197
 9350W        W25244   5.164  15.033  14.741  0.2165 -0.1311  0.1212
 9351W        W25245   8.490   7.874   5.050 -0.0022 -0.2332  0.1421
 9352W        W25246  15.205  11.465  13.801  0.0344  0.1053  0.1477
 9353W        W25247   9.488  11.337  15.293 -0.1705  0.1430  0.0911
 9354W        W25248   2.507  12.952   3.838 -0.0123  0.0200  0.2658
 9355W        W25249  10.325   0.594   4.070  0.1511 -0.3842 -0.2988
 9356W        W25250  16.280  12.462  14.279  0.1225 -0.0342  0.2230
 9357W        W25251  11.550  10.386  12.143  0.2037 -0.0344 -0.0882
 9358W        W25252   4.365   7.811   5.359 -0.0275  0.1541 -0.3047
 9359W        W25253  14.213   3.064  14.413 -0.2180  0.0045  0.6980
 9360W        W25254  13.670  15.518  12.675 -0.1839  0.0866  0.1808
 9361W        W25255   2.501  12.357   4.788 -0.0242 -0.1171  0.0555
 9362W        W25256  15.906   8.489  12.709  0.4177  0.0940 -0.0805
 9363W        W25257  16.544  10.489   0.498 -0.2096 -0.2733  0.0152
 9364W        W25258  12.040  14.507  11.569 -0.0278  0.0640  0.1769
 9365W        W25259   3.162  18.310   3.218  0.0950  0.0069  0.2182
 9366W        W25260  17.151  13.255   5.087 -0.3387 -0.1556 -0.0190
 9367W        W25261  17.844  14.226   4.312 -0.2846  0.2337  0.1615
 9368W        W25262  14.888   8.977   3.722 -0.2454 -0.1615  0.2180
 9369W        W25263  15.030   2.486  13.294 -0.1579  0.1879 -0.1500
 9370W        W25264  18.289  12.995   2.309 -0.1775  0.0502  0.0990
 9371W        W25265   1.072   9.906  15.073 -0.1564 -0.2653  0.1708
 9372W        W25266   1.157   4.021   5.157 -0.2894  0.0322 -0.1288
 9373W        W25267   8.453  10.804   3.997  0.0747 -0.0380 -0.1424
 9374W        W25268  14.085   9.445   4.323 -0.0113 -0.1042 -0.2066
 9375W        W25269   2.644   9.177  15.585  0.0397 -0.0406  0.2602
 9376W        W25270   3.536  13.866  15.860  0.2778 -0.3946  0.0799
 9377W        W25271   8.201   0.731  11.996 -0.0589  0.3447  0.0218
 9378W        W25272  13.789   2.646   1.563  0.2514  0.1220 -0.0406
 9379W        W25273  13.114  11.441  12.778 -0.1727 -0.0415  0.2454
 9380W        W25274   3.279  14.545   5.150 -0.1121 -0.1191 -0.3002
 9381W        W25275  13.217   7.687  11.867 -0.2172 -0.1643  0.4927
 9382W        W25276   8.103  12.632   3.361 -0.0111 -0.0797  0.0735
 9383W        W25277  10.178   8.477  10.169  0.0672  0.0813  0.0398
 9384W        W25278  17.113  14.645   2.771  0.1952 -0.0086  0.1078
 9385W        W25279  12.291  12.773   1.602  0.0722 -0.1908 -0.2531
 9386W        W25280  18.341  15.560   2.750 -0.2998 -0.1059  0.0113
 9387W        W25281   5.047  14.910   3.222  0.1525 -0.1850  0.1597
 9388W        W25282   0.981   7.295   3.703  0.1106 -0.1061  0.2137
 9389W        W25283  17.760   2.212  13.309 -0.1442  0.0818  0.0753
 9390W        W25284   6.381  17.406  11.938 -0.0493 -0.0969 -0.2244
 9391W        W25285  10.092   6.150  14.088 -0.2699  0.2980 -0.0544
 9392W        W25286   9.997  12.373  13.343  0.2380  0.3679  0.2429
 9393W        W25287  13.368  10.773   3.382 -0.1900  0.0029  0.1928
 9394W        W25288   2.676  18.464   3.293  0.4097  0.2169 -0.1266
 9395W        W25289  14.369   0.215   3.985 -0.0849  0.1872  0.2466
 9396W        W25290  12.458   1.951  11.604  0.2668 -0.0358 -0.2691
 9397W        W25291  13.408   1.320   3.544  0.1432  0.2104 -0.0665
 9398W        W25292  12.905   0.178   4.288 -0.0172 -0.1661 -0.0000
 9399W        W25293   5.459   3.223   1.421  0.4174  0.0061 -0.1595
 9400W        W25294   1.552  15.895  14.704 -0.1852  0.1370 -0.0161
 9401W        W25295   7.799  15.212   3.378 -0.1317  0.1970 -0.1453
 9402W        W25296   0.311   1.214  12.071  0.2586 -0.0516  0.0649
 9403W        W25297  13.110   2.621  12.710 -0.0322 -0.4138  0.2371
 9404W        W25298  15.796   8.700   1.119 -0.3064  0.2424  0.0222
 9405W        W25299   9.582  12.226   0.001 -0.1036 -0.0416 -0.0420
 9406W        W25300   9.340   0.340   3.190  0.1280  0.0372  0.0875
 9407W        W25301  13.337   0.507   1.628 -0.0918  0.1464 -0.0683
 9408W        W25302  10.565   1.000   5.065 -0.2224 -0.1108 -0.0437
 9409W        W25303   4.839   1.113  11.193 -0.3059  0.2311  0.1516
 9410W        W25304   8.302  10.145   3.076 -0.2753 -0.3458 -0.1723
 9411W        W25305  18.055   1.948   5.197 -0.1242  0.3083 -0.2732
 9412W        W25306   2.571  11.287  13.003  0.1469  0.0230  0.1499
 9413W        W25307   4.566   9.622  11.312  0.4705  0.1624  0.0617
 9414W        W25308   3.986  15.943   1.716  0.0624  0.1919 -0.1156
 9415W        W25309   9.255  13.384   0.303 -0.0795  0.2699  0.1244
 9416W        W25310   0.767  13.902   4.729 -0.2023  0.3035  0.0756
 9417W        W25311  18.227   8.162   4.689 -0.1807 -0.0546  0.1063
 9418W        W25312   5.649   2.577   2.376  0.0107  0.3073  0.0427
 9419W        W25313   2.048   5.099   1.794 -0.1339  0.1512  0.4186
 9420W        W25314   1.117   3.982   4.302  0.1422  0.1776  0.1476
 9421W        W25315   6.965   2.669   3.074  0.0184 -0.2183  0.0070
 9422W        W25316  10.452   0.280  13.678 -0.1617  0.0016 -0.1528
 9423W        W25317   5.957  17.344   1.423  0.2620  0.0966  0.1867
 9424W        W25318   2.181   7.774   5.442  0.4650  0.0492 -0.0627
 9425W        W25319  12.471   5.283  13.854 -0.3899 -0.0116  0.2111
 9426W        W25320  12.053  13.218   3.386  0.0602  0.1518 -0.0928
 9427W        W25321   3.773  15.680  12.379  0.2596  0.1076  0.0960
 9428W        W25322  18.405   7.211   2.129 -0.1360  0.3516 -0.2669
 9429W        W25323  10.908   0.545  13.333 -0.1847  0.2244 -0.1547
 9430W        W25324  15.922   6.549  12.880 -0.1497 -0.1024 -0.2057
 9431W        W25325   6.484   3.041   1.064  0.0201 -0.0948  0.0514
 9432W        W25326   6.190   5.202  14.562 -0.0185  0.1182  0.1623
 9433W        W25327  18.163   9.323  12.363  0.1351 -0.1079 -0.1284
 9434W        W25328   4.810  12.300  12.238  0.1542  0.0056  0.3989
 9435W        W25329  10.074   2.250  10.581  0.1351 -0.0062 -0.0059
 9436W        W25330   0.287   2.837  15.381 -0.0959  0.0781 -0.0988
 9437W        W25331   3.007   7.745   6.005  0.0708 -0.2180  0.1716
 9438W        W25332   5.045   4.972   0.372 -0.0547 -0.3164 -0.0546
 9439W        W25333  15.806   7.438  15.093 -0.1752 -0.0371 -0.1394
 9440W        W25334   4.388   4.702  13.513 -0.2368 -0.1876 -0.0979
 9441W        W25335   3.446  14.238   1.323 -0.3642  0.0998 -0.0170
 9442W        W25336  10.721   9.083  12.979 -0.0530 -0.0085 -0.1771
 9443W        W25337  14.823  16.180   4.981 -0.0294  0.1371 -0.0186
 9444W        W25338   9.201   7.396  13.338  0.2145 -0.0528  0.2863
 9445W        W25339  15.649  13.252   3.963 -0.2055 -0.1412  0.1946
 9446W        W25340  10.535   2.405  11.115 -0.0163  0.1040 -0.0933
 9447W        W25341  11.579  18.262   1.697 -0.2275  0.0885 -0.3661
 9448W        W25342  15.674   4.258  12.161  0.1394  0.1437 -0.0874
 9449W        W25343  10.294  18.087  15.618 -0.1317 -0.0521  0.0490
 9450W        W25344   0.836   9.158   5.861 -0.0989 -0.1665 -0.1312
 9451W        W25345  17.326   5.847  14.618  0.0014  0.0203 -0.0750
 9452W        W25346   9.225  14.807  15.979 -0.1407 -0.0507  0.2753
 9453W        W25347   8.912   5.930   1.168 -0.2940 -0.0535  0.2374
 9454W        W25348   6.447  17.121  12.852 -0.0438  0.1406  0.2600
 9455W        W25349  10.798  11.605  10.843 -0.2401  0.2702  0.0522
 9456W        W25350   4.654   6.030  15.508  0.1931 -0.2419  0.0078
 9457W        W25351   4.420  14.922  15.800 -0.0207  0.2547 -0.1865
 9458W        W25352  10.637  12.787   1.667  0.1327  0.0242  0.0851
 9459W        W25353   8.396   9.004   1.561  0.1334  0.1844  0.0351
 9460W        W25354  13.838   6.542  14.858 -0.4976  0.1233 -0.0336
 9461W        W25355   1.244  10.312   3.209  0.1551  0.1133  0.2352
 9462W        W25356   8.060   7.147  15.222  0.4106  0.0164 -0.0137
 9463W        W25357   0.982   3.585  13.564 -0.0812 -0.1044 -0.0685
 9464W        W25358   1.971  13.670   3.515 -0.1825 -0.0361  0.1616
 9465W        W25359  13.463  15.444   2.842  0.0801  0.1119 -0.1822
 9466W        W25360   0.077  14.089  13.366 -0.0127  0.2617 -0.2081
 9467W        W25361  10.668  17.644  12.438 -0.3006  0.0420  0.1330
 9468W        W25362  13.201  14.244   1.057 -0.0141 -0.0870  0.3211
 9469W        W25363   0.737   8.547   4.700  0.1055  0.0318 -0.0418
 9470W        W25364   8.261  15.124  12.803 -0.3640  0.4143  0.2923
 9471W        W25365   0.997  15.846  11.461 -0.6317 -0.0088  0.0701
 9472W        W25366  11.122   3.269  16.126  0.0231 -0.2740  0.1585
 9473W        W25367  10.430   0.862   4.559  0.0863  0.1808  0.2635
 9474W        W25368   0.980   0.058   1.741 -0.2660 -0.3439  0.2858
 9475W        W25369  13.595   5.343  13.274 -0.1716 -0.0286 -0.0919
 9476W        W25370   8.789  12.108  15.492 -0.0446  0.3825 -0.1462
 9477W        W25371   3.782   0.990  13.588 -0.1310 -0.0195  0.0142
 9478W        W25372  12.509   2.530   5.480  0.0642  0.2462  0.3347
 9479W        W25373  10.219  15.164   0.720  0.0428  0.2399  0.1526
 9480W        W25374   5.268   7.049  11.949  0.0336 -0.1380 -0.2215
 9481W        W25375   0.645  17.016   1.464 -0.1871 -0.1091 -0.1469
 9482W        W25376   8.961   0.852  12.415 -0.2478 -0.3077 -0.1327
 9483W        W25377  10.123  15.466  12.464 -0.2052  0.3368 -0.1262
 9484W        W25378   0.817  15.769  13.393 -0.0279  0.1175 -0.0249
 9485W        W25379   7.446  17.012   2.725  0.0690  0.2261  0.2124
 9486W        W25380   9.289   3.773  11.344  0.0878 -0.2655 -0.5531
 9487W        W25381   4.776  12.464   4.120  0.1080  0.4115  0.1583
 9488W        W25382  13.448  12.418   3.979  0.1230  0.0484  0.5360
 9489W        W25383  15.704   5.704   5.422  0.2507 -0.0573 -0.1385
 9490W        W25384   5.636  16.369  15.984 -0.2656 -0.1604  0.2421
 9491W        W25385   3.846   1.530   2.528 -0.0947 -0.2166 -0.1756
 9492W        W25386   9.408  14.676   4.122 -0.2093  0.0860  0.1306
 9493W        W25387  10.060  17.529   3.121 -0.0735  0.3390 -0.1997
 9494W        W25388   6.319  14.916   1.012  0.0299  0.0169 -0.0329
 9495W        W25389   2.520  13.719  11.682  0.3181  0.0136 -0.1756
 9496W        W25390   8.164  18.409  15.307  0.0605 -0.0325 -0.2732
 9497W        W25391   3.327  11.314   1.329  0.0348 -0.3291 -0.2876
 9498W        W25392   5.791  13.199   1.505  0.0701 -0.0984 -0.0297
 9499W        W25393  10.717   5.393  14.429 -0.5257 -0.0433 -0.1104
 9500W        W25394  10.139   7.812   2.840  0.0306  0.3126 -0.1466
 9501W        W25395   6.535  11.661  15.608  0.0035  0.0215  0.0671
 9502W        W25396   0.209   2.516   3.818  0.0469 -0.3015  0.1218
 9503W        W25397   3.078  14.782   3.613  0.1468  0.0508 -0.0745
 9504W        W25398   9.728   6.960  11.636  0.1729 -0.2974 -0.2000
 9505W        W25399   5.653   8.119   2.646 -0.0670 -0.2814  0.2620
 9506W        W25400  14.219   8.736  12.464 -0.1083  0.4570 -0.3021
 9507W        W25401   8.331  16.277   2.081 -0.0226 -0.3223  0.2274
 9508W        W25402  14.311  12.984  12.994 -0.0479  0.0092 -0.3093
 9509W        W25403  11.451   2.075  14.965 -0.0737 -0.1632 -0.3177
 9510W        W25404  12.986   2.993  11.760 -0.0085 -0.1417  0.2395
 9511W        W25405   9.487   7.294   5.541  0.1545  0.0027 -0.1079
 9512W        W25406  12.546  11.855   3.576 -0.3839 -0.0778 -0.1592
 9513W        W25407  17.262   2.619   2.962 -0.0103 -0.2891 -0.1339
 9514W        W25408   7.608   8.316  10.781  0.0498 -0.1356  0.0444
 9515W        W25409   1.308  13.073   5.223 -0.1940  0.1129  0.0117
 9516W        W25410   3.114   0.951   0.764 -0.2629  0.0080 -0.1552
 9517W        W25411   8.614   2.453  15.949 -0.2341 -0.0704 -0.0218
 9518W        W25412   5.445  17.950  12.975 -0.1620  0.1282 -0.0056
 9519W        W25413   7.287   1.234  13.209 -0.0516 -0.0492 -0.0795
 9520W        W25414  11.966  12.565   3.428 -0.0549 -0.3263  0.1172
 9521W        W25415   3.413   4.954   0.403 -0.2328 -0.1184  0.3547
 9522W        W25416  17.818   0.335  13.726 -0.1337 -0.3102  0.0880
 9523W        W25417  13.478   1.909   5.732  0.2370 -0.2079  0.0096
 9524W        W25418  13.237   7.574   3.188 -0.1150  0.4635 -0.0453
 9525W        W25419   7.520  11.780  10.753  0.1519 -0.0341 -0.3035
 9526W        W25420  17.969  13.156   4.779  0.0185 -0.1723  0.0739
 9527W        W25421  14.319  14.232  11.245 -0.1053  0.0629 -0.4121
 9528W        W25422   4.667  15.814  12.349  0.3077  0.0173  0.0335
 9529W        W25423  10.472   8.884  16.107 -0.4387  0.0514 -0.2361
 9530W        W25424   6.068   8.570  12.259  0.1326  0.0712  0.1910
 9531W        W25425  12.354  16.497  13.304 -0.1102 -0.2365  0.2379
 9532W        W25426  15.315   2.504  12.541 -0.1044 -0.3007 -0.0672
 9533W        W25427   7.363   7.083  11.161 -0.3471  0.2727 -0.1884
 9534W        W25428  13.098   1.775   5.104  0.2686  0.3079  0.1346
 9535W        W25429  14.706  13.296   3.219  0.2284  0.0079 -0.0956
 9536W        W25430   7.358   2.604   0.632  0.0711  0.1258  0.3826
 9537W        W25431   0.401   7.044   4.851  0.2965  0.0663  0.3330
 9538W        W25432   7.221   1.237  11.482  0.3791 -0.0143 -0.2590
 9539W        W25433   7.034   8.271   5.062 -0.0640  0.2444 -0.3221
 9540W        W25434   6.277   0.488   2.409 -0.0001 -0.2516  0.0721
 9541W        W25435   3.299  12.838  11.985  0.0502  0.0150 -0.2587
 9542W        W25436   9.354  13.411   2.575 -0.2806  0.2408 -0.0932
 9543W        W25437   1.440   3.693  13.298 -0.0003  0.0754 -0.0596
 9544W        W25438  17.681   4.211   0.571 -0.1856  0.0870  0.0025
 9545W        W25439   6.769   8.460   1.513 -0.0698  0.0605  0.1904
 9546W        W25440  13.375  10.241  12.651  0.1154 -0.2017  0.5164
 9547W        W25441  14.197   2.416  11.733 -0.0351  0.1071 -0.1577
 9548W        W25442  10.648  14.513  11.366  0.2696 -0.0889 -0.3377
 9549W        W25443  13.300  14.758  10.293 -0.1307 -0.1801  0.1704
 9550W        W25444  13.333   6.508   1.114 -0.1562 -0.0276 -0.4494
 9551W        W25445  15.100  10.448  12.560  0.0890  0.1197  0.0267
 9552W        W25446   1.332  10.970  11.693 -0.0798 -0.0847 -0.2694
 9553W        W25447   9.831  18.302  12.477 -0.0761 -0.1735  0.0655
 9554W        W25448  12.696  11.305   5.687 -0.0897 -0.1324  0.0275
 9555W        W25449  10.687  14.966  13.227  0.0268 -0.0715  0.3250
 9556W        W25450  15.617   5.372   5.003  0.0839  0.0513 -0.1468
 9557W        W25451  18.172   8.131   1.978  0.1878 -0.6544 -0.4271
 9558W        W25452   6.975  12.842  14.128 -0.2360 -0.0693  0.2334
 9559W        W25453  12.768  16.544  15.515  0.1265  0.0944 -0.0956
 9560W        W25454   9.707  12.221   0.780  0.1029 -0.0595  0.0857
 9561W        W25455   7.084   0.009  13.955  0.0962 -0.1851 -0.0640
 9562W        W25456   6.359   6.587   1.293 -0.0935 -0.0759 -0.0693
 9563W        W25457  11.946   4.257   4.541  0.1398 -0.0729  0.1541
 9564W        W25458  13.258   8.565   2.296 -0.1705 -0.0208  0.0079
 9565W        W25459  17.419   9.051  16.011  0.2046  0.1939 -0.1402
 9566W        W25460   9.096  10.240   4.577 -0.4174 -0.1414  0.0692
 9567W        W25461   9.755  16.659  11.072  0.1171 -0.0591 -0.2403
 9568W        W25462   4.179  17.499  10.995 -0.1424  0.3013  0.2531
 9569W        W25463  16.587   2.149   1.813  0.2130  0.5058 -0.0342
 9570W        W25464   8.934   0.729   4.233  0.2787  0.1229  0.1812
 9571W        W25465   4.134  14.635   0.808  0.2538 -0.1097 -0.2508
 9572W        W25466  14.334   4.923   0.624 -0.0851 -0.0051  0.0720
 9573W        W25467  13.482  12.046   4.904 -0.2789  0.0190 -0.2054
 9574W        W25468   9.016  10.817  11.960  0.0878 -0.0056  0.0591
 9575W        W25469   7.553  14.346  13.840 -0.1016  0.0801  0.0325
 9576W        W25470  16.448   8.753  12.221  0.1370  0.0754  0.0515
 9577W        W25471   2.985  10.456   5.806  0.3569  0.0221  0.1299
 9578W        W25472  13.548  12.286  13.130  0.1430  0.1745  0.0664
 9579W        W25473  13.015  14.387   2.170 -0.0468 -0.1243 -0.0186
 9580W        W25474   3.875  14.069   2.214  0.1669 -0.0122  0.1374
 9581W        W25475   7.676   8.826  11.086 -0.2684  0.0676  0.1616
 9582W        W25476   7.744  15.306  15.552 -0.0499 -0.5996  0.4330
 9583W        W25477   9.749  15.356   4.519 -0.0955 -0.4029 -0.0323
 9584W        W25478   7.540   4.002  13.367 -0.0368  0.0313 -0.4491
 9585W        W25479   0.907  10.601  12.649  0.1157  0.0030  0.2324
 9586W        W25480   3.207  10.020   5.854 -0.2028 -0.1695 -0.0965
 9587W        W25481   3.940   9.994  11.476  0.0037 -0.0499 -0.6458
 9588W        W25482  17.060   4.220  13.821  0.0050 -0.1865  0.2058
 9589W        W25483   9.567   4.818   4.226 -0.0672  0.2654  0.0794
 9590W        W25484  14.745   2.844   1.276 -0.1700 -0.1023 -0.0027
 9591W        W25485   0.338  14.903   0.719  0.3500  0.2276  0.0621
 9592W        W25486   3.242  17.215   2.529 -0.2975  0.1879 -0.0981
 9593W        W25487   0.633  12.265  14.389 -0.0422  0.2667 -0.0334
 9594W        W25488  17.670   2.524  13.874  0.0588  0.2894 -0.2020
 9595W        W25489  14.527  15.569  10.985  0.1699  0.0311  0.1192
 9596W        W25490  17.341   8.059  15.952 -0.1387  0.1672 -0.2278
 9597W        W25491   0.054  11.347   0.748 -0.1012 -0.1557 -0.0086
 9598W        W25492   7.997  16.540   3.251  0.0446  0.2884  0.1941
 9599W        W25493  13.005  13.963  15.982 -0.1348 -0.1768 -0.2063
 9600W        W25494  15.144   3.630  11.947  0.1823 -0.1971 -0.1168
 9601W        W25495   2.149   9.566   3.928  0.1456  0.0675  0.1501
 9602W        W25496   6.243   4.003   2.859  0.0167  0.1667 -0.1493
 9603W        W25497  11.805   2.073  13.146 -0.0869 -0.2215  0.0281
 9604W        W25498  10.080  13.313   1.551  0.0777  0.1256 -0.1419
 9605W        W25499   5.804  15.832  15.533  0.2276 -0.3061  0.0937
 9606W        W25500  11.238   5.931  14.804  0.0959  0.1770 -0.1680
 9607W        W25501   3.963  12.721   4.739  0.0668 -0.1065 -0.0431
 9608W        W25502  15.218  12.028  11.904 -0.1862  0.2272 -0.1018
 9609W        W25503   7.963  10.112   2.109  0.2567 -0.0730 -0.0182
 9610W        W25504   4.785   7.072   0.843  0.1008  0.2564 -0.0521
 9611W        W25505   7.901  12.821   2.113  0.2367 -0.3542 -0.0601
 9612W        W25506  10.453  13.534   2.898  0.0711  0.0113  0.1273
 9613W        W25507   4.400   9.957  12.785 -0.0046  0.0878  0.1710
 9614W        W25508  11.371  16.674  11.750 -0.1589  0.3773 -0.2280
 9615W        W25509   8.010  13.227   1.133  0.2365 -0.1395  0.1857
 9616W        W25510  14.471  16.444  13.912 -0.0035  0.1977 -0.1862
 9617W        W25511  16.933   3.591   4.037  0.2088 -0.1521 -0.1928
 9618W        W25512  17.124   0.882   1.944  0.2384 -0.2794 -0.0615
 9619W        W25513  11.243   8.268   5.648 -0.1426 -0.3899  0.2232
 9620W        W25514   3.111  10.738  15.877 -0.1030 -0.0288  0.0231
 9621W        W25515  13.218   3.440   1.775  0.2653  0.1729  0.3909
 9622W        W25516  12.556   0.121   4.661 -0.0795 -0.6312 -0.1086
 9623W        W25517  16.576   2.093  12.536 -0.2033  0.4105  0.2017
 9624W        W25518   8.827  11.516  15.240  0.0980 -0.2573  0.2350
 9625W        W25519  14.729  18.296   5.589  0.0725  0.1338  0.0481
 9626W        W25520   1.343   9.513  13.078  0.0763  0.1183 -0.0445
 9627W        W25521  14.716  16.066   2.854 -0.0703  0.3112 -0.1757
 9628W        W25522  18.376   8.554  13.893 -0.1965  0.2245 -0.0728
 9629W        W25523   9.123  12.077   0.295  0.0807  0.2448 -0.0654
 9630W        W25524  12.406   7.692   1.705 -0.1465 -0.0521 -0.0587
 9631W        W25525  16.273  14.359   2.726  0.0815  0.1731 -0.2280
 9632W        W25526   7.973   3.916  10.713  0.1675  0.0059  0.2002
 9633W        W25527   6.788   4.369   5.072 -0.2544 -0.0061 -0.0087
 9634W        W25528   4.029   1.220   3.815  0.1689  0.0630  0.2980
 9635W        W25529  13.621  14.369   3.610 -0.0972 -0.0614  0.0223
 9636W        W25530   0.745   3.497  12.765 -0.3507  0.0155 -0.2097
 9637W        W25531   4.437  17.282   1.669  0.0358 -0.2087 -0.2660
 9638W        W25532  14.192   0.378   0.194  0.1477 -0.0951 -0.0431
 9639W        W25533  11.777  17.687   2.139 -0.0374 -0.0537 -0.2432
 9640W        W25534   6.976   2.199  12.874  0.0704 -0.0748  0.2058
 9641W        W25535   7.052   6.249   0.298 -0.2399 -0.1680  0.0021
 9642W        W25536   8.522  15.914   2.379  0.0526 -0.4149  0.1689
 9643W        W25537  17.050   4.118   2.704 -0.0263  0.3376 -0.4558
 9644W        W25538  11.705  12.246   0.951  0.0818  0.3119  0.0979
 9645W        W25539   6.523   7.865   3.419 -0.0638 -0.1168  0.3288
 9646W        W25540  10.434   6.105  13.611  0.2318  0.0463  0.0322
 9647W        W25541   7.463  15.253  15.118 -0.2707  0.0968 -0.1069
 9648W        W25542   1.439  11.178   1.753  0.0841  0.2911 -0.0659
 9649W        W25543  16.451  11.417   1.163  0.0696  0.2163  0.1911
 9650W        W25544  14.719  14.183   1.236  0.1729 -0.1774 -0.3607
 9651W        W25545   7.958  14.148   5.668 -0.0939  0.3084  0.1544
 9652W        W25546   4.160  13.344  12.777  0.1553 -0.0950  0.1251
 9653W        W25547   0.275  14.667  13.277 -0.1387  0.0737  0.2103
 9654W        W25548   9.580   2.740  15.292  0.1622 -0.1311  0.3153
 9655W        W25549   5.364   2.787  11.448  0.2298 -0.0495  0.3384
 9656W        W25550   4.448   5.983   4.833  0.0805  0.0625  0.0298
 9657W        W25551  16.877   7.850   0.974 -0.4466  0.1665  0.1242
 9658W        W25552   3.180   9.680  10.949 -0.1870  0.0127 -0.1024
 9659W        W25553   0.690  15.766  15.669 -0.3809 -0.0154 -0.0304
 9660W        W25554   5.396   2.915  15.463 -0.0715  0.0407 -0.2459
 9661W        W25555  12.003  15.320  11.155 -0.0092  0.1571  0.2868
 9662W        W25556   1.553   0.092  13.720 -0.1264 -0.1268 -0.0088
 9663W        W25557  13.365  11.019   2.084 -0.0312  0.0943 -0.1539
 9664W        W25558  15.992  14.032   1.848 -0.2528  0.0400  0.2041
 9665W        W25559   5.464   8.452   4.327  0.0710 -0.0100 -0.5257
 9666W        W25560   2.058   5.300  14.198  0.0999 -0.0052 -0.2137
 9667W        W25561   4.160   5.016  16.053  0.0417  0.0015 -0.0038
 9668W        W25562   9.955   4.722   4.514 -0.1570 -0.0937 -0.3161
 9669W        W25563   4.154  17.136   4.392 -0.0976  0.0208  0.0804
 9670W        W25564  15.288  10.975  15.077 -0.3349 -0.0238 -0.2938
 9671W        W25565  11.401  13.914   1.789  0.0985  0.2408 -0.0768
 9672W        W25566   4.284   4.681   1.755 -0.0764 -0.5313  0.0919
 9673W        W25567  13.068   2.813   4.537  0.0312  0.0320 -0.1132
 9674W        W25568   4.908  15.418   3.907 -0.4221  0.0102  0.1577
 9675W        W25569   1.087  12.012  14.130 -0.1754  0.0160 -0.3164
 9676W        W25570   0.445  14.745   1.285 -0.2590 -0.0274 -0.2921
 9677W        W25571   6.161   4.535   2.092  0.2291  0.0580  0.3159
 9678W        W25572  10.333   2.063   3.081 -0.2475 -0.1453 -0.2524
 9679W        W25573  17.748  15.720   5.367 -0.1090  0.1693  0.1893
 9680W        W25574   4.124   7.688  11.317  0.2942  0.0567  0.1936
 9681W        W25575   5.317   7.548   4.313 -0.2962 -0.0081  0.0553
 9682W        W25576   1.922   3.564  14.588  0.1174  0.2966 -0.1715
 9683W        W25577  15.704  10.108   1.052  0.2389 -0.1784  0.5663
 9684W        W25578   1.347  16.191  14.279  0.0885 -0.4382 -0.0344
 9685W        W25579  11.744  14.890  14.647  0.2229  0.0755  0.0627
 9686W        W25580   7.763   6.044  14.209  0.1864  0.0981  0.1314
 9687W        W25581  10.802  14.690  14.866 -0.0037 -0.1478  0.0037
 9688W        W25582  15.555  12.685  14.620 -0.4864  0.0088 -0.1053
 9689W        W25583  14.307  12.559   1.233 -0.0077 -0.0979  0.4515
 9690W        W25584   6.463  11.193   0.667  0.0278 -0.1136 -0.1787
 9691W        W25585  17.259   5.689   3.148  0.0248  0.1042  0.0166
 9692W        W25586  12.894  15.347  11.951  0.2092 -0.0627  0.0426
 9693W        W25587  11.223   3.336   1.258  0.2285 -0.1660 -0.0392
 9694W        W25588   1.339  11.667  13.301 -0.1592 -0.2069  0.1138
 9695W        W25589   4.655  13.680  15.428 -0.1771  0.0255  0.2523
 9696W        W25590   6.798  17.513   1.648  0.3284 -0.1362 -0.2380
 9697W        W25591   4.271  12.312   0.761  0.1660 -0.1470 -0.3273
 9698W        W25592  15.189   5.940   1.115  0.0416 -0.2867  0.3338
 9699W        W25593   8.887   9.483   3.937 -0.1898 -0.2717 -0.1805
 9700W        W25594   7.128   4.936   3.896  0.2048  0.1342  0.1609
 9701W        W25595  14.259   5.514  14.254  0.1202  0.1342 -0.0056
 9702W        W25596  14.016   0.954   4.373  0.0456 -0.1512 -0.3505
 9703W        W25597   0.222   7.672  12.000 -0.0414 -0.2773  0.4136
 9704W        W25598  10.541   4.747   4.959 -0.0669  0.1721  0.1030
 9705W        W25599  13.459  12.156   1.064  0.1278 -0.0587 -0.1215
 9706W        W25600  11.986   7.276  12.319  0.1867 -0.0064 -0.1172
 9707W        W25601  15.452  14.094   2.243  0.3559  0.0717 -0.2034
 9708W        W25602   5.807   0.031  13.759  0.2774 -0.0415 -0.1917
 9709W        W25603   6.991   3.506   3.944  0.3228 -0.0574  0.2832
 9710W        W25604   2.483   3.598   0.317  0.1029  0.0444 -0.2746
 9711W        W25605  11.735   8.050   4.016  0.1124  0.3436  0.4419
 9712W        W25606   7.015   1.166  14.489  0.0171  0.0459 -0.1251
 9713W        W25607  11.971   5.504  13.597 -0.0942 -0.1298  0.0581
 9714W        W25608  11.942   6.097  13.711 -0.0231  0.1104  0.0336
 9715W        W25609   8.803  16.049  12.127  0.1739  0.0270 -0.0956
 9716W        W25610   7.884   4.114   0.902 -0.0103 -0.0668 -0.0725
 9717W        W25611   2.204  11.871  11.209  0.0008  0.0140 -0.2052
 9718W        W25612  13.700  10.945   3.694 -0.0228 -0.0124 -0.0618
 9719W        W25613   1.883  15.255   4.355  0.0701 -0.1534  0.0872
 9720W        W25614  15.422   8.659   6.564 -0.1068 -0.1830 -0.1122
 9721W        W25615   9.317   6.094   0.795  0.1683 -0.0187 -0.1475
 9722W        W25616  12.224   8.112  12.202 -0.2041 -0.0406 -0.1349
 9723W        W25617  12.722  13.692  14.861  0.1255 -0.3297 -0.1810
 9724W        W25618  10.016  14.600   0.949 -0.1864  0.3111  0.1240
 9725W        W25619   1.971   4.371  14.584  0.2259 -0.2552  0.0329
 9726W        W25620   3.974   0.089   2.713 -0.0687 -0.0267  0.3018
 9727W        W25621   0.842  11.848   0.524 -0.1464 -0.0796 -0.2079
 9728W        W25622  16.943  10.753   6.360  0.2653  0.2718  0.1666
 9729W        W25623   3.189   5.229   0.837 -0.3472  0.2939 -0.2185
 9730W        W25624  13.164   8.672  13.614 -0.3339 -0.1500 -0.3362
 9731W        W25625  17.187   0.153   0.576 -0.0007 -0.1257  0.1588
 9732W        W25626  12.314   1.074  15.990 -0.3038 -0.1055 -0.0815
 9733W        W25627  14.276  12.196   1.593  0.1236 -0.3977  0.3943
 9734W        W25628   1.953   0.475   4.823 -0.0251 -0.2572  0.2276
 9735W        W25629  11.450  13.689   5.518 -0.0614 -0.0860 -0.5198
 9736W        W25630   5.857  17.467   0.942 -0.0129  0.0048  0.2916
 9737W        W25631  11.494   4.080  14.932  0.0332  0.2394  0.0424
 9738W        W25632  11.678   7.176  11.362  0.0457 -0.0294  0.0713
 9739W        W25633   5.098  11.782  13.547 -0.0401 -0.1865 -0.1324
 9740W        W25634   7.038  13.914   2.834 -0.0443  0.0234  0.0912
 9741W        W25635  14.922  16.010  14.504 -0.1063 -0.1659  0.0043
 9742W        W25636   2.069  10.615   1.151 -0.0953 -0.0262 -0.0965
 9743W        W25637  14.932   4.459  12.732  0.0517 -0.0413  0.1475
 9744W        W25638  16.524  12.042   1.106  0.0569  0.1765 -0.1252
 9745W        W25639   1.060  15.024  11.534 -0.4762 -0.0492 -0.2897
 9746W        W25640  17.743  10.551  15.066 -0.0269  0.0560  0.0770
 9747W        W25641   4.352   4.243  13.162  0.3220 -0.1000 -0.1802
 9748W        W25642  13.330   0.638  15.649 -0.0324  0.0555  0.2323
 9749W        W25643   6.786  13.691  14.007  0.1963 -0.0332  0.2796
 9750W        W25644   5.793  17.442   0.172 -0.2872  0.1028 -0.2650
 9751W        W25645  10.436   6.320   2.812 -0.1897  0.0650  0.2382
 9752W        W25646   1.147  16.183   0.660 -0.1624  0.1621  0.1548
 9753W        W25647   4.818   2.617  11.604 -0.0659 -0.3646 -0.0691
 9754W        W25648   6.125   4.255  14.279 -0.0145  0.1638 -0.3278
 9755W        W25649   6.163   5.264   1.596  0.2087  0.1625 -0.0937
 9756W        W25650   8.719  13.649   5.750  0.1647 -0.1894 -0.2039
 9757W        W25651  16.292   9.089   2.773 -0.1028 -0.0932 -0.0272
 9758W        W25652  16.980  14.154  11.442  0.1813 -0.0425 -0.0476
 9759W        W25653  15.607   0.163  15.828 -0.0589  0.2717 -0.3338
 9760W        W25654   2.670   0.686  10.583 -0.1858  0.3011  0.0620
 9761W        W25655  13.974   0.857   0.297  0.0033 -0.0148  0.0346
 9762W        W25656   8.933   9.242   0.854 -0.1999  0.3079  0.4787
 9763W        W25657   8.549   4.316   2.234  0.2002  0.1471  0.0766
 9764W        W25658  10.513  12.232   3.199 -0.1490 -0.3393  0.1196
 9765W        W25659  15.040   3.036  14.839 -0.0258 -0.0624 -0.0266
 9766W        W25660   3.812   0.430  13.794  0.0349 -0.0488  0.2552
 9767W        W25661   8.627  10.997  15.079  0.0142  0.1171 -0.2915
 9768W        W25662   4.845   1.666  11.158  0.0306 -0.0606 -0.0685
 9769W        W25663   8.539   3.104   0.238 -0.5658  0.0927  0.0715
 9770W        W25664   0.180  10.003   2.888  0.1607 -0.2756  0.0848
 9771W        W25665  17.833   3.165  16.030 -0.0467  0.0462 -0.2334
 9772W        W25666  10.629  15.078   1.539  0.1633 -0.2586 -0.1573
 9773W        W25667   5.286  15.700   5.114 -0.1251 -0.1101  0.2948
 9774W        W25668   5.434  18.441   5.286 -0.0772  0.1852 -0.0753
 9775W        W25669  18.378  11.761   1.238 -0.1110 -0.2710  0.1830
 9776W        W25670  10.657  11.006   0.971 -0.1262 -0.2382 -0.3803
 9777W        W25671  16.146  13.969  13.581 -0.3442 -0.0511 -0.0186
 9778W        W25672   1.367  13.556  15.799  0.3119 -0.1402 -0.0270
 9779W        W25673   1.489   9.242   1.041  0.0290 -0.0123  0.0858
 9780W        W25674   4.291   9.544   1.359 -0.0295  0.1567  0.0200
 9781W        W25675  14.131   0.653  14.914  0.1861 -0.0000  0.1577
 9782W        W25676   2.260   4.630   4.678 -0.0075  0.1767 -0.5243
 9783W        W25677  13.528  14.026   3.042  0.0765  0.3380  0.3675
 9784W        W25678   9.190   8.019   0.784  0.0356 -0.3234 -0.1797
 9785W        W25679   9.684   6.549   3.573 -0.1855 -0.0409  0.2894
 9786W        W25680   3.812  18.208   4.522  0.2745  0.3258  0.1450
 9787W        W25681   0.971   3.398  15.790  0.0148 -0.1033 -0.0515
 9788W        W25682  15.427   5.560   5.791 -0.0486  0.3401 -0.2791
 9789W        W25683  12.602  11.381   0.793  0.2814 -0.0749  0.0499
 9790W        W25684  17.222   9.487  12.229 -0.1655 -0.3034  0.3608
 9791W        W25685   1.564  15.524   2.592  0.2658  0.2243  0.1119
 9792W        W25686  17.123  13.096   3.679  0.0592 -0.0327 -0.0610
 9793W        W25687  13.277   1.040   1.453  0.1087 -0.3730  0.3734
 9794W        W25688  16.852  12.902   0.322 -0.0439 -0.0145  0.1555
 9795W        W25689   6.714   4.248   2.627 -0.0889 -0.0174  0.3304
 9796W        W25690  16.643  15.241   0.623  0.1649  0.1753  0.0048
 9797W        W25691   2.690  16.452   1.200  0.1064  0.0127  0.0456
 9798W        W25692   5.804  17.105   2.420  0.3698 -0.2501  0.0249
 9799W        W25693   7.504   7.923   2.078  0.1741 -0.0201  0.0027
 9800W        W25694   4.156  11.554   5.920  0.4189  0.1084  0.3663
 9801W        W25695   9.716  17.238   1.491 -0.0467  0.1424 -0.0861
 9802W        W25696  13.448   4.446   1.960  0.0168  0.0211 -0.2354
 9803W        W25697  10.659   8.734   5.207 -0.3419  0.0443  0.0468
 9804W        W25698  13.220  11.312   1.676  0.2097  0.3466  0.0903
 9805W        W25699   5.786  16.554   0.940  0.0827 -0.3897 -0.2647
 9806W        W25700  11.971   7.208   4.809  0.1293 -0.3311 -0.1873
 9807W        W25701  18.074   6.655   0.164  0.1099 -0.3361  0.0550
 9808W        W25702  12.236  14.174   4.043  0.1729  0.0406  0.1400
 9809W        W25703  13.079   0.948   1.864 -0.0307 -0.0279  0.2281
 9810W        W25704  14.993  17.167   3.944 -0.0967 -0.1259 -0.1341
 9811W        W25705   9.850  18.251   1.363 -0.1242 -0.0570  0.0178
 9812W        W25706  15.081  15.394  12.090  0.1615  0.2989  0.1490
 9813W        W25707   3.788  15.408  11.894 -0.2103 -0.1241 -0.1664
 9814W        W25708   9.346   0.868   5.459 -0.2302  0.4156 -0.2516
 9815W        W25709   7.230   5.208   2.760  0.0302 -0.0075 -0.1057
 9816W        W25710  13.644   8.044   5.855  0.3152  0.0322 -0.1717
 9817W        W25711   6.490  14.595   0.073  0.3225  0.0140 -0.3386
 9818W        W25712   2.963   1.571  14.537  0.0740 -0.2336 -0.0375
 9819W        W25713  18.284   0.729  16.053 -0.1375  0.2179 -0.0565
 9820W        W25714  18.319  17.595  13.545  0.0061  0.0244  0.3769
 9821W        W25715   6.109  17.910   1.117 -0.0277  0.0333  0.3253
 9822W        W25716   8.368  10.158  10.970  0.0301 -0.0555 -0.1297
 9823W        W25717  17.990  12.629  13.539  0.2088  0.0369 -0.0272
 9824W        W25718  15.866   2.324   3.106  0.2140  0.0255  0.0311
 9825W        W25719  14.901  11.228   1.420 -0.2772 -0.0585 -0.2931
 9826W        W25720   9.859   5.712   2.265 -0.0858 -0.1499  0.3208
 9827W        W25721  16.044  17.544   3.109  0.0336 -0.2556  0.1300
 9828W        W25722  17.970  15.030   0.328 -0.1512 -0.2116  0.0483
 9829W        W25723   1.036   9.038   2.194  0.3398  0.0648  0.0446
 9830W        W25724   6.926  12.209   4.411 -0.0414  0.0304  0.1853
 9831W        W25725  14.776  11.300   0.439  0.2422 -0.0542 -0.0093
 9832W        W25726  17.884  14.906  13.392  0.2682  0.0473  0.3268
 9833W        W25727  15.122  14.757  11.411 -0.0810 -0.2334 -0.1788
 9834W        W25728   0.548   6.595  13.853  0.2320 -0.1836  0.3868
 9835W        W25729  12.128  11.473  13.518 -0.5681 -0.0471  0.2835
 9836W        W25730   2.708   1.390   1.119  0.1929 -0.2455 -0.0037
 9837W        W25731   4.782   9.720   3.360 -0.1683  0.0342  0.0832
 9838W        W25732   0.554   6.808   0.099  0.1045 -0.2587 -0.0617
 9839W        W25733  10.657   6.082  13.072 -0.0967  0.1967 -0.2265
 9840W        W25734  16.860  10.196  15.834 -0.1393  0.1261  0.0702
 9841W        W25735   8.630   5.555   1.987  0.0526 -0.1725  0.2378
 9842W        W25736  17.915  16.278   4.117  0.0624 -0.0444  0.1036
 9843W        W25737   4.098   0.119   2.196  0.1564 -0.0445  0.1364
 9844W        W25738   7.735   0.780   2.493  0.2971 -0.2181 -0.1974
 9845W        W25739   9.670   1.832   4.187 -0.3258  0.3154 -0.0151
 9846W        W25740  16.736   6.103   3.877 -0.0557 -0.2114  0.1841
 9847W        W25741   3.015   9.907  15.507  0.1374 -0.1379  0.0848
 9848W        W25742  14.266   4.651   0.171 -0.0715 -0.0829 -0.0254
 9849W        W25743  16.920  11.742   0.785  0.0182  0.1748 -0.1226
 9850W        W25744   0.480   8.832   4.353  0.0468 -0.2606  0.0409
 9851W        W25745   5.069   1.311  12.347  0.2565 -0.1601  0.1272
 9852W        W25746   4.362  13.796   4.842 -0.0813  0.0145  0.3282
 9853W        W25747  13.453  16.938  16.120 -0.1987 -0.0918  0.0452
 9854W        W25748   7.285  13.064   4.954  0.2160  0.0741  0.1107
 9855W        W25749  10.381  15.443   1.760  0.1974 -0.0433  0.0463
 9856W        W25750   6.846   6.114   3.067  0.0687 -0.0870 -0.4578
 9857W        W25751  13.688   9.869  14.817  0.2657 -0.0223 -0.1641
 9858W        W25752  10.190   2.168  15.763  0.1264 -0.1397 -0.2072
 9859W        W25753  17.166   5.042   4.566  0.1898 -0.3341 -0.0742
 9860W        W25754  18.333  15.948   0.986 -0.1149  0.1230  0.0166
 9861W        W25755   4.745   2.917   1.000  0.1447 -0.0346  0.4599
 9862W        W25756  15.893  17.830   0.759 -0.5122 -0.1453 -0.0635
 9863W        W25757   6.581   9.565   0.095  0.1583  0.1537  0.0541
 9864W        W25758   2.432  15.954  14.578  0.1099 -0.2365  0.0208
 9865W        W25759  10.710  16.067  10.980  0.2081 -0.0108 -0.2232
 9866W        W25760   0.565  13.276   0.251  0.2240 -0.0313 -0.1469
 9867W        W25761  10.141   0.148   0.623 -0.0386 -0.3625  0.0128
 9868W        W25762   8.576  11.997   2.952  0.0065 -0.4299  0.2691
 9869W        W25763   7.565  10.333   1.485 -0.0228 -0.2805 -0.0635
 9870W        W25764   0.354   5.312  12.303 -0.0682  0.2573 -0.0507
 9871W        W25765  10.473   3.878   3.251 -0.1950 -0.1273  0.2359
 9872W        W25766  12.431   4.568  13.093  0.1667  0.0285 -0.0112
 9873W        W25767  15.348   0.132   3.176 -0.0446  0.2504 -0.1039
 9874W        W25768  11.854  11.545  13.944 -0.3445  0.2225  0.1202
 9875W        W25769   6.214  12.926  15.661 -0.3065  0.1159  0.1294
 9876W        W25770   6.303   2.245   4.929 -0.1346 -0.1025 -0.3115
 9877W        W25771   7.763   3.417  14.030  0.1888 -0.1404  0.0536
 9878W        W25772   6.294   5.330   4.993 -0.0360  0.1098 -0.0234
 9879W        W25773  16.213   7.229  11.718  0.1371  0.0717  0.0135
 9880W        W25774   8.804  12.189   4.846 -0.0419  0.3464 -0.0187
 9881W        W25775  13.812   3.755   0.834  0.0268  0.4494  0.1764
 9882W        W25776   7.271   9.223   0.271  0.1254 -0.1746  0.0386
 9883W        W25777  13.007  17.168  14.676 -0.3884 -0.1255  0.2537
 9884W        W25778  13.899  10.454  15.397  0.4332 -0.0063  0.0823
 9885W        W25779   4.642   6.850   1.772 -0.1873  0.1792  0.1799
 9886W        W25780  13.272  10.000   0.554 -0.1805  0.2024 -0.0743
 9887W        W25781  10.865  16.766  11.737 -0.1028 -0.2157 -0.1560
 9888W        W25782  12.036  14.507  13.974 -0.0665  0.2860  0.2943
 9889W        W25783   4.193  10.973  14.455  0.0424  0.2332 -0.6090
 9890W        W25784  10.527   6.395  11.440 -0.3041  0.2595  0.0937
 9891W        W25785  12.665  18.401  11.232 -0.1622  0.1054 -0.1689
 9892W        W25786  17.041   2.676  14.474  0.2305  0.0914  0.0482
 9893W        W25787  13.268  16.747  15.404  0.4488  0.1155 -0.0613
 9894W        W25788   1.571   6.015  12.202 -0.0070 -0.0269  0.0794
 9895W        W25789  13.023  14.287   0.301 -0.0285  0.2436  0.2602
 9896W        W25790   7.939   5.405  11.740 -0.0726  0.0560 -0.4633
 9897W        W25791   4.197   0.463   0.456 -0.3745 -0.0849  0.2900
 9898W        W25792  17.974  10.257  11.867  0.2590 -0.1585 -0.1232
 9899W        W25793   8.793  12.847  10.755 -0.4826 -0.2213 -0.2544
 9900W        W25794  17.369   4.410  14.893  0.0720  0.0325  0.2135
 9901W        W25795   2.363   1.801  11.848  0.0282  0.0826 -0.0288
 9902W        W25796  14.221  13.954  14.698 -0.1218  0.1309  0.4654
 9903W        W25797   0.139  15.463   4.653  0.3584 -0.3783  0.0452
 9904W        W25798  17.329   1.529   1.107  0.1268  0.0530 -0.0887
 9905W        W25799  17.998   9.175   1.958 -0.2833 -0.0344 -0.2496
 9906W        W25800  10.045   7.365  13.127  0.0506 -0.2409 -0.3670
 9907W        W25801   5.151  13.035   2.695 -0.1501 -0.4203 -0.0748
 9908W        W25802  17.440  10.373   0.753 -0.1010 -0.1387 -0.0618
 9909W        W25803   9.005   3.303  14.821  0.3729  0.0555  0.0598
 9910W        W25804   1.810  13.811  12.455  0.2848  0.0424  0.0755
 9911W        W25805   6.001   5.801  14.652 -0.1810  0.2124 -0.1343
 9912W        W25806   3.133  15.547   4.548  0.2395 -0.3586 -0.2300
 9913W        W25807  17.364  16.253  14.081 -0.2730 -0.0189  0.0263
 9914W        W25808   4.976  11.303  13.461 -0.0031 -0.2767 -0.0002
 9915W        W25809   6.319   7.570  14.016 -0.0267  0.0105  0.3277
 9916W        W25810  12.448   6.333   0.209  0.1612  0.1577 -0.1671
 9917W        W25811   2.889  18.239   4.670 -0.0820 -0.1410  0.3328
 9918W        W25812  11.835   2.097   1.223  0.0696  0.2828 -0.3736
 9919W        W25813   1.042   6.831  14.947  0.3088 -0.1879 -0.0590
 9920W        W25814   3.902   5.725  12.120 -0.0399 -0.1967  0.2063
 9921W        W25815   6.736  14.839   0.821 -0.0499 -0.0281  0.3669
 9922W        W25816   2.126   9.255   5.794  0.1189 -0.1301  0.0544
 9923W        W25817   3.040  11.277  12.705 -0.1044  0.1557 -0.1143
 9924W        W25818  10.965   9.913   4.128 -0.0556  0.0904 -0.1199
 9925W        W25819   6.113   8.428   0.611  0.1864  0.2534 -0.1047
 9926W        W25820   4.486   4.004  11.913  0.2090  0.1755 -0.6436
 9927W        W25821  18.418   4.748  15.402  0.1297 -0.1917  0.0561
 9928W        W25822  16.174  16.803  14.556  0.4421 -0.2449  0.3186
 9929W        W25823   9.156  15.832   5.240 -0.2071  0.0220 -0.0424
 9930W        W25824  13.509  13.368  11.432 -0.1639  0.1661  0.0632
 9931W        W25825   9.792   4.326   1.695  0.2648  0.0023 -0.3507
 9932W        W25826   5.084   7.164   5.241  0.0851 -0.0389 -0.1357
 9933W        W25827   4.932  14.450   0.242 -0.1201 -0.2446 -0.2189
 9934W        W25828  17.607  10.828  13.753 -0.2933  0.2848 -0.2737
 9935W        W25829  16.317  12.027  12.813 -0.1505  0.3245 -0.2415
 9936W        W25830   5.059  13.472  13.697 -0.0679  0.4129 -0.1725
 9937W        W25831   5.962  13.694  13.759 -0.0722  0.0145 -0.0795
 9938W        W25832  14.275  17.014  11.522  0.0803 -0.1198  0.0891
 9939W        W25833  14.539  12.928  14.642  0.3431  0.2125  0.1154
 9940W        W25834   5.513  14.447   1.002  0.0593  0.0288 -0.1298
 9941W        W25835   2.099  14.633   5.451  0.0149 -0.2722  0.2488
 9942W        W25836  16.292   2.345  14.398 -0.0053 -0.2463 -0.1355
 9943W        W25837  14.147  16.985  11.003  0.0472  0.2016  0.1032
 9944W        W25838  17.708   3.193   2.684 -0.0352  0.0092 -0.2674
 9945W        W25839   1.775   9.068  11.987 -0.1007 -0.1660  0.2247
 9946W        W25840  12.235   5.535   5.432 -0.1251  0.2456  0.1155
 9947W        W25841  12.523   5.133   2.924  0.1124  0.0480 -0.0513
 9948W        W25842   3.941   3.632   2.358 -0.1639  0.2122  0.3783
 9949W        W25843  17.222   2.225   6.526 -0.0664  0.0677 -0.0188
 9950W        W25844  10.004   3.265  13.646  0.0216  0.1718  0.2750
 9951W        W25845   8.647   5.788   2.546  0.2052 -0.1900  0.1034
 9952W        W25846   0.249   4.382  11.389 -0.1013  0.2349 -0.1403
 9953W        W25847  14.260   4.688   4.983 -0.1127  0.1786  0.2355
 9954W        W25848   4.276  18.422  11.236 -0.1462 -0.0916 -0.0307
 9955W        W25849  14.490  13.178   4.624  0.0608 -0.1808 -0.1682
 9956W        W25850   0.500   9.867   0.053 -0.3109  0.0913  0.3652
 9957W        W25851   7.611  18.383   5.193  0.5574 -0.0588  0.2076
 9958W        W25852   2.576  10.159   2.294 -0.3703 -0.1988 -0.0185
 9959W        W25853  18.143   1.421   6.240  0.0543  0.0596 -0.2188
 9960W        W25854  12.961   7.195   4.818  0.0860  0.2506 -0.1596
 9961W        W25855  18.263   3.059   1.629 -0.1006 -0.2075 -0.1718
 9962W        W25856   4.253  16.766   3.057 -0.0353 -0.4164 -0.3628
 9963W        W25857  14.538   7.208  13.383  0.4517  0.2689  0.0477
 9964W        W25858   3.990  17.535  14.236 -0.3183  0.0149 -0.2216
 9965W        W25859   8.037  15.841   2.124  0.0083 -0.3705  0.0289
 9966W        W25860  11.742   6.889  13.554  0.0804 -0.0822  0.0635
 9967W        W25861   8.925  13.242   2.253  0.2888 -0.0941  0.1333
 9968W        W25862   8.003  11.271   2.408  0.0075 -0.0270  0.0429
 9969W        W25863  18.450  10.523  14.674 -0.0641  0.1875  0.0021
 9970W        W25864   9.106   9.975   9.969 -0.0251 -0.1967  0.2236
 9971W        W25865   5.934  17.955  14.030  0.3358  0.1168 -0.1707
 9972W        W25866  18.152  15.107  10.247  0.1308 -0.2185 -0.2011
 9973W        W25867   0.971   2.634   2.731  0.0507  0.0623 -0.0984
 9974W        W25868  15.316   1.981  12.474  0.0169 -0.3563  0.2077
 9975W        W25869   1.935  15.184  12.995 -0.0874 -0.1510 -0.2179
 9976W        W25870   0.070  16.540   2.386 -0.0786  0.0801  0.0871
 9977W        W25871  14.135  12.564  12.147 -0.1434 -0.2038  0.2470
 9978W        W25872   1.224  10.490   1.198 -0.1429  0.1762 -0.2849
 9979W        W25873   9.829   9.096  11.424  0.3870  0.0330  0.0664
 9980W        W25874  14.594  15.402   2.424  0.0494 -0.1941 -0.0840
 9981W        W25875  13.863   8.880  15.204  0.0089 -0.0300  0.0439
 9982W        W25876   6.178  18.137   0.100  0.1542 -0.0456  0.2701
 9983W        W25877   4.289  11.695   4.589  0.0432 -0.2675  0.3908
 9984W        W25878  18.309  10.807  14.164 -0.0139  0.0975  0.0397
 9985W        W25879  12.411  11.934   1.935 -0.0849 -0.3356 -0.1205
 9986W        W25880   9.811   5.256   1.196  0.1847 -0.3278 -0.0842
 9987W        W25881   8.128   8.239   2.817 -0.1940  0.1321  0.2757
 9988W        W25882   9.984  17.710  15.702 -0.1150  0.0900  0.0818
 9989W        W25883   3.531  13.724   2.334  0.1540  0.1722  0.2290
 9990W        W25884  16.937   3.264   0.202 -0.1003 -0.1988  0.0259
 9991W        W25885  13.244  14.639  12.399  0.2898  0.2738  0.0602
 9992W        W25886   5.648   5.943   5.514  0.2647  0.1846  0.0321
 9993W        W25887   5.250   5.806   2.060 -0.0567 -0.0813  0.0195
 9994W        W25888   9.867   0.565  13.184  0.0579  0.1622 -0.2335
 9995W        W25889   8.157   5.751   4.881 -0.3520 -0.0723  0.0379
 9996W        W25890   1.400   8.740   5.106 -0.0326 -0.0737  0.2487
 9997W        W25891   2.647  14.570  12.424 -0.0893  0.2053  0.1103
 9998W        W25892   0.254  13.265   3.450  0.0232  0.0392 -0.3514
 9999W        W25893  16.722  14.369   0.974  0.1192  0.2791 -0.1009
10000W        W25894   1.340   1.237   5.157 -0.0353 -0.1369 -0.0380
10001W        W25895   5.741  12.771   2.489 -0.4398 -0.0102 -0.0378
10002W        W25896  15.952   1.019  15.200  0.0917  0.1875  0.0248
10003W        W25897   3.627   2.648  14.460 -0.1527 -0.0054  0.0649
10004W        W25898   4.668   1.666   5.912  0.1765 -0.1656  0.2245
10005W        W25899   1.477   8.378  15.662  0.0007  0.0923  0.2516
10006W        W25900   9.523  11.512   1.935 -0.1096 -0.0429  0.1402
10007W        W25901   4.282   5.569   4.487  0.0590  0.0572 -0.2062
10008W        W25902   7.466  11.897   5.158 -0.0425 -0.1601  0.0982
10009W        W25903  16.520  11.698   2.661  0.3086  0.2158 -0.2630
10010W        W25904  10.211   3.750  12.310 -0.0650  0.4306  0.0959
10011W        W25905   7.521   3.073   5.105 -0.0640 -0.2989  0.1964
10012W        W25906   9.721   2.577  11.286 -0.0382  0.2977 -0.1891
10013W        W25907   6.802   8.833   2.388  0.0929 -0.2369  0.0543
10014W        W25908   1.114  16.336   4.687 -0.1029  0.1597  0.0118
10015W        W25909  17.807  16.139   2.481 -0.3648  0.1895  0.1034
10016W        W25910   9.060  17.261  16.051  0.1815  0.2121 -0.0621
10017W        W25911  15.132   4.344  16.050  0.0359  0.0394 -0.0099
10018W        W25912  12.885  11.233   4.085 -0.0602  0.1413  0.0229
10019W        W25913  15.498   3.167   2.060  0.1181 -0.2216  0.1985
10020W        W25914   1.770   5.794  13.209  0.1324  0.1603  0.0081
10021W        W25915   0.712  13.473   1.276 -0.0340  0.0615  0.0678
10022W        W25916   2.914   2.445   2.486 -0.0127 -0.0533  0.1927
10023W        W25917   1.001  15.499   1.963 -0.2688 -0.3962 -0.1636
10024W        W25918  18.424   4.820   2.701 -0.1412  0.0640 -0.1085
10025W        W25919   6.131   0.330   0.494  0.3233  0.1581 -0.0395
10026W        W25920   1.793   4.691   1.872 -0.0773  0.0844 -0.0114
10027W        W25921  13.661  11.758   1.199  0.0217  0.4460 -0.2407
10028W        W25922  17.634   8.843   4.336  0.1908  0.0619  0.1164
10029W        W25923   9.618  12.364   2.884  0.1503  0.0540 -0.1057
10030W        W25924  16.044  13.585   3.088  0.1092 -0.2764 -0.1994
10031W        W25925   0.944   8.426  11.815 -0.0136  0.0042 -0.1885
10032W        W25926  13.489   5.685   3.227 -0.1696 -0.1493  0.0233
10033W        W25927  15.543   5.366   1.827 -0.0913 -0.0636  0.1971
10034W        W25928  12.519   0.348  12.067  0.1783  0.0910 -0.0855
10035W        W25929   2.783  13.408   3.118 -0.1927  0.2372  0.1408
10036W        W25930  17.786   1.778   3.107  0.3232  0.1134 -0.0900
10037W        W25931   1.952   0.102   5.231  0.0997  0.1257  0.0979
10038W        W25932  11.889   4.334   1.057  0.1201 -0.2131 -0.0600
10039W        W25933   6.481  14.424  10.509  0.0908  0.0636  0.0962
10040W        W25934   1.243   0.360  14.241 -0.3059  0.1644  0.1558
10041W        W25935   7.261   2.589   1.084 -0.0344  0.0223  0.0048
10042W        W25936  15.805   4.899   0.226  0.3742 -0.0691  0.2828
10043W        W25937   7.067   6.680   5.542 -0.0661  0.0393  0.3161
10044W        W25938  14.607   3.578   6.548  0.1705  0.0488  0.0447
10045W        W25939   7.760  12.876  10.528  0.1064  0.1014 -0.2305
10046W        W25940  13.515   2.060  14.423 -0.1213  0.1920 -0.2895
10047W        W25941   2.329  11.030   2.705 -0.0236 -0.0331  0.0171
10048W        W25942   8.706   7.318   4.919  0.0929  0.2055 -0.1182
10049W        W25943   5.337   6.163   5.134 -0.1814 -0.0653  0.3219
10050W        W25944   6.373  13.092   3.750  0.2835  0.3129  0.1315
10051W        W25945   8.423   4.410  13.392 -0.0828  0.2815 -0.1648
10052W        W25946  16.238  11.335   1.855 -0.1506 -0.0134 -0.5052
10053W        W25947  14.680   4.277   5.279  0.4711  0.2057  0.2173
10054W        W25948   7.548  16.575   5.131  0.1812 -0.1692 -0.1622
10055W        W25949   9.667   3.114   0.389  0.1981 -0.0356 -0.3931
10056W        W25950   5.845   1.652  14.831  0.1923 -0.0520 -0.0246
10057W        W25951  18.225   4.752  13.030 -0.0256  0.1917 -0.2309
10058W        W25952   3.024  15.518  13.910  0.0307 -0.5685 -0.0750
10059W        W25953  16.510   9.585  12.660  0.0465  0.0282  0.2247
10060W        W25954   7.843   3.109  12.542 -0.1436  0.0794 -0.2426
10061W        W25955   6.835   0.615   5.170 -0.1148  0.3503  0.2131
10062W        W25956  12.989   3.340   5.278 -0.0840  0.0086 -0.0307
10063W        W25957   6.283   1.640   4.482 -0.2066  0.0517  0.0185
10064W        W25958   5.205  12.742   0.404 -0.1760 -0.4547  0.2017
10065W        W25959   7.152  17.860  15.197  0.1022 -0.0803  0.3090
10066W        W25960  11.496  16.269  13.486  0.1852 -0.2589  0.0685
10067W        W25961   0.754   1.361   3.742  0.0718  0.0853  0.0549
10068W        W25962   6.444   5.321   4.234 -0.1058  0.0362  0.1141
10069W        W25963   7.519   6.588   2.344 -0.1291 -0.2858 -0.1464
10070W        W25964   6.235  11.146   1.331 -0.0221  0.1222 -0.1114
10071W        W25965   5.099  18.149  10.886  0.1477  0.1477  0.0522
10072W        W25966   9.475   2.683  14.429  0.0616  0.2491 -0.0037
10073W        W25967   0.646   5.221   2.053 -0.0161  0.0837 -0.2319
10074W        W25968  15.804   0.537  15.505  0.0526  0.1430  0.0081
10075W        W25969  16.857   7.211   1.482  0.1287 -0.3436 -0.0309
10076W        W25970  16.498  10.269  15.018 -0.0314  0.0602 -0.1427
10077W        W25971   5.557  13.476   0.506 -0.2207  0.2701 -0.3434
10078W        W25972  17.851   0.813  12.982 -0.2080 -0.0102  0.0582
10079W        W25973   8.177  10.203   0.511  0.1883 -0.1977 -0.0369
10080W        W25974   0.839   2.084  14.997 -0.0707  0.3208 -0.0099
10081W        W25975   5.738  16.663  13.542  0.1011 -0.0056 -0.0747
10082W        W25976  12.407  10.753  15.605 -0.1891 -0.0297  0.1455
10083W        W25977  14.884  11.897  13.137 -0.1376  0.1216 -0.1017
10084W        W25978   9.561   3.104  12.446 -0.0388 -0.1933  0.0034
10085W        W25979   2.319  13.751  13.688  0.2341  0.0270 -0.3064
10086W        W25980   6.535  13.634   0.386  0.1949  0.1707 -0.1672
10087W        W25981   7.240   3.782  12.453 -0.0063 -0.2072 -0.1746
10088W        W25982  16.473  10.974   1.661 -0.4614  0.1141  0.0051
10089W        W25983   8.655  16.343   0.187 -0.2995  0.0086 -0.4455
10090W        W25984  10.516   8.632  11.790 -0.1283  0.1275  0.1038
10091W        W25985   0.142   6.699   0.395 -0.2727 -0.0045  0.0442
10092W        W25986   0.521  15.115  15.109 -0.2034  0.0976  0.0310
10093W        W25987   4.745  17.826  12.652 -0.2687  0.0506  0.1185
10094W        W25988  18.286   0.764  10.319 -0.1506 -0.0556  0.0243
10095W        W25989  17.959   7.707   2.834  0.3170 -0.1960 -0.1088
10096W        W25990   2.722   5.881  15.834  0.1513  0.0852 -0.2010
10097W        W25991  12.734  13.627  12.980  0.2466  0.0329  0.1285
10098W        W25992  10.943   3.122   2.399  0.0959  0.1114  0.2264
10099W        W25993   6.544   6.656  14.124  0.1697  0.1452 -0.1628
10100W        W25994   7.611  12.321  15.094 -0.0910 -0.1320  0.0786
10101W        W25995  11.939  15.863  13.836 -0.0830 -0.0429 -0.3015
10102W        W25996   3.621   0.403   0.037 -0.1462  0.2264 -0.0492
10103W        W25997   7.752  10.123   0.123  0.1982 -0.3102  0.2510
10104W        W25998   4.013  17.583   2.546 -0.0251  0.1327 -0.1063
10105W        W25999  12.560  15.703  15.627  0.1249  0.1668  0.2611
10106W        W26000   2.667   3.162  13.728  0.0241  0.1944  0.1730
10107W        W26001   1.374   7.640  15.488  0.2327  0.4094  0.1293
10108W        W26002   6.208   3.974  11.024  0.0070 -0.1571  0.1497
10109W        W26003   8.150   0.321   0.427 -0.0553 -0.1031  0.3327
10110W        W26004  14.956   2.414  16.120  0.1548 -0.2468  0.1448
10111W        W26005   9.248  13.964  14.264  0.2216  0.2978 -0.3642
10112W        W26006  15.304   9.437   5.440 -0.3893 -0.2206 -0.1008
10113W        W26007   6.451  15.078   3.472  0.0250 -0.0780 -0.0225
10114W        W26008   5.245  14.421  13.914  0.0450  0.0587 -0.0949
10115W        W26009  17.880   8.479   4.919  0.0002 -0.2029 -0.2001
10116W        W26010  11.860  13.697  12.845  0.2215 -0.1090  0.0806
10117W        W26011  11.274  12.584  12.111 -0.0248 -0.2902 -0.2394
10118W        W26012   1.649  17.956  15.852 -0.2234  0.1776  0.0013
10119W        W26013   2.804  10.342   4.944  0.0358  0.2219 -0.2803
10120W        W26014  14.540   8.105  13.706 -0.0055  0.0084 -0.2430
10121W        W26015   3.137  15.283  13.491  0.0101  0.0211 -0.0097
10122W        W26016   4.627   5.916   0.329  0.6731 -0.0945  0.2950
10123W        W26017  10.480   8.458   4.838 -0.1482  0.2514  0.1180
10124W        W26018   8.482   2.594  13.105 -0.0027  0.1703  0.1642
10125W        W26019  12.886  11.496   4.546 -0.0582  0.2181 -0.1448
10126W        W26020   3.604   3.238  13.244  0.1520 -0.2501  0.4869
10127W        W26021  12.959   8.630  13.087  0.2286 -0.1766  0.1261
10128W        W26022  18.453  17.873  11.845 -0.1289  0.0688  0.1030
10129W        W26023   2.549  14.967   2.258 -0.0935  0.0407 -0.0960
10130W        W26024  11.816   8.970   1.396  0.0714 -0.1113  0.1331
10131W        W26025  11.646   4.441  15.290 -0.1113  0.1005 -0.1625
10132W        W26026   6.916   3.255  11.403 -0.3176 -0.2013 -0.1186
10133W        W26027   0.593  18.412  13.662 -0.1525 -0.1259 -0.3595
10134W        W26028  17.737   1.670   1.348  0.2423  0.2849 -0.0796
10135W        W26029   2.554  13.047  14.453 -0.2410  0.0841  0.1360
10136W        W26030  15.231  11.705   1.657 -0.2051  0.3839  0.0492
10137W        W26031   3.632   6.928  15.338 -0.0630 -0.0677 -0.2298
10138W        W26032   2.137  11.752   1.438 -0.2390 -0.0487 -0.0456
10139W        W26033  14.602   2.304  14.914 -0.0758  0.2220 -0.1831
10140W        W26034  16.606  18.463   2.416 -0.0003 -0.1075 -0.0146
10141W        W26035   9.710  15.077  12.459  0.3473  0.0759 -0.1305
10142W        W26036   2.493  11.258  11.974  0.0037 -0.0780 -0.0822
10143W        W26037  17.697   0.109  15.409  0.0635  0.3340 -0.2367
10144W        W26038  12.419   3.957  15.130 -0.1429  0.0516  0.2016
10145W        W26039  16.702   7.200   4.069  0.0584  0.0736  0.0086
10146W        W26040   1.614  16.641   1.755  0.0983  0.0285  0.3034
10147W        W26041  12.625   0.881   4.961 -0.4335 -0.2331  0.0444
10148W        W26042  15.642  18.454  13.155 -0.3591 -0.0849  0.0539
10149W        W26043  11.962   7.359   1.613 -0.1485 -0.0323 -0.3034
10150W        W26044   5.063   0.406  12.056 -0.0593  0.0906  0.1643
10151W        W26045   9.190  10.170   0.098 -0.3933 -0.0333  0.1155
10152W        W26046   9.935   8.005   1.110 -0.0002  0.1098  0.0868
10153W        W26047  10.719  15.713  14.723 -0.1954  0.1037  0.3031
10154W        W26048   3.321  13.129   4.495 -0.2096 -0.0763 -0.2383
10155W        W26049  11.654   0.993  12.236 -0.2073  0.0283 -0.2084
10156W        W26050   3.651  15.735   5.299  0.3018 -0.3543  0.0441
10157W        W26051  13.530   0.763  11.633 -0.0195 -0.3124 -0.1692
10158W        W26052  15.526   9.001   2.619  0.1818 -0.0004 -0.2619
10159W        W26053   0.345   4.508  15.676 -0.1514 -0.1003 -0.0293
10160W        W26054   3.855   4.644   1.418  0.2573 -0.1768  0.0996
10161W        W26055   5.064  15.220   2.825  0.2877 -0.0804 -0.1780
10162W        W26056  10.294   5.581   2.539 -0.1383  0.1947  0.1836
10163W        W26057   3.564   7.878   5.222 -0.0322 -0.0753 -0.1388
10164W        W26058   8.073  17.772  11.451  0.1747  0.0976 -0.1429
10165W        W26059   0.256  12.332   3.041  0.1910  0.4656 -0.0794
10166W        W26060   2.694  11.988   4.551 -0.1335  0.0744 -0.3007
10167W        W26061  12.866   1.197  11.249 -0.0139  0.1300 -0.0062
10168W        W26062  14.427  16.154   2.119  0.0743  0.2347  0.0608
10169W        W26063  14.057  16.974   0.181  0.1322 -0.2750  0.0221
10170W        W26064   7.477   1.789   6.484 -0.1266 -0.0078  0.1320
10171W        W26065   9.117   7.400  15.124  0.1358  0.1840  0.2498
10172W        W26066  14.580  12.948  14.140 -0.2044  0.0609 -0.3110
10173W        W26067   1.783   0.645  13.130 -0.0477 -0.1585  0.1332
10174W        W26068   3.873   8.012   4.207 -0.2935  0.0039  0.3476
10175W        W26069   6.599  10.269   2.691 -0.1732  0.4586 -0.2174
10176W        W26070  12.363   6.573   1.667  0.2966  0.0250 -0.1505
10177W        W26071  11.974   0.242   0.766  0.3104  0.2856  0.3845
10178W        W26072   2.779  12.026  12.316 -0.0683  0.1340 -0.0628
10179W        W26073  10.118   9.821  11.723  0.1664  0.0814 -0.1491
10180W        W26074   2.421   7.283   5.680 -0.2533  0.0107  0.0807
10181W        W26075  10.473  14.265  15.253 -0.0507  0.0376 -0.0123
10182W        W26076   0.680  14.940   4.050 -0.2248  0.0635  0.0515
10183W        W26077  16.197   7.861   1.526 -0.1612  0.1773 -0.0265
10184W        W26078   6.780   6.265  12.382  0.1122 -0.0986 -0.3108
10185W        W26079  14.455  15.304   6.271  0.0439 -0.0261  0.1117
10186W        W26080   3.649   9.080   6.293 -0.1132 -0.0055 -0.2289
10187W        W26081  14.815   2.904   3.175  0.1493 -0.0936 -0.1910
10188W        W26082  16.884   4.944  12.061  0.1442  0.1236  0.0185
10189W        W26083   9.755  11.102  13.128  0.0370 -0.1407 -0.0725
10190W        W26084   7.445   2.272  10.763 -0.1052 -0.0111 -0.0877
10191W        W26085   6.903   3.699  11.621 -0.0981  0.0349  0.0451
10192W        W26086   7.106  14.539   4.687 -0.1574 -0.0643  0.4238
10193W        W26087  17.656  16.159  13.695  0.0523 -0.2437  0.1561
10194W        W26088   3.961   1.787   2.073 -0.1006 -0.0818  0.3547
10195W        W26089   4.832   6.284  14.279  0.0231  0.3093  0.0071
10196W        W26090   3.670  11.643   0.101 -0.0492  0.1726  0.2290
10197W        W26091  17.880   5.431   3.992 -0.0614  0.2495  0.0211
10198W        W26092  12.282   8.938  12.723  0.1754  0.0686 -0.2825
10199W        W26093  14.171  17.578  12.323  0.0549  0.0019  0.0376
10200W        W26094  13.622   5.159  15.696 -0.2516  0.0434  0.1195
10201W        W26095   7.331  17.742  13.027 -0.0473  0.0256  0.1202
10202W        W26096  17.274   9.272   5.390  0.1400  0.1300 -0.1870
10203W        W26097   3.932  12.308   2.196 -0.0780 -0.1873  0.3619
10204W        W26098   2.477  17.851  12.963  0.1076 -0.0841 -0.0439
10205W        W26099   0.612   4.454  13.766  0.3440  0.0970  0.0565
10206W        W26100   5.449  10.990   3.808 -0.0079 -0.0116  0.0788
10207W        W26101   7.796  16.747   2.206  0.0327 -0.0477 -0.0974
10208W        W26102   1.837   5.508   4.458  0.0788 -0.3297 -0.0287
10209W        W26103  14.238   7.599   3.773 -0.0897 -0.1852  0.1786
10210W        W26104  11.945  15.788  11.314 -0.2429  0.0795 -0.3301
10211W        W26105  10.808   0.526   2.193  0.0148  0.0684  0.0826
10212W        W26106   5.400  11.400  14.221 -0.1824 -0.0978 -0.0971
10213W        W26107  12.078   3.783  15.866 -0.0138 -0.1428  0.1180
10214W        W26108  17.233   8.731   5.604 -0.2757 -0.2146 -0.1309
10215W        W26109   8.038  14.772  13.111  0.1058 -0.1749 -0.0210
10216W        W26110  10.968   7.726   2.187 -0.1350 -0.0518  0.1483
10217W        W26111   9.669  12.129  12.118 -0.3523 -0.1813  0.2799
10218W        W26112  18.218   2.215  16.141 -0.0266 -0.0815 -0.0766
10219W        W26113   5.962   6.351  11.856 -0.0974 -0.3599 -0.1152
10220W        W26114   3.956   3.622  15.361  0.0832  0.0727 -0.1721
10221W        W26115  12.320  13.561  12.722 -0.0605 -0.2669 -0.0939
10222W        W26116  16.631  10.881   1.131 -0.0997  0.0691  0.0971
10223W        W26117  15.101   1.015  12.533  0.0070 -0.1130 -0.0033
10224W        W26118  12.565   5.548  11.456 -0.1065  0.1682  0.0065
10225W        W26119   3.700   5.290  11.892  0.1382 -0.3417 -0.3389
10226W        W26120   3.337   1.492   0.481  0.0098 -0.1236  0.0844
10227W        W26121  17.383  14.116   5.876 -0.0707  0.1388  0.1417
10228W        W26122  17.459  14.481   0.936  0.1650  0.1611 -0.0068
10229W        W26123  18.290  10.584  12.385  0.1334 -0.0010  0.0251
10230W        W26124  11.032  11.427   0.934  0.2353 -0.1242  0.0607
10231W        W26125  15.249   5.378  13.983 -0.1909  0.0716 -0.1419
10232W        W26126   4.253  10.330   1.733 -0.0640  0.3546  0.2613
10233W        W26127  15.200   0.974  15.151  0.0212  0.0433 -0.2620
10234W        W26128  13.226  18.203   1.377  0.2251 -0.1177 -0.0972
10235W        W26129   6.202   5.298   0.806 -0.0554 -0.4160  0.0153
10236W        W26130  13.219   0.721  14.502  0.1645 -0.1537 -0.1597
10237W        W26131  15.079  13.107  12.381  0.4606  0.2924  0.0502
10238W        W26132   2.520   2.174   3.651  0.0695 -0.1861 -0.1416
10239W        W26133  14.075   6.460  13.502 -0.0419 -0.0908  0.1152
10240W        W26134   9.906  18.165  13.023  0.2402 -0.2610  0.0082
10241W        W26135   9.190   5.231  14.269  0.2987 -0.0546  0.2810
10242W        W26136  17.412   1.984   6.107 -0.0912 -0.0390 -0.2089
10243W        W26137  16.418   9.044  15.103  0.4006 -0.2328 -0.0717
10244W        W26138  12.020   6.864   1.333 -0.0158 -0.1298  0.3017
10245W        W26139   9.442  13.015   2.343 -0.0823 -0.0485 -0.0251
10246W        W26140  17.653   0.205  11.432  0.1331 -0.1094 -0.0467
10247W        W26141   0.189   7.952  15.923 -0.1979 -0.0192  0.0057
10248W        W26142  16.563  14.791  15.937  0.0700 -0.0123 -0.1497
10249W        W26143   1.123  17.337  15.657 -0.3661 -0.0435 -0.1864
10250W        W26144  16.100   0.378  15.944 -0.2460  0.2453  0.0285
10251W        W26145  11.465   3.431  11.238 -0.1777  0.0744  0.0941
10252W        W26146  17.245   7.258   0.258  0.0917 -0.2231  0.2225
10253W        W26147   8.611   5.611  15.107  0.1672 -0.0009 -0.0969
10254W        W26148  14.902  15.697  11.648  0.4703  0.0700  0.1809
10255W        W26149   5.407   4.088  13.076 -0.0605  0.2270 -0.1201
10256W        W26150   0.019   8.540   4.235 -0.2969  0.0663 -0.1191
10257W        W26151  10.758   5.774  12.657 -0.1848 -0.0137  0.2367
10258W        W26152  12.500  12.611  12.773 -0.0189 -0.1062  0.0114
10259W        W26153  13.089   4.543   6.152 -0.0610  0.0584 -0.1542
10260W        W26154   8.610   8.165  10.705  0.0956  0.1934 -0.4147
10261W        W26155  15.321   8.390  13.240  0.0655  0.2296 -0.1286
10262W        W26156   8.167   1.608  11.074  0.0177 -0.0656 -0.1401
10263W        W26157  13.595   6.051   2.933  0.0089  0.2598 -0.0482
10264W        W26158   8.050  10.976   3.571  0.1394 -0.2293  0.2605
10265W        W26159  12.916   3.638   0.400  0.4397 -0.2179  0.1303
10266W        W26160  11.505   4.237  13.375  0.0110 -0.0429  0.0633
10267W        W26161  16.392   8.845   3.615  0.0664  0.0486 -0.1867
10268W        W26162   1.037   5.068  11.832 -0.2791  0.1218  0.3607
10269W        W26163   3.773   6.237   3.584  0.0150  0.1303 -0.1893
10270W        W26164   4.686   8.373   0.009 -0.0776  0.2294  0.1876
10271W        W26165  10.005   4.053  14.099 -0.1787 -0.1040 -0.2645
10272W        W26166  13.197   0.276   0.632  0.2413 -0.1339 -0.1643
10273W        W26167   4.890  11.142  11.727  0.1054  0.0838  0.2014
10274W        W26168  17.970   3.758   5.231  0.4026 -0.1104  0.1810
10275W        W26169   5.165   5.410  12.434 -0.0820 -0.2615 -0.1527
10276W        W26170   2.668   0.262   5.057  0.2886 -0.2409  0.2491
10277W        W26171  14.603   1.910   3.608 -0.0264 -0.1266 -0.0235
10278W        W26172  11.752  10.527  14.666  0.1129 -0.1330  0.1468
10279W        W26173  10.744   5.452   6.011 -0.1166 -0.0429 -0.0507
10280W        W26174   5.527  17.934  12.096 -0.2196  0.1598 -0.2538
10281W        W26175  13.609   5.338   1.684  0.2112 -0.1289  0.3091
10282W        W26176  18.260  15.519  15.091  0.2389  0.0561  0.1663
10283W        W26177  12.435   8.967  14.994  0.0178  0.1575  0.2954
10284W        W26178  13.444   2.526  12.008  0.0765  0.1211 -0.0438
10285W        W26179   2.777  10.011   5.592  0.0256  0.3431 -0.0476
10286W        W26180   3.708   2.316  13.951 -0.0860  0.0771  0.1585
10287W        W26181   5.363  10.298   4.177 -0.1457  0.2629  0.1410
10288W        W26182  11.589  17.098  11.522  0.3235  0.3664 -0.0330
10289W        W26183  10.830  16.054  15.153  0.4092  0.2444  0.0715
10290W        W26184  11.875   9.603  13.859 -0.3158 -0.2726  0.0371
10291W        W26185   8.000   0.729   3.770  0.0975  0.1409 -0.1031
10292W        W26186  15.979   4.028  14.370 -0.0992 -0.3114  0.3188
10293W        W26187  14.431   2.200  12.216  0.2572 -0.3397  0.1071
10294W        W26188   1.412   8.147   0.798  0.1717 -0.4158 -0.1057
10295W        W26189   9.660  11.931  13.527  0.0487  0.0527 -0.3645
10296W        W26190  16.838  17.501   0.630 -0.2057 -0.1640 -0.0686
10297W        W26191  10.777  11.150   3.852 -0.2375 -0.4293 -0.1652
10298W        W26192   5.227  12.473   5.243  0.0370 -0.3114  0.1930
10299W        W26193  10.943   9.963  12.194 -0.0740 -0.1279 -0.1817
10300W        W26194   2.047   7.776   0.612 -0.1456  0.2981 -0.0266
10301W        W26195  15.039  13.171  15.402 -0.3565  0.0056 -0.0146
10302W        W26196  13.971   2.711  12.993 -0.2091  0.3512  0.0412
10303W        W26197   7.179   8.908  15.983  0.1047 -0.0904 -0.1437
10304W        W26198   9.912  12.937  11.446  0.0523 -0.0236 -0.1487
10305W        W26199   2.399  10.768  12.208  0.1453 -0.3524 -0.2363
10306W        W26200   6.228   8.614   5.067 -0.3432 -0.2644  0.1467
10307W        W26201   8.594   4.136   3.394 -0.4028 -0.2594 -0.1506
10308W        W26202   0.246  14.632  15.133 -0.1829  0.0715 -0.0088
10309W        W26203  16.286   7.004   2.180  0.2096  0.1463 -0.4556
10310W        W26204   9.072  17.195  14.136 -0.3417  0.1007 -0.1195
10311W        W26205   9.321   1.578  12.048 -0.3371  0.2603 -0.0909
10312W        W26206   2.708   8.189   2.709 -0.0407  0.0691 -0.1694
10313W        W26207   9.480  14.620   0.991 -0.0779  0.2795  0.4076
10314W        W26208   1.621  10.892  12.910 -0.1483 -0.0299  0.3119
10315W        W26209  11.880  11.836  13.136  0.3446 -0.1207  0.2622
10316W        W26210  11.885   1.433   5.054 -0.3686 -0.1567 -0.3436
10317W        W26211  16.192   2.342   3.605  0.3624 -0.0924 -0.3539
10318W        W26212   3.376   0.605   0.977  0.2010 -0.1612  0.0905
10319W        W26213  15.697   9.810  14.990 -0.1402  0.0217 -0.4054
10320W        W26214   9.292  12.624   1.449 -0.1158  0.2741 -0.0314
10321W        W26215   5.769   2.472   1.031  0.0473 -0.1290 -0.1147
10322W        W26216   7.789  10.327  12.975  0.0127  0.3387 -0.1399
10323W        W26217  11.412   8.185  14.930 -0.0895 -0.1516  0.0584
10324W        W26218   9.352   4.796  15.880  0.0722  0.0421 -0.1776
10325W        W26219   3.392  11.675   3.772 -0.3916 -0.1788  0.1213
10326W        W26220  16.835   2.406  11.765  0.5234 -0.3890  0.0598
10327W        W26221   0.374  13.719  11.599 -0.3375 -0.2127 -0.0075
10328W        W26222   7.455   9.270  10.797  0.4711 -0.1120  0.1806
10329W        W26223   0.608   3.863   0.781 -0.0362 -0.0038  0.1586
10330W        W26224   9.179   6.846   0.279  0.2290 -0.5107  0.0902
10331W        W26225  15.106  11.674  10.999  0.2362  0.0225  0.1759
10332W        W26226  17.743  16.024   4.507 -0.1186  0.0331 -0.0696
10333W        W26227   2.103  16.623  14.833  0.0552 -0.0079 -0.2436
10334W        W26228   9.888   8.812  14.300  0.0762 -0.3347 -0.0502
10335W        W26229   2.072  14.124   1.184 -0.0511 -0.0356  0.0623
10336W        W26230   5.009  18.347   2.437  0.0928  0.2873  0.0172
10337W        W26231   1.982   0.653  11.282  0.2021 -0.0861 -0.1225
10338W        W26232   4.481  11.576  11.625  0.2044 -0.1277 -0.0895
10339W        W26233   1.447  11.499   0.185  0.2717  0.2837 -0.1362
10340W        W26234  11.680   0.040   4.762 -0.0788  0.2394 -0.3123
10341W        W26235   2.313   5.864  16.067 -0.1012 -0.0599  0.0344
10342W        W26236  15.205   1.575  13.703  0.0403  0.0889  0.1439
10343W        W26237   8.136   7.503  12.425  0.0188  0.2310 -0.1417
10344W        W26238   0.606   7.548   0.931 -0.1862 -0.2057  0.0643
10345W        W26239   6.927   5.210   4.301  0.0918 -0.1046  0.0538
10346W        W26240  16.653   6.905   1.841  0.1941 -0.0569 -0.1747
10347W        W26241  17.449  11.895   1.175 -0.0087 -0.0255  0.0280
10348W        W26242   5.844  13.040  12.661  0.2157  0.1517  0.3388
10349W        W26243   9.550  17.347   4.974 -0.1717  0.1004 -0.2133
10350W        W26244   6.580   9.555  15.289  0.1286 -0.0342  0.3079
10351W        W26245   4.274  10.034  15.693  0.0534 -0.1591  0.0814
10352W        W26246  15.912   2.115  13.399  0.1167 -0.0410  0.1334
10353W        W26247   0.341   0.336   5.195  0.2699 -0.1248 -0.0240
10354W        W26248   3.846  11.330   4.525  0.3412  0.1501  0.3478
10355W        W26249   7.361   5.019  10.509 -0.0386  0.0786  0.2075
10356W        W26250  12.655   5.565  14.275 -0.2507 -0.1834  0.0487
10357W        W26251  15.333   2.189  14.851 -0.0424 -0.4900 -0.0848
10358W        W26252   7.297   3.520   2.569 -0.0871  0.1482 -0.3587
10359W        W26253   1.438   6.054  13.486 -0.3997 -0.2513 -0.0955
10360W        W26254   2.272   7.799  10.956 -0.1191 -0.0824  0.1997
10361W        W26255   3.205   9.930  14.603  0.1772 -0.4037 -0.1016
10362W        W26256  17.586   7.437  11.761 -0.1007 -0.0074  0.0526
10363W        W26257   1.051  18.097   3.304  0.0364 -0.1730 -0.0821
10364W        W26258   0.588   9.190   2.357  0.0285 -0.1269 -0.2563
10365W        W26259   9.731   9.616   1.470  0.1175  0.0895  0.0282
10366W        W26260  16.706   4.049  13.185  0.1079  0.1394  0.1070
10367W        W26261  16.072   6.007  13.008 -0.0916 -0.3639  0.0122
10368W        W26262   0.817   0.902  13.919 -0.2080 -0.1042  0.1279
10369W        W26263   2.318   7.906   2.956  0.4537  0.2035  0.1794
10370W        W26264   9.873   3.516   1.315  0.1481 -0.0567 -0.0471
10371W        W26265   2.817   6.064   4.605  0.0788  0.1387  0.2392
10372W        W26266  15.849   1.084   1.013 -0.2290 -0.1823  0.0275
10373W        W26267   6.412  12.419  13.011  0.1518 -0.0869 -0.1569
10374W        W26268  14.461  11.404   3.524  0.2085 -0.1603 -0.0713
10375W        W26269   3.953  16.178   5.357 -0.0573  0.1538  0.1292
10376W        W26270   8.276   4.416   1.570  0.0023  0.1977  0.0792
10377W        W26271   7.946  10.019  11.877  0.0147  0.0804 -0.0968
10378W        W26272  10.074   1.273  14.612 -0.0806 -0.2919  0.0801
10379W        W26273   1.559   5.367   3.092 -0.0713  0.0481  0.1845
10380W        W26274  13.044  15.802   1.949  0.1963 -0.1127 -0.0249
10381W        W26275  17.783   5.883   3.271  0.3827  0.0996  0.1168
10382W        W26276   7.642  11.066  12.496 -0.4123 -0.1780  0.0665
10383W        W26277  10.064   8.315   0.275  0.1754 -0.0815  0.0444
10384W        W26278  14.254  14.444  13.516  0.0676 -0.0011 -0.0134
10385W        W26279   0.476   2.901   1.764  0.5100  0.0848  0.2765
10386W        W26280   9.340   0.862  16.030 -0.0144 -0.0083  0.1583
10387W        W26281   1.363  14.598  13.436  0.0934  0.2501  0.0937
10388W        W26282   9.424   6.885  13.147  0.0378 -0.0273  0.1199
10389W        W26283   8.860   4.392   1.379  0.2581  0.6731  0.3720
10390W        W26284  13.161   4.170  12.388  0.2088  0.1289  0.4664
10391W        W26285   5.583   1.453  13.018  0.4230  0.3134  0.1967
10392W        W26286  13.824   2.056   5.434 -0.2386  0.0485 -0.2524
10393W        W26287   3.887   0.760   0.226  0.0791  0.1404 -0.0221
10394W        W26288   3.816  16.306  15.450  0.0697 -0.0616 -0.2708
10395W        W26289  15.790  12.801   2.575  0.0361 -0.1331  0.1789
10396W        W26290  15.295  17.483  13.040 -0.0675 -0.3438 -0.2822
10397W        W26291  13.963  10.935   1.253 -0.0257  0.2346  0.0954
10398W        W26292   2.901   8.811  11.360 -0.0016  0.0593 -0.0753
10399W        W26293  18.344  16.527  13.176  0.1503 -0.1985 -0.2871
10400W        W26294  15.016   9.861  15.307 -0.0237 -0.2376 -0.1692
10401W        W26295  13.213   5.082  13.485  0.0324 -0.2848 -0.0640
10402W        W26296   7.742  10.684   0.392 -0.0872  0.2217  0.1524
10403W        W26297  10.564  13.923   3.799 -0.3335 -0.1516  0.2674
10404W        W26298   6.983  15.013  14.045  0.1125  0.0698  0.0619
10405W        W26299   0.303   2.627  12.135 -0.3427  0.3103  0.0648
10406W        W26300  16.529  15.141   4.371 -0.1172 -0.2345  0.0561
10407W        W26301  15.541   1.379  11.905  0.0202  0.2535  0.3454
10408W        W26302   5.729   0.908  14.267 -0.1591  0.2351  0.0232
10409W        W26303   1.651   2.710  15.009 -0.4140 -0.4911  0.0537
10410W        W26304   4.660  17.345   5.297 -0.4110  0.0766  0.0579
10411W        W26305   1.694  12.558  13.095  0.3186 -0.2370  0.1045
10412W        W26306  16.560   7.588   1.405 -0.5141  0.1849  0.1096
10413W        W26307  14.066   7.430  15.276 -0.0433  0.1577 -0.2177
10414W        W26308   9.893  16.722   1.455 -0.1019  0.1244  0.1320
10415W        W26309   6.119   7.012  14.259 -0.1248 -0.0996  0.1512
10416W        W26310   7.672  17.481  13.512 -0.0590 -0.0232  0.1557
10417W        W26311   4.166   0.049   1.295  0.1307 -0.1742 -0.0345
10418W        W26312   2.871   8.106  14.165 -0.2508 -0.3213 -0.1807
10419W        W26313   6.794  16.852   2.729 -0.0232  0.2380  0.5483
10420W        W26314   5.194   0.662   4.326 -0.0917  0.0710  0.1674
10421W        W26315   3.601   8.536  13.824 -0.0077 -0.1447 -0.1390
10422W        W26316   2.659   4.522   1.248 -0.1983  0.0918 -0.2048
10423W        W26317  10.116  10.914   5.189  0.2166  0.0178 -0.0002
10424W        W26318   1.002  15.552   0.252 -0.1253  0.2231 -0.0177
10425W        W26319   9.661   1.256  11.859 -0.0672  0.0898  0.4429
10426W        W26320  16.359  16.123  14.650  0.0844  0.1342 -0.0921
10427W        W26321   4.799   1.093  15.388 -0.1690  0.0045  0.0254
10428W        W26322   1.299   1.065   3.160 -0.0440 -0.3484 -0.1182
10429W        W26323   8.369   0.283   2.329  0.0571  0.1269  0.1752
10430W        W26324   3.072  16.979   5.777 -0.1829 -0.2420  0.0433
10431W        W26325   7.625   3.378  10.717  0.0192 -0.0881  0.0460
10432W        W26326   6.599   9.570   3.110 -0.0275 -0.0829 -0.0154
10433W        W26327   6.654   4.612   2.217  0.0873  0.1598 -0.1851
10434W        W26328  16.814   1.240  12.677  0.0343  0.0364  0.2267
10435W        W26329   6.588   6.594   4.720 -0.0101 -0.0721 -0.0892
10436W        W26330   0.232  14.646   4.103  0.0114  0.6357 -0.2468
10437W        W26331   9.108   7.005   4.869  0.1113  0.1574 -0.0469
10438W        W26332  15.283   1.843  11.975 -0.1626  0.2010 -0.0976
10439W        W26333   6.084   1.295  14.270 -0.1616 -0.1922  0.2356
10440W        W26334   5.490  16.015  11.789  0.4624 -0.0870 -0.0357
10441W        W26335  10.951  10.377  11.893 -0.2163 -0.1197 -0.0564
10442W        W26336  12.773   4.625   1.080  0.0771 -0.3521  0.0819
10443W        W26337   5.273   8.852  11.230 -0.2801  0.3237 -0.0469
10444W        W26338   4.490  18.271  13.790 -0.0862 -0.2061 -0.0225
10445W        W26339   5.763   4.121   2.772  0.3619  0.0566  0.1756
10446W        W26340  12.260   2.481  15.632 -0.1113 -0.4337 -0.1691
10447W        W26341  10.518   6.215  15.841  0.2596 -0.1592 -0.1304
10448W        W26342   7.611   5.309   1.658 -0.2610  0.1410  0.0830
10449W        W26343   4.541   9.058  14.089 -0.3166 -0.5025 -0.2359
10450W        W26344   8.878   4.469  11.245  0.4138 -0.3847 -0.1157
10451W        W26345   0.497  13.790  14.377  0.1473  0.0372 -0.0143
10452W        W26346  11.152   0.609   1.644  0.2580  0.0056 -0.0474
10453W        W26347  15.331   8.589  15.359 -0.1635 -0.0326 -0.0040
10454W        W26348   0.969   8.108   1.618 -0.0564  0.1336 -0.2709
10455W        W26349  11.833  12.721  11.380  0.2395  0.0678  0.3107
10456W        W26350   0.787   7.915  15.226 -0.1803  0.0292 -0.0177
10457W        W26351   2.855   5.723  11.904 -0.0162 -0.3042 -0.1911
10458W        W26352  15.398   6.203  13.113 -0.1504 -0.1126  0.1144
10459W        W26353  15.560   5.370   4.429  0.0604 -0.2657  0.1366
10460W        W26354  14.885   8.819   4.605  0.1046 -0.2975 -0.0573
10461W        W26355  15.067   8.947  12.874 -0.0562  0.3306  0.1124
10462W        W26356  17.852   2.188   1.319  0.0701 -0.2949 -0.1489
10463W        W26357   8.423  10.815   4.960 -0.1284  0.3352 -0.1916
10464W        W26358   3.783  17.746  15.408  0.2389 -0.2713  0.0918
10465W        W26359  13.997  17.269   5.429 -0.2548  0.0565 -0.3725
10466W        W26360   5.122   9.359   4.634  0.0080  0.2784  0.0970
10467W        W26361  16.857   8.492   1.598 -0.0226  0.1537 -0.4995
10468W        W26362   6.901  10.773   2.668 -0.0156 -0.1543  0.1017
10469W        W26363   9.062   0.498  12.057 -0.1136 -0.2277  0.3133
10470W        W26364   0.880  11.053  11.551  0.0085  0.0903  0.2632
10471W        W26365   4.699   2.465  13.516  0.2395 -0.1887  0.1697
10472W        W26366  16.702   3.474   4.611  0.1065 -0.2143  0.1330
10473W        W26367   9.720  12.704   5.082  0.1237 -0.2214  0.0722
10474W        W26368  17.470  10.432   3.399 -0.3384 -0.1237  0.1643
10475W        W26369  11.922   0.431   2.834 -0.1616 -0.1871 -0.1483
10476W        W26370   8.097   6.026  15.790 -0.0846  0.0246 -0.2291
10477W        W26371  16.534   1.442  14.663 -0.0524 -0.0283 -0.0181
10478W        W26372   6.479  11.267  14.874  0.0854  0.3300 -0.1255
10479W        W26373  11.227   8.263  13.980  0.0548  0.3173  0.1825
10480W        W26374  10.296  10.392   3.054  0.3786 -0.1171 -0.2411
10481W        W26375  10.493  11.505   0.928 -0.1071  0.3260 -0.7109
10482W        W26376   0.126   3.895   1.699  0.0590  0.2646  0.1425
10483W        W26377  14.973   3.133  13.747  0.3176  0.2489 -0.2797
10484W        W26378   6.529  12.703   1.281 -0.0018  0.2998  0.1931
10485W        W26379   1.057  15.542   4.907 -0.1314 -0.1097  0.1535
10486W        W26380   5.263   1.773   0.882 -0.1451  0.1658  0.0813
10487W        W26381   9.699  13.430   3.426 -0.2142  0.1705 -0.2305
10488W        W26382   4.400   5.954  12.016 -0.1005  0.0926 -0.3523
10489W        W26383  17.452   3.471  14.476 -0.0982  0.0030 -0.0375
10490W        W26384   6.526  16.476  14.756  0.2448 -0.1651 -0.3398
10491W        W26385   8.476   8.716   5.402 -0.0171 -0.0629 -0.0334
10492W        W26386  15.788  13.031   5.593  0.0913 -0.2358 -0.0112
10493W        W26387  13.798  17.038   4.810  0.0102 -0.3398  0.0081
10494W        W26388  11.675   3.716   5.979 -0.1175  0.2427  0.1314
10495W        W26389   7.956  11.723   2.171  0.1031  0.0579  0.2059
10496W        W26390  16.662   0.294  12.289 -0.1166  0.0096 -0.1412
10497W        W26391   9.479   9.382  14.492  0.5621 -0.0921 -0.0652
10498W        W26392   3.984   4.682  12.040  0.3280 -0.0696  0.0649
10499W        W26393  14.656  11.129   5.088 -0.2500 -0.2002 -0.2100
10500W        W26394  10.893   3.474   3.038 -0.0561  0.2046  0.1182
10501W        W26395  16.880  11.213   0.863  0.0295 -0.1485  0.2107
10502W        W26396  16.180   1.200   2.683  0.0724 -0.0605  0.1883
10503W        W26397   8.219  12.128  11.255 -0.0044  0.0391 -0.1664
10504W        W26398   1.717  16.082   3.902 -0.2678  0.1623 -0.1133
10505W        W26399   5.912   1.995   4.600  0.1401  0.0305 -0.0284
10506W        W26400   5.253  13.627  15.900  0.0757 -0.2679  0.0034
10507W        W26401  13.768   4.633   5.531 -0.2575 -0.1319  0.0771
10508W        W26402   1.417   2.076   3.442  0.2587  0.0114 -0.0121
10509W        W26403   8.968   6.674   5.199 -0.0758 -0.0727  0.0228
10510W        W26404  17.946   2.174   4.025  0.1409 -0.2720  0.1378
10511W        W26405  12.891   0.605  13.077  0.3959  0.0213  0.1281
10512W        W26406  15.011  15.256  11.455  0.0720  0.1009  0.2335
10513W        W26407  10.352   3.804   0.635  0.3081 -0.0522  0.0899
10514W        W26408  12.724   8.896   3.701 -0.0012 -0.0300  0.1285
10515W        W26409   3.729   4.219  12.638  0.3034  0.2241 -0.1072
10516W        W26410  16.424   6.111  15.903  0.1217  0.1220 -0.1929
10517W        W26411   8.846  14.784   3.004  0.2274 -0.1477 -0.1380
10518W        W26412   7.758  11.526   1.557  0.1837  0.1404  0.0634
10519W        W26413  12.672   5.530   0.592 -0.0883  0.2145  0.2606
10520W        W26414  17.804   9.586   2.805 -0.1517 -0.0993 -0.2538
10521W        W26415  14.883   5.942   3.671 -0.0590  0.3125  0.3908
10522W        W26416  17.535   9.919   2.139  0.2440 -0.1664 -0.2744
10523W        W26417   9.599   6.473  11.630 -0.0027 -0.1327  0.1053
10524W        W26418  16.352  11.897   0.156  0.1400 -0.0576 -0.0454
10525W        W26419   8.409  14.718  11.109  0.0380 -0.0558  0.2061
10526W        W26420   0.321   3.682   4.614  0.2868 -0.0227 -0.1938
10527W        W26421   6.748   1.030  13.086 -0.0036 -0.0219 -0.1810
10528W        W26422  11.767   9.997  15.430 -0.1728 -0.0425 -0.2018
10529W        W26423   6.238  14.305  11.589 -0.0165 -0.2204  0.1579
10530W        W26424  17.488   0.829  15.875  0.0226 -0.1109  0.1131
10531W        W26425  16.477  17.702  14.439 -0.0329 -0.2242  0.4809
10532W        W26426   5.930   4.147   5.064 -0.0358 -0.0034  0.1291
10533W        W26427  16.740   1.480  15.324 -0.0870 -0.2075  0.3690
10534W        W26428  12.934  16.605   2.389 -0.0325  0.0903 -0.2105
10535W        W26429  13.600  11.426  11.865 -0.1069 -0.1935  0.1154
10536W        W26430  15.042   9.501  12.751 -0.2258 -0.0276 -0.4720
10537W        W26431   2.594   0.263  11.124  0.1142 -0.1302  0.0464
10538W        W26432   0.763   4.200  14.673 -0.0261 -0.1600  0.1828
10539W        W26433   7.716  17.624   3.321  0.2708  0.1081  0.1016
10540W        W26434   5.762  15.246   0.399 -0.2439 -0.3242 -0.1605
10541W        W26435   0.310  11.789   2.622 -0.1610  0.0537  0.0882
10542W        W26436   8.654  17.681   1.653 -0.2396  0.2501 -0.2173
10543W        W26437   8.627   0.210   0.503 -0.3647 -0.0174  0.0732
10544W        W26438   4.056  15.881  14.654 -0.0317 -0.0440  0.2594
10545W        W26439   7.117   9.329   4.340 -0.0628  0.1837 -0.1339
10546W        W26440   2.834  12.739   4.529 -0.1531 -0.1066  0.2876
10547W        W26441  13.924  13.812   0.719 -0.0596 -0.4895 -0.0574
10548W        W26442  14.150   7.185   5.412 -0.0269  0.4218 -0.0572
10549W        W26443  14.080  14.920   3.105 -0.0453 -0.1866  0.0411
10550W        W26444   1.451  17.990  12.861 -0.3609 -0.2525 -0.3846
10551W        W26445  15.387   4.165   0.456  0.2426  0.1587 -0.1223
10552W        W26446   5.042  11.025   3.454  0.0171 -0.0320 -0.1488
10553W        W26447  16.790  11.080  12.713  0.1651  0.0171 -0.1524
10554W        W26448  16.620   7.036   3.224  0.2142 -0.1229 -0.0945
10555W        W26449  15.154   5.603  10.934  0.2786 -0.0573  0.2338
10556W        W26450  13.342  11.422  14.169  0.0641 -0.0263  0.1355
10557W        W26451   0.148  10.969  15.431  0.0760  0.1179  0.0421
10558W        W26452  11.896  15.574   3.461  0.0181  0.1874  0.0555
10559W        W26453  18.078  10.027   4.666 -0.1890 -0.0818  0.1639
10560W        W26454   3.164  13.946   0.103 -0.3065 -0.1391  0.1010
10561W        W26455   2.129   6.772   4.702 -0.2163 -0.2347 -0.1597
10562W        W26456  17.220   8.777   2.596  0.1583  0.0948  0.1392
10563W        W26457  18.347  11.809  12.473 -0.0730 -0.0033 -0.1616
10564W        W26458  14.938   9.168   0.328 -0.2728  0.2070  0.3573
10565W        W26459   7.659   9.461  10.112  0.2230  0.0870 -0.0719
10566W        W26460   4.261  11.998  14.683  0.1779  0.1124 -0.0849
10567W        W26461  18.022   7.971   3.328  0.0793 -0.0778  0.1638
10568W        W26462  10.277  11.151   1.329  0.2710 -0.0299 -0.0052
10569W        W26463  17.239   6.555   5.651 -0.3900 -0.0190  0.1032
10570W        W26464  17.552  13.289   5.422  0.1553  0.1622  0.2385
10571W        W26465  12.048  11.374   3.867 -0.0081 -0.2004 -0.1526
10572W        W26466   5.724   2.093  14.597  0.1642 -0.2413  0.0912
10573W        W26467   1.532   8.302  13.727  0.0290 -0.0205 -0.0741
10574W        W26468  15.317   4.702  15.649  0.2245  0.1892 -0.1714
10575W        W26469  15.684  15.537  13.091 -0.0287  0.0212  0.0151
10576W        W26470  15.307   5.790  15.251 -0.1861  0.0116 -0.0846
10577W        W26471   3.822  18.095   2.569 -0.0667  0.2520  0.1446
10578W        W26472  15.032   4.963   4.366 -0.2175 -0.0875  0.0787
10579W        W26473   5.913   8.923   1.534 -0.0111  0.2252 -0.2169
10580W        W26474  12.160  14.700   0.502  0.0662  0.0210  0.0968
10581W        W26475  10.898   5.455   5.497  0.2427  0.0694  0.1732
10582W        W26476  12.308   8.105  15.558 -0.0113  0.0929  0.0536
10583W        W26477   1.535  10.142  11.663  0.1323 -0.0135  0.0124
10584W        W26478  13.001   6.137   5.776  0.0838  0.3707  0.0944
10585W        W26479   4.134  15.744  11.570  0.1804  0.1656 -0.1568
10586W        W26480   1.259  11.647   0.688 -0.0330  0.1075 -0.2540
10587W        W26481  15.462   9.339  14.084  0.0549  0.1115  0.3989
10588W        W26482   2.596   5.377   5.736 -0.2242 -0.1610  0.4208
10589W        W26483  16.853   3.620  14.709  0.1098 -0.2976  0.2178
10590W        W26484  10.073  11.051  14.768 -0.0081  0.0542  0.0502
10591W        W26485  12.390  13.518  11.911  0.1918  0.3996 -0.0129
10592W        W26486   8.810  14.043  14.071 -0.1918  0.1091 -0.1354
10593W        W26487  15.434  14.944   3.763 -0.1669  0.0934 -0.0921
10594W        W26488  17.174   5.612  16.030  0.0409 -0.0107 -0.2477
10595W        W26489   0.429  13.900   3.059 -0.1625  0.0104 -0.0009
10596W        W26490  13.421   7.208  14.170  0.0344 -0.1971 -0.2183
10597W        W26491  12.363  10.200  11.120 -0.0770 -0.1720  0.2055
10598W        W26492   2.578   6.412  13.391 -0.0248  0.2061 -0.2735
10599W        W26493  13.295   2.358  15.813 -0.2243  0.0029 -0.1615
10600W        W26494   3.247  16.560  12.587 -0.0203 -0.0580 -0.0130
10601W        W26495  12.311  10.799   5.079 -0.0272 -0.1311  0.0126
10602W        W26496  13.082  15.030   0.693  0.0166  0.1217 -0.3709
10603W        W26497  11.677   1.941   3.347 -0.1864 -0.0305  0.0001
10604W        W26498  10.916   1.766   2.866 -0.3243  0.1675  0.4408
10605W        W26499  10.616  13.319  12.263 -0.0130 -0.4655 -0.2419
10606W        W26500  17.685   4.616   4.441 -0.0436  0.0364 -0.2885
10607W        W26501   4.044   0.885  15.497  0.2898 -0.0402 -0.1912
10608W        W26502   1.575   7.602   3.644  0.3896  0.1513  0.1476
10609W        W26503  16.103   7.470   1.142 -0.0149  0.1119 -0.1549
10610W        W26504   0.847   6.000   3.648 -0.2461  0.1119  0.2500
10611W        W26505   4.763   6.896  12.934  0.0272 -0.0713  0.0279
10612W        W26506   6.848   5.109  13.769 -0.0670 -0.1888  0.2436
10613W        W26507   9.903   6.365   4.193  0.0331 -0.3829 -0.1167
10614W        W26508  11.669   4.992   0.714  0.2416  0.2248 -0.0552
10615W        W26509   4.831  13.205  11.854 -0.3555 -0.2822 -0.2240
10616W        W26510  10.357  18.214   4.355 -0.2345  0.1946 -0.0329
10617W        W26511   8.542  12.379   3.290  0.0660  0.0780  0.0070
10618W        W26512  11.205   3.353  12.978 -0.0402  0.0982  0.2761
10619W        W26513   7.752   6.618  11.187  0.3027 -0.1813  0.1643
10620W        W26514   1.039  16.296   1.331 -0.1606  0.1649 -0.3696
10621W        W26515  17.666  16.813   1.930 -0.0168 -0.1288 -0.2891
10622W        W26516   5.155  10.851   1.273 -0.3087 -0.0054 -0.2322
10623W        W26517  17.382   4.684  11.991 -0.0243  0.2139  0.2150
10624W        W26518   9.552   0.156   0.594 -0.2991 -0.3014  0.4001
10625W        W26519   9.796   4.673   2.303  0.0173 -0.3397 -0.0119
10626W        W26520  10.445   0.436  13.095 -0.0316  0.0032 -0.1000
10627W        W26521  12.430  15.197   1.661 -0.0428 -0.0337 -0.2497
10628W        W26522   7.232   7.764   0.430  0.1425  0.1054 -0.1090
10629W        W26523  13.346  16.292  15.045  0.2431 -0.0075 -0.0167
10630W        W26524   3.511  13.665   2.953 -0.3352  0.1509 -0.0861
10631W        W26525  12.335   5.074   0.539  0.0562 -0.1104 -0.0386
10632W        W26526   8.508  16.004   1.401  0.2484 -0.0943 -0.1615
10633W        W26527   0.427   2.222   1.642 -0.2343  0.0450  0.0956
10634W        W26528  14.749   1.505  13.321  0.4689  0.1907  0.0151
10635W        W26529  16.865  18.357  13.067 -0.2892 -0.2649  0.1805
10636W        W26530   2.489   9.683   1.363  0.5669 -0.3930 -0.1329
10637W        W26531  14.143   0.186  15.366  0.0755  0.1763 -0.4705
10638W        W26532  13.128   0.985   5.827  0.1365  0.1116 -0.0351
10639W        W26533   0.188  10.988   1.792 -0.2142 -0.0276 -0.0292
10640W        W26534   0.949  13.544   2.352  0.1922 -0.0380  0.3264
10641W        W26535   7.730  10.533  11.059 -0.2322  0.0007 -0.1329
10642W        W26536   3.823   7.792  14.464  0.0673  0.5185  0.4594
10643W        W26537  11.448   3.006   0.970 -0.3051  0.0701  0.2236
10644W        W26538   4.398   2.764  14.428 -0.0286  0.2374  0.1242
10645W        W26539   9.588  12.268   1.589 -0.3247  0.3992  0.0921
10646W        W26540  10.032   1.025  11.464  0.1197  0.1580  0.0974
10647W        W26541   1.807   2.480   3.318  0.0710  0.1581 -0.3397
10648W        W26542   0.784  10.813   2.585  0.2285  0.1767 -0.1119
10649W        W26543  11.139   1.311  12.715  0.2982 -0.0352 -0.0212
10650W        W26544   2.431  16.289   2.483 -0.1390 -0.0780 -0.0199
10651W        W26545   1.749   4.772   4.677 -0.0974  0.1929 -0.0940
10652W        W26546   2.899  14.130  11.607 -0.0329 -0.2011  0.1880
10653W        W26547   5.791   4.364  13.482 -0.0066  0.2584 -0.0523
10654W        W26548   7.812   0.176  11.025 -0.0625 -0.0510  0.2238
10655W        W26549   9.101  13.060  11.828 -0.3104 -0.1104  0.0731
10656W        W26550  11.255   5.160   3.773 -0.1188  0.1083 -0.1941
10657W        W26551   5.560  16.626  12.680 -0.3756  0.2397  0.3083
10658W        W26552   9.674   5.597   3.758 -0.0242  0.2360 -0.0466
10659W        W26553   6.550  10.879   6.098  0.0039  0.1050  0.2064
10660W        W26554  11.177  13.262   0.080  0.3416  0.2330  0.0977
10661W        W26555  10.281   0.501   0.925  0.2440 -0.1082  0.1855
10662W        W26556  14.251   1.689  12.327 -0.1031 -0.1762 -0.0671
10663W        W26557  10.344   6.339  14.517 -0.1208  0.0070  0.3715
10664W        W26558  16.527  10.409   5.550  0.1196  0.0828  0.0083
10665W        W26559   0.843   2.647   4.405  0.0819  0.1338 -0.1288
10666W        W26560  18.435   0.768  11.805  0.3157 -0.0123 -0.0022
10667W        W26561  11.024  14.338   2.939  0.2034 -0.2198  0.2980
10668W        W26562  15.645  11.694  12.159 -0.0753  0.0383  0.0762
10669W        W26563  13.912  16.215   2.397 -0.1708 -0.1683  0.1511
10670W        W26564  15.258  12.345   4.939  0.0073 -0.0568 -0.1279
10671W        W26565  18.446   5.403  15.399 -0.0884 -0.0867  0.0347
10672W        W26566  16.520   9.752  11.097  0.4384  0.3552 -0.0350
10673W        W26567   6.167   5.294   3.397  0.2673  0.1083 -0.3384
10674W        W26568   3.872   6.001   2.506  0.2346  0.4755  0.0977
10675W        W26569   2.067   4.480   3.466 -0.0204  0.1052  0.4026
10676W        W26570  18.410   6.760   4.723  0.0326  0.0510 -0.3257
10677W        W26571   8.686  13.014   5.103  0.2326  0.0669  0.3707
10678W        W26572   7.353   2.449  14.395 -0.2597 -0.2562 -0.0546
10679W        W26573   6.827  17.272   5.193 -0.1186 -0.0240 -0.0453
10680W        W26574  12.741   9.534  13.327  0.3320 -0.0320 -0.0314
10681W        W26575   5.289  13.519   5.224  0.2729 -0.1202 -0.0311
10682W        W26576   8.673   2.416  11.345 -0.2105 -0.2786  0.2749
10683W        W26577   6.018  15.277   2.188  0.4368 -0.0749 -0.1122
10684W        W26578  12.233  14.846   5.084 -0.1784 -0.0395 -0.0138
10685W        W26579  14.684  10.946   3.454  0.0964  0.1386  0.1355
10686W        W26580  17.667   7.574   0.181 -0.0262  0.1609 -0.1751
10687W        W26581  10.451   9.476   1.534  0.1693 -0.3112 -0.0211
10688W        W26582   4.228  10.851  13.794  0.0647  0.0828 -0.3409
10689W        W26583  14.366   9.234  14.797  0.1008 -0.0776 -0.2526
10690W        W26584  10.758   3.711   1.303  0.0961 -0.2129  0.2636
10691W        W26585   5.859   9.081   4.415 -0.2969  0.1098  0.0627
10692W        W26586  11.198   7.202   1.353  0.1558 -0.1611  0.3153
10693W        W26587   4.760   8.585  14.973  0.5038 -0.0050  0.2535
10694W        W26588  17.970  14.061  11.510 -0.0304 -0.3533 -0.0769
10695W        W26589   3.054   4.263  12.872 -0.2165  0.1826  0.0442
10696W        W26590   5.496  13.584  13.914  0.3209  0.0804 -0.0508
10697W        W26591  15.233  11.402   3.982 -0.0845 -0.0658  0.1747
10698W        W26592  11.559  18.414   0.907  0.2845  0.4798 -0.3310
10699W        W26593  15.852  14.454  13.512 -0.1226  0.1595 -0.0715
10700W        W26594   4.301  16.417  15.710  0.1615 -0.0572 -0.2657
10701W        W26595   8.429   9.461   3.752  0.0577 -0.0549  0.0629
10702W        W26596  17.340   1.496   5.672  0.0953  0.1346 -0.0417
10703W        W26597   1.614  10.045  13.277 -0.3322  0.1326  0.0351
10704W        W26598  13.678  15.084   1.504 -0.0289  0.3038 -0.3212
10705W        W26599   8.586   1.630   4.570  0.1674 -0.0301  0.0908
10706W        W26600  15.960  14.314   2.241  0.0002 -0.0927  0.1070
10707W        W26601   4.048   0.543  13.234 -0.0651  0.5137  0.2035
10708W        W26602   7.707   1.008  14.847  0.0081 -0.3593  0.1137
10709W        W26603  10.965   8.619  12.119 -0.2888  0.1575  0.1689
10710W        W26604  12.788   6.189  15.580  0.1090  0.2250  0.0994
10711W        W26605  14.039  15.165  15.310 -0.3068 -0.3021 -0.4813
10712W        W26606   7.995   3.934  15.866 -0.3731  0.0842 -0.4828
10713W        W26607  10.335  10.725  15.396 -0.0600 -0.1950  0.4049
10714W        W26608   7.112  14.203   4.315 -0.0675  0.1030 -0.1909
10715W        W26609   7.227   3.429   1.933  0.2033  0.0520  0.3006
10716W        W26610   1.563   2.132  11.377 -0.0068 -0.0546 -0.0650
10717W        W26611   5.803  18.314   3.345  0.1145  0.0884 -0.0617
10718W        W26612  15.972   0.717   2.842  0.0602 -0.0220  0.2301
10719W        W26613   4.623   4.274  15.413 -0.0764  0.2052  0.2707
10720W        W26614  16.847  12.128   2.513  0.0391  0.1545 -0.0871
10721W        W26615  12.944   8.570   5.140 -0.3251 -0.2184 -0.0732
10722W        W26616   2.817   9.817   2.653  0.0238 -0.2427  0.2365
10723W        W26617   7.553  16.246   2.523  0.0407  0.0798 -0.2536
10724W        W26618  16.605   2.165  13.027 -0.1751  0.1115 -0.0828
10725W        W26619   8.166  16.623  12.800 -0.1091 -0.2468 -0.0439
10726W        W26620  15.911  16.702  11.143 -0.1539 -0.3253 -0.0724
10727W        W26621   3.321   3.659   5.719 -0.1860  0.1134  0.1397
10728W        W26622   0.927   0.943  11.419  0.3578  0.0318 -0.1179
10729W        W26623  14.078  11.263  10.984  0.0356 -0.1581 -0.2705
10730W        W26624   3.462  15.969  12.834 -0.4949 -0.0454  0.4223
10731W        W26625   4.743   7.155   4.744 -0.0063  0.2351  0.1586
10732W        W26626  11.176   1.836  15.844  0.0314 -0.0195  0.2310
10733W        W26627   7.562   6.104   2.850 -0.0516  0.2053  0.3408
10734W        W26628   0.414   0.679  14.194  0.0189  0.2127  0.2372
10735W        W26629  15.391   1.316  14.297  0.1026  0.0372  0.1528
10736W        W26630  17.687   3.658   1.873 -0.0067  0.2395  0.3528
10737W        W26631  14.616   0.294   4.854 -0.1393 -0.3410 -0.0527
10738W        W26632  14.532   2.016  15.424  0.3395  0.0070 -0.0904
10739W        W26633   7.971  11.704   5.820 -0.0873  0.0841  0.2721
10740W        W26634  10.613   3.918  14.625  0.4325 -0.1566 -0.0445
10741W        W26635   7.432  11.844  11.589 -0.0348  0.3733 -0.0392
10742W        W26636   3.465   5.519   0.411  0.2779  0.1274  0.2086
10743W        W26637   9.403   1.612  11.092 -0.1261 -0.2184  0.0797
10744W        W26638   1.645   4.733  14.778 -0.2398  0.0598  0.2167
10745W        W26639   3.825  10.100   4.831 -0.0930  0.0786  0.2558
10746W        W26640   7.779  11.471  12.770  0.5196 -0.5161 -0.2375
10747W        W26641  16.296   4.299   2.637  0.0310  0.1564 -0.0968
10748W        W26642   7.948  18.320  13.720 -0.5098  0.1987 -0.2186
10749W        W26643   8.871   4.123   4.318  0.2610  0.1641 -0.2957
10750W        W26644   5.099   5.385   2.994 -0.0538  0.0087 -0.1670
10751W        W26645   2.760  15.822   4.842  0.2653 -0.1129 -0.0349
10752W        W26646   9.675  16.527   1.029  0.0920 -0.1556 -0.3104
10753W        W26647   7.978   1.670  15.800 -0.0335  0.0973 -0.1940
10754W        W26648   8.439   4.036  13.722 -0.0245 -0.0832  0.2360
10755W        W26649  12.858   0.698  14.160  0.1074  0.1760  0.0777
10756W        W26650  10.057  17.788   1.160 -0.1305  0.1785  0.2907
10757W        W26651   3.072  15.694  12.933  0.1961  0.0481  0.0897
10758W        W26652   0.053   5.066  13.379 -0.2905  0.0724 -0.1933
10759W        W26653  11.398   4.530  15.752 -0.3355 -0.0710 -0.1258
10760W        W26654   0.462   5.213   2.996 -0.2709  0.0703  0.0193
10761W        W26655   2.488   5.887   1.260  0.1500  0.3140  0.2328
10762W        W26656  17.970   8.794  14.598 -0.0074 -0.3475  0.1418
10763W        W26657   9.961  16.060  15.392  0.0982 -0.1799 -0.2983
10764W        W26658   8.220   7.425   4.651  0.0868  0.2397  0.0402
10765W        W26659   3.199  12.393  11.123 -0.1413  0.0982 -0.3413
10766W        W26660  17.849  10.801  12.704  0.0221 -0.0965  0.2721
10767W        W26661   9.642  10.172   5.291  0.1839  0.0497 -0.2297
10768W        W26662   0.437   9.806  12.778 -0.0628  0.1616  0.2385
10769W        W26663  10.356  11.259   2.493  0.2531  0.0214  0.0984
10770W        W26664   3.219  15.022   4.652  0.0250 -0.1719  0.0662
10771W        W26665  12.847  12.482  13.892 -0.0988  0.1342  0.0111
10772W        W26666  15.513  18.405  11.124  0.0227  0.0934  0.1679
10773W        W26667  13.424  15.106  12.584  0.0818  0.4563 -0.0676
10774W        W26668   6.327   0.003  12.175 -0.0032  0.0424 -0.0984
10775W        W26669   1.327   8.760  11.842 -0.0556 -0.1211 -0.0573
10776W        W26670  17.730   6.595  15.974 -0.0738  0.2083  0.2334
10777W        W26671  17.938   0.337  14.886 -0.3406  0.1365  0.0338
10778W        W26672  16.358  17.500  12.442 -0.4413  0.0705 -0.0056
10779W        W26673   2.848   2.833  12.081 -0.0371 -0.0080 -0.0559
10780W        W26674   6.504  17.345   4.769  0.0967 -0.0372  0.3194
10781W        W26675   2.312   6.238   0.423 -0.2435 -0.1716 -0.2643
10782W        W26676   2.001   3.245  11.747  0.1323  0.1933 -0.2271
10783W        W26677  12.241   4.764   0.945 -0.2655  0.1589  0.1859
10784W        W26678  16.635  14.532  12.945  0.0430 -0.4046 -0.4122
10785W        W26679   8.385   2.694   0.592 -0.0485  0.2098 -0.1409
10786W        W26680   1.560  14.383   2.330 -0.1866 -0.1611 -0.0759
10787W        W26681  15.359  16.352   4.582  0.1203 -0.3513  0.1924
10788W        W26682  18.206  14.328  11.874 -0.2396 -0.2491 -0.0398
10789W        W26683  11.769  17.491   3.867  0.2102  0.2303  0.0376
10790W        W26684  11.758   7.881  14.554 -0.0029 -0.0751  0.0939
10791W        W26685  10.140  11.173  15.264  0.0824  0.0435 -0.1102
10792W        W26686  10.316  14.130   3.048  0.1368  0.0353 -0.1775
10793W        W26687  18.285   0.201  15.785  0.2267 -0.0490  0.1438
10794W        W26688  11.534   0.881  14.065 -0.2456 -0.0744  0.1021
10795W        W26689   2.693  13.292  12.971  0.0816 -0.0852 -0.2726
10796W        W26690   2.878   1.534   4.682  0.1857 -0.1522  0.0934
10797W        W26691  10.107   1.413   3.249  0.1361 -0.0318 -0.0718
10798W        W26692   2.941  12.191   3.097 -0.1854 -0.4931  0.1462
10799W        W26693  18.282  16.612   5.250 -0.1680  0.0264 -0.0543
10800W        W26694  10.663  17.209  15.248  0.0920 -0.1367  0.1028
10801W        W26695   3.262  15.120   2.237  0.1877 -0.0695 -0.0467
10802W        W26696   8.944  14.758   1.036 -0.4349 -0.0703 -0.2326
10803W        W26697   4.622   9.189   3.348 -0.0031 -0.0420 -0.3812
10804W        W26698   7.464   3.892   1.333 -0.1414  0.0005 -0.0843
10805W        W26699  12.954  16.414  11.235 -0.1367  0.0561  0.0646
10806W        W26700   5.650   7.231   1.815  0.2360  0.0708 -0.1633
10807W        W26701   2.222   2.561  15.922  0.1781  0.1170  0.1809
10808W        W26702   5.705   7.732  10.857 -0.3884  0.0153 -0.2875
10809W        W26703   6.217  17.636   0.039 -0.0824 -0.1887 -0.1229
10810W        W26704   1.166   4.268   4.668 -0.5168  0.1539  0.0308
10811W        W26705   1.242  14.406   4.704  0.2733  0.1238  0.0101
10812W        W26706   0.582   6.968  11.557  0.0399  0.1431  0.2454
10813W        W26707   5.656  10.204  15.496 -0.1258 -0.1266  0.0205
10814W        W26708   6.876  14.862  11.529 -0.0134 -0.1271  0.2635
10815W        W26709   3.709   8.788   1.859 -0.3051 -0.2705  0.0766
10816W        W26710   9.499   4.867   3.194 -0.1473  0.1787 -0.0566
10817W        W26711   0.316   4.209  12.751 -0.0283  0.2267  0.0477
10818W        W26712   5.357   6.418   5.618 -0.0147 -0.2026 -0.3085
10819W        W26713  18.033   9.191   2.520 -0.4850 -0.3395  0.1591
10820W        W26714   4.804  15.294  11.539 -0.1082  0.0103 -0.2327
10821W        W26715  17.964   6.257  12.819  0.1211 -0.0555  0.0876
10822W        W26716  16.746   1.132  16.025  0.2813  0.3278 -0.0478
10823W        W26717   6.760   2.695  12.014 -0.2490  0.1071 -0.0468
10824W        W26718  14.062   1.327   0.466  0.2453 -0.1445 -0.2041
10825W        W26719   8.562   3.911  14.399 -0.0048  0.0171  0.0383
10826W        W26720  17.027   1.991   2.995 -0.1067  0.2163 -0.3043
10827W        W26721   2.232   5.414   0.247 -0.1543 -0.0136  0.1029
10828W        W26722   4.867  12.889  11.474  0.2485 -0.0739  0.4776
10829W        W26723   8.531  17.905   5.231  0.1660  0.0294  0.0051
10830W        W26724  18.439   4.223   2.735 -0.4393 -0.1036  0.0788
10831W        W26725   4.443   6.232  15.107  0.0708 -0.3252  0.0292
10832W        W26726  15.683   9.398  12.369  0.0386  0.0608 -0.0852
10833W        W26727  15.487   0.637   6.084  0.0522 -0.0373 -0.1136
10834W        W26728  17.417   2.481  11.502  0.0376  0.0349 -0.4562
10835W        W26729   6.577  15.692   6.086  0.2224  0.0918 -0.3259
10836W        W26730   9.280   6.108  15.158 -0.3619 -0.1874 -0.5243
10837W        W26731  11.391   6.341  15.683  0.2607  0.1413 -0.2886
10838W        W26732  10.963   2.279   2.163 -0.1455  0.2931 -0.0331
10839W        W26733  16.891  13.569   3.424  0.1672 -0.1503 -0.0386
10840W        W26734   8.943   4.623   4.110  0.0466 -0.0847  0.2396
10841W        W26735  16.595   5.776  12.109  0.0124  0.2000  0.1078
10842W        W26736   8.945  17.409   4.316  0.3479  0.2850  0.0956
10843W        W26737   4.835   7.570   5.082 -0.0663  0.2512  0.1158
10844W        W26738   9.136  11.554   0.286  0.3552 -0.2390 -0.0075
10845W        W26739   4.905  16.687   4.707  0.0482  0.0979  0.0923
10846W        W26740  11.023  13.478   5.275 -0.2372  0.0143  0.2261
10847W        W26741  17.900  13.450  12.120 -0.0351  0.0441 -0.1689
10848W        W26742   4.718   7.228  15.238  0.2015  0.3406  0.4003
10849W        W26743  12.446   3.501   2.423 -0.1860 -0.1348 -0.0706
10850W        W26744  16.967   9.222  13.509  0.0472 -0.0085  0.0286
10851W        W26745  11.694   6.090  16.091 -0.0174 -0.0452  0.1893
10852W        W26746   0.296   6.782  14.545 -0.3059  0.1571 -0.1625
10853W        W26747  13.965  12.042  12.969 -0.1912 -0.0655 -0.0318
10854W        W26748  17.449  17.766   2.215 -0.0941  0.0545  0.1116
10855W        W26749  12.579   0.861  12.205 -0.2898 -0.2187  0.2404
10856W        W26750  16.364  16.898   2.712 -0.1202  0.1675  0.1045
10857W        W26751   8.646  17.689  14.946 -0.5403  0.1453  0.0264
10858W        W26752  10.864  17.659   3.692  0.2622 -0.2163 -0.0605
10859W        W26753  16.994   4.997  14.385 -0.5371 -0.0670 -0.1344
10860W        W26754  10.116   4.377  11.293 -0.3038  0.0461  0.0581
10861W        W26755   3.938   5.297  14.380 -0.0431 -0.3079  0.0161
10862W        W26756  16.120   8.804  14.235 -0.4052 -0.2555  0.3747
10863W        W26757   2.019   0.161  14.988 -0.1714  0.0640  0.1108
10864W        W26758  10.653   2.046   4.331  0.0131  0.0352 -0.0323
10865W        W26759  12.150  12.827  14.601  0.1877 -0.2436 -0.1681
10866W        W26760   9.322   0.397  15.343  0.1914 -0.0852  0.0146
10867W        W26761   8.693   2.592   4.394 -0.1506  0.1114  0.1039
10868W        W26762   5.977  17.807  11.219  0.2178  0.3692  0.0464
10869W        W26763   7.773  14.218  11.061  0.0680  0.1197 -0.0687
10870W        W26764   4.861  13.001  15.197  0.2936 -0.1396 -0.0330
10871W        W26765   9.332  16.800  14.059  0.0198  0.0033  0.1006
10872W        W26766   2.943   2.927   2.051 -0.0142  0.0250  0.4239
10873W        W26767  15.063   8.946   3.183  0.1076  0.1846  0.1002
10874W        W26768  16.253   8.169   2.898  0.0362 -0.0833 -0.3720
10875W        W26769  16.363  13.993  12.961 -0.2558 -0.1429 -0.0502
10876W        W26770   1.932  12.574   0.606 -0.2449  0.3534 -0.3220
10877W        W26771   4.210   7.909   2.836  0.0132  0.1314  0.1884
10878W        W26772   3.190   5.685  15.643 -0.0446  0.3548 -0.0548
10879W        W26773   1.352   5.596   4.894 -0.1646  0.2047 -0.0178
10880W        W26774   7.469   9.049   2.941 -0.0276 -0.1581 -0.2000
10881W        W26775   1.705   4.775  11.209  0.1530 -0.2219  0.0044
10882W        W26776  13.876  17.959  15.302 -0.0588  0.3672  0.3011
10883W        W26777  12.194  17.265  12.027  0.0525 -0.0607 -0.0019
10884W        W26778   7.448   8.334   2.832 -0.1734  0.3493  0.3230
10885W        W26779   1.350   5.703   5.890  0.1465  0.1670  0.1369
10886W        W26780  12.476   8.989  15.522  0.0779  0.2110  0.1384
10887W        W26781  10.062   0.193  15.022  0.2841 -0.1518 -0.1679
10888W        W26782   1.867   9.539   2.181  0.1428  0.0889 -0.0202
10889W        W26783   8.418   8.431   0.788  0.0776  0.1091  0.0568
10890W        W26784   5.160   1.927   3.703 -0.0942 -0.0842 -0.3186
10891W        W26785   6.636   6.142   3.913 -0.0145 -0.0982  0.2117
10892W        W26786  12.170   1.527  11.523 -0.0815 -0.2474 -0.0001
10893W        W26787   5.984  16.971   3.848 -0.0777 -0.1082  0.1823
10894W        W26788  12.479   7.515   1.254 -0.1204  0.0978 -0.0334
10895W        W26789  12.024  18.441  12.403 -0.0218  0.3851 -0.0673
10896W        W26790  11.351   4.248   4.614  0.0140 -0.0901 -0.0100
10897W        W26791   8.267   7.467   1.741 -0.2940  0.2768 -0.0533
10898W        W26792   8.156  17.574  12.703  0.0027 -0.0160 -0.1369
10899W        W26793   8.751   5.800   3.637 -0.0001 -0.3267 -0.0903
10900W        W26794   5.681  11.857  15.073 -0.1299  0.2987 -0.2271
10901W        W26795   5.619   4.323   4.355  0.2100 -0.3643  0.0941
10902W        W26796   4.765   5.506   2.077 -0.2088 -0.0922  0.1197
10903W        W26797  10.526   7.167  12.170  0.2732  0.2106  0.2118
10904W        W26798   7.144  10.205   4.080  0.2391  0.4451 -0.0044
10905W        W26799   5.974  13.558   3.179  0.2776 -0.1889  0.0433
10906W        W26800   9.320   8.568  13.169  0.0891 -0.1559  0.2605
10907W        W26801  16.615   6.007   0.186 -0.0101  0.2969  0.0835
10908W        W26802  14.435   7.657  12.417 -0.3032  0.1725 -0.5550
10909W        W26803  10.018   6.096   4.977 -0.1944 -0.4654 -0.0214
10910W        W26804   0.514  11.500   5.026  0.2217 -0.0621  0.0861
10911W        W26805  16.842  14.135  10.671 -0.0109 -0.0801 -0.0328
10912W        W26806  15.671   1.671  13.448 -0.2268  0.2945 -0.0941
10913W        W26807  13.299  12.592   3.511  0.1765 -0.2696 -0.4305
10914W        W26808   4.605   6.781   3.251  0.0170  0.2765  0.2139
10915W        W26809   9.372  16.905   1.326 -0.1628  0.3052  0.3101
10916W        W26810   1.596  14.148   1.872 -0.0891 -0.0583  0.0710
10917W        W26811  12.238   5.755   2.613  0.1196 -0.1758  0.0692
10918W        W26812   3.690  15.290  10.910 -0.3411  0.2112  0.0801
10919W        W26813   2.059   7.726  16.111  0.0430  0.1220  0.1363
10920W        W26814   4.099  15.838  12.027 -0.0999  0.0732  0.1568
10921W        W26815   0.166   2.743  12.987  0.0569  0.2719 -0.0976
10922W        W26816   3.671   0.609  15.129  0.3019  0.3518  0.0183
10923W        W26817   7.017   5.262  12.030  0.0338 -0.2135  0.1294
10924W        W26818  15.870   9.551   1.784 -0.2736 -0.0219 -0.2009
10925W        W26819  15.943  15.616  16.049 -0.0709  0.0086 -0.2173
10926W        W26820   9.200   5.717  14.191  0.5365  0.2859  0.0553
10927W        W26821   1.657  16.479   5.554 -0.2833  0.1308  0.1036
10928W        W26822  11.799   3.921   0.207  0.1126  0.3247 -0.2571
10929W        W26823   4.695   5.211  15.040 -0.4993 -0.2901  0.1344
10930W        W26824   2.027  17.961  13.292  0.1937  0.0615  0.0070
10931W        W26825   4.227  15.483   2.804  0.2028  0.1335 -0.4058
10932W        W26826  11.880   4.730   1.751 -0.1537  0.2786 -0.1923
10933W        W26827   3.218   2.928  16.023 -0.2689  0.0030 -0.0994
10934W        W26828  10.049  14.513  12.727  0.1113 -0.1078  0.1494
10935W        W26829   2.672   5.249   3.977 -0.2140 -0.1211  0.1982
10936W        W26830   5.011  13.422   3.062 -0.3521  0.3046 -0.1422
10937W        W26831  11.327  14.661  14.543  0.2647  0.0223  0.0513
10938W        W26832   3.553  18.132   5.323 -0.1219  0.0494 -0.0784
10939W        W26833   3.695   4.391  14.526 -0.4634 -0.1483  0.1012
10940W        W26834  17.647   4.893  12.311 -0.0524  0.2581  0.1999
10941W        W26835  16.987   4.647   2.596  0.0246  0.1781 -0.1173
10942W        W26836  13.718   4.603   3.777 -0.3202 -0.0652 -0.2274
10943W        W26837   2.145  17.382  13.070 -0.2684 -0.1679  0.1779
10944W        W26838   8.239   8.243   4.771 -0.0708  0.3337  0.3390
10945W        W26839   1.547   9.575   0.095  0.0040  0.1946  0.0581
10946W        W26840   5.206  11.271   4.603  0.0154  0.1020  0.0663
10947W        W26841   2.593  10.219   1.240 -0.0299  0.0061 -0.1953
10948W        W26842  10.100   0.222   5.698 -0.0172 -0.0105  0.1903
10949W        W26843   7.443   7.945   4.818  0.2773  0.2360  0.1591
10950W        W26844  14.413   9.357   1.418  0.0519 -0.2553  0.5010
10951W        W26845  13.108  11.029   5.623 -0.0762  0.0473  0.1780
10952W        W26846  14.953  14.092  11.676 -0.0945  0.1824  0.2160
10953W        W26847  12.640  14.112   1.811  0.0040 -0.2094  0.0082
10954W        W26848  16.167  12.276   1.505 -0.0301  0.0062  0.1435
10955W        W26849  12.422  17.694   0.180 -0.0911 -0.1600 -0.1842
10956W        W26850  14.600  13.089   2.756  0.0835  0.0631  0.1650
10957W        W26851  15.578   3.991  14.974 -0.4430  0.0626  0.0832
10958W        W26852  13.582   6.534  12.362 -0.1020 -0.5436 -0.2598
10959W        W26853   5.387   9.331   5.576  0.0829  0.1374  0.1002
10960W        W26854   2.197   1.890   5.980 -0.1749  0.0539 -0.1955
10961W        W26855   2.683   9.213   2.980  0.3199 -0.0951 -0.0794
10962W        W26856  12.665   4.807   2.389  0.1632  0.0915 -0.3783
10963W        W26857   3.925  13.237   3.037  0.2410 -0.0222  0.0002
10964W        W26858   0.983   3.422   2.972  0.0108  0.0887  0.0565
10965W        W26859  14.298   9.253   2.424  0.0131  0.0804  0.3644
10966W        W26860   3.414   5.117  15.057 -0.2375 -0.0777 -0.4236
10967W        W26861  11.400   0.059   3.949  0.0687  0.2605  0.2374
10968W        W26862   7.417   3.204  11.744 -0.0602  0.0473 -0.0411
10969W        W26863   4.133   8.840   5.480  0.3813 -0.1096 -0.0571
10970W        W26864   4.412  15.098  14.138  0.0674  0.1649 -0.3289
10971W        W26865  14.634   6.533  12.345  0.0155  0.0386 -0.0540
10972W        W26866  14.235   2.814  13.465  0.1254  0.0456  0.0457
10973W        W26867  15.274  16.456  15.618  0.0626 -0.0148  0.0521
10974W        W26868   5.942   9.454  12.514  0.1481  0.3267  0.1361
10975W        W26869   0.252   4.313   0.915  0.1317  0.0694  0.2637
10976W        W26870  17.067  12.431  13.660  0.2130 -0.3498  0.1075
10977W        W26871  17.905  12.020  11.604 -0.1123  0.0613  0.0051
10978W        W26872   0.714   1.253  15.257  0.2082 -0.1291 -0.2478
10979W        W26873  15.743   3.661   4.196 -0.0697 -0.0503  0.1111
10980W        W26874   1.410  12.380  13.947 -0.0436 -0.1149  0.0853
10981W        W26875   7.340   0.878   0.985 -0.1951  0.0455 -0.0503
10982W        W26876   4.076   1.091   2.526  0.0010  0.1906  0.3672
10983W        W26877   0.960   7.803   1.205 -0.3503  0.0550 -0.0262
10984W        W26878  10.445  10.422   2.438  0.3236 -0.1427  0.3063
10985W        W26879  13.260  16.491   0.135 -0.2141  0.0403 -0.1390
10986W        W26880  14.919   6.148  13.166  0.1652  0.0487 -0.5202
10987W        W26881  16.519   8.165   5.771  0.5379 -0.1387 -0.0298
10988W        W26882   8.665  17.896   0.041 -0.2917 -0.0626 -0.1199
10989W        W26883   3.349  14.905  10.261  0.0938  0.1973 -0.1599
10990W        W26884  13.527  17.591   4.647 -0.2846 -0.0248 -0.0686
10991W        W26885  18.408  16.362   4.861 -0.2175  0.4316 -0.1570
10992W        W26886  15.449   6.736  13.352  0.3470  0.1844  0.0444
10993W        W26887   1.661  15.142   0.579 -0.1316 -0.2338 -0.0558
10994W        W26888   7.656   2.178  11.253 -0.0548 -0.3872 -0.2503
10995W        W26889   1.413   0.269   1.889 -0.1541  0.1877 -0.1008
10996W        W26890  10.818  16.394   2.894 -0.0246  0.2101 -0.1552
10997W        W26891   0.657   9.749  15.315  0.0292  0.3382  0.1870
10998W        W26892  13.564   2.078   3.511  0.0411 -0.0398  0.1990
10999W        W26893  10.623   9.001   2.246 -0.1927 -0.0387  0.0174
11000W        W26894   5.531  10.209   4.676 -0.2486 -0.1332  0.0125
11001W        W26895   4.558  14.756   2.180  0.2096 -0.0138 -0.2179
11002W        W26896  12.680   0.961   5.470 -0.2383 -0.2734  0.3132
11003W        W26897   0.735   3.267   3.932 -0.0625 -0.0054  0.1436
11004W        W26898   6.550   4.901  14.094  0.0288 -0.0204  0.2303
11005W        W26899  10.365  14.695   3.171  0.2977  0.3609  0.2643
11006W        W26900   8.163  11.010  12.162  0.2192  0.0740 -0.0995
11007W        W26901   3.724  11.186  15.985  0.2593  0.0587  0.1722
11008W        W26902   2.585   7.743   5.665 -0.1358 -0.4034  0.4164
11009W        W26903  15.566   5.904  14.849  0.1735 -0.3047  0.0668
11010W        W26904  13.543  13.314  14.083  0.0036  0.0269  0.2650
11011W        W26905   3.670   5.752   4.482  0.1175 -0.3854  0.0525
11012W        W26906  15.044   5.741  13.495 -0.1801 -0.1578 -0.2841
11013W        W26907  14.607   5.719  10.986 -0.1443  0.0854 -0.1627
11014W        W26908  11.760  11.672   1.824 -0.2938 -0.1040  0.1018
11015W        W26909  10.366  12.492  13.711  0.0821  0.0783  0.1601
11016W        W26910  13.825   9.605  11.290  0.0233 -0.0910 -0.1233
11017W        W26911  13.990  15.333   0.747  0.1496  0.0253 -0.3151
11018W        W26912   3.701   6.194   0.828 -0.0357 -0.0637  0.0486
11019W        W26913  14.151   4.025  14.577  0.1354 -0.1697 -0.1403
11020W        W26914  13.535   7.883  14.089  0.2624 -0.2328 -0.0611
11021W        W26915   2.100   3.591  13.236  0.1748  0.1302  0.0563
11022W        W26916   5.288   5.421   1.248 -0.1242 -0.2652  0.3663
11023W        W26917  17.463   9.309   0.734 -0.3234  0.0420  0.0899
11024W        W26918   1.633  10.609  15.344 -0.0006 -0.4327 -0.2001
11025W        W26919   1.035  15.177   1.169  0.0297  0.2189 -0.1303
11026W        W26920   7.152  16.050  15.581 -0.0152  0.1467 -0.2445
11027W        W26921  16.160  15.069  14.007  0.1479 -0.1624  0.3806
11028W        W26922  12.546  13.223  14.959 -0.1456  0.3487 -0.3631
11029W        W26923  14.100  13.037  15.934 -0.0823 -0.1787 -0.0751
11030W        W26924   1.087  12.280  15.588 -0.1568 -0.1366 -0.0247
11031W        W26925   6.126   5.761   1.665  0.4356  0.2294 -0.3093
11032W        W26926   6.338   4.350   4.237  0.2506 -0.2605  0.0625
11033W        W26927  12.831  13.739  10.928 -0.0700 -0.1441 -0.0553
11034W        W26928   9.883   9.437   2.640 -0.1649 -0.3890 -0.0836
11035W        W26929   4.462   4.446  12.199  0.0023  0.0114 -0.1215
11036W        W26930  17.715   0.355  12.306 -0.2590  0.2910 -0.1416
11037W        W26931   3.801   4.118   1.540 -0.1416 -0.2129 -0.0336
11038W        W26932   1.708   6.121  12.662 -0.0735  0.0223 -0.0154
11039W        W26933  12.100  12.233  12.976 -0.1066  0.2835 -0.1289
11040W        W26934  10.114  16.975   0.134 -0.1849 -0.0234 -0.1369
11041W        W26935  17.388  16.841   1.333 -0.2371 -0.4371 -0.0778
11042W        W26936   3.531  18.252   3.958 -0.3700 -0.3343 -0.0383
11043W        W26937  11.455  14.262   2.677  0.2746 -0.0877 -0.1190
11044W        W26938   8.465  11.350   2.952 -0.1779  0.2218  0.1123
11045W        W26939   7.016  13.974  14.383 -0.3780 -0.0918 -0.1279
11046W        W26940   2.881  10.134  15.002  0.1145  0.0683 -0.0115
11047W        W26941  18.217  16.506   1.107 -0.2797  0.0755  0.0899
11048W        W26942  16.851  13.806   3.930 -0.1763 -0.5565 -0.0192
11049W        W26943   0.663  17.645  15.701 -0.0773 -0.0210 -0.1620
11050W        W26944   3.003  18.112   0.802 -0.1496  0.0071  0.3349
11051W        W26945  11.468   4.381   0.150 -0.1374  0.1368  0.0691
11052W        W26946   4.720  15.209  13.780  0.0445 -0.3846 -0.1896
11053W        W26947   7.775  13.806  14.533 -0.2264 -0.1524 -0.0521
11054W        W26948   5.610  14.846  14.489  0.0733  0.0074 -0.1994
11055W        W26949   7.899  12.940  11.862  0.5563  0.0811  0.2941
11056W        W26950   5.870  14.897  15.493 -0.0538 -0.0637 -0.4067
11057W        W26951   8.551   4.764  13.725  0.1780 -0.0990  0.1118
11058W        W26952   8.249   7.038  13.216 -0.1490 -0.4748  0.1106
11059W        W26953  12.953   3.854  13.058  0.0241 -0.0285 -0.1953
11060W        W26954   0.523  12.891   5.433  0.1085  0.0941  0.1930
11061W        W26955   6.010   2.523   5.272 -0.0641 -0.2928  0.2249
11062W        W26956   1.538   8.945  14.235 -0.2734  0.1079 -0.3887
11063W        W26957   9.902   7.209   4.651  0.0869  0.1220  0.1728
11064W        W26958   2.671  13.408  15.771 -0.0696 -0.2188  0.1164
11065W        W26959   4.504  16.083  13.758 -0.1418  0.1239 -0.2451
11066W        W26960  15.260  16.873   1.685 -0.1455 -0.1349  0.1305
11067W        W26961   2.891  11.103   4.509  0.0610  0.0466  0.1023
11068W        W26962   9.470   3.589   2.675 -0.2423 -0.2553  0.0146
11069W        W26963  13.034   5.124   2.220  0.0352  0.2879  0.2306
11070W        W26964  12.823   1.892   4.680 -0.2188  0.0047  0.0582
11071W        W26965  15.714   8.982   0.560 -0.0687 -0.3593  0.0426
11072W        W26966   4.227   5.958   3.517 -0.2117 -0.1540  0.0010
11073W        W26967  16.744   0.122   6.428 -0.3068  0.0371  0.1059
11074W        W26968   6.810   9.144   0.150 -0.0210  0.1627  0.2285
11075W        W26969  12.213  14.002   4.996  0.1383 -0.1531 -0.1108
11076W        W26970   8.661   9.836  12.294  0.1544  0.2054 -0.0758
11077W        W26971  14.426   0.695  14.439  0.2781  0.1742  0.2668
11078W        W26972  13.933   9.158   1.732 -0.0928 -0.0527 -0.4382
11079W        W26973   6.799  12.649   3.793 -0.0127 -0.0188  0.0046
11080W        W26974  14.027  14.876  13.759  0.1462  0.0048 -0.1697
11081W        W26975  16.663  16.183  11.570 -0.4167 -0.0007 -0.1668
11082W        W26976   2.951   1.599   2.953 -0.2252  0.0346 -0.1855
11083W        W26977  14.328  16.445  15.322  0.0565 -0.1219  0.1983
11084W        W26978   1.984  11.347   3.454 -0.4040 -0.1157 -0.0347
11085W        W26979  15.005  18.276   4.623 -0.4089  0.0275  0.0849
11086W        W26980   3.082  14.556  10.959  0.0410  0.1653  0.3662
11087W        W26981  12.270   3.790  13.596  0.0155 -0.0227 -0.1462
11088W        W26982   5.510  14.014  15.273  0.0522  0.0960 -0.0050
11089W        W26983   4.275  13.435  16.152  0.1238  0.0383  0.1708
11090W        W26984   2.565   2.786   0.170  0.1418  0.2092  0.1774
11091W        W26985  16.492   7.414  15.416 -0.0255 -0.0534  0.1852
11092W        W26986  17.475  16.626  13.739  0.0993  0.1289 -0.2105
11093W        W26987   3.731  10.487   2.930 -0.0000 -0.2264  0.1597
11094W        W26988  11.115  15.370   4.965 -0.3067 -0.0368  0.0405
11095W        W26989  13.224  17.934   2.036 -0.1369 -0.0302 -0.2764
11096W        W26990   0.546   7.035  15.783  0.2773  0.0383  0.0181
11097W        W26991  16.320   0.341   3.116 -0.2464 -0.0751  0.1009
11098W        W26992  15.001   6.833  13.633  0.2436 -0.2436 -0.2951
11099W        W26993   0.999   0.414   1.188  0.2417 -0.0650  0.1317
11100W        W26994   5.419   5.704   2.674 -0.5829  0.0388 -0.0951
11101W        W26995   8.070  17.928   5.340 -0.1119 -0.3168  0.0897
11102W        W26996   2.360   4.994  11.512 -0.2371 -0.0005  0.0606
11103W        W26997   3.870   8.601   3.500  0.1197  0.2576  0.0949
11104W        W26998  11.748   6.208  11.956  0.2081 -0.3662  0.1751
11105W        W26999  17.289   8.206  11.889  0.2973  0.2152 -0.2654
11106W        W27000  15.551  10.162   0.335 -0.2113  0.2862 -0.0764
11107W        W27001  13.976   2.894   3.221  0.0974 -0.0336  0.1001
11108W        W27002   7.224   4.845   0.779  0.2781 -0.1650 -0.3097
11109W        W27003   1.301  14.916   2.347 -0.1431  0.1692  0.2045
11110W        W27004  11.176   1.395   2.680 -0.4851 -0.0451 -0.0249
11111W        W27005  13.564   7.021   1.141  0.2793  0.4932 -0.0148
11112W        W27006  16.175   1.119   0.623  0.0575 -0.2799 -0.0264
11113W        W27007   9.206   1.735   0.925 -0.2020 -0.0605  0.1853
11114W        W27008  13.032   4.798  15.919  0.2048 -0.2968  0.2114
11115W        W27009   9.038  16.888  11.347 -0.0048  0.1645 -0.4043
11116W        W27010   8.351   9.578   2.808 -0.2235  0.0180 -0.0894
11117W        W27011   2.161  10.839   4.352 -0.0728 -0.5931  0.1611
11118W        W27012   1.636   8.631  12.359 -0.0754  0.0667  0.2764
11119W        W27013   1.476   0.272  13.242  0.0352 -0.0782 -0.0907
11120W        W27014   7.801   2.065   4.283  0.2669 -0.3301  0.0481
11121W        W27015  10.928   2.241  12.345  0.1085 -0.1665 -0.0299
11122W        W27016  11.420  13.521  13.138  0.2740  0.0051 -0.0772
11123W        W27017  16.593   2.119   3.332  0.1103  0.3265  0.0055
11124W        W27018   9.149  14.578  14.722  0.0700  0.2512 -0.1650
11125W        W27019  10.229   9.657  15.988  0.0502  0.1168  0.1716
11126W        W27020   9.616  11.014  11.078 -0.1281 -0.1331 -0.2862
11127W        W27021   1.769   1.505   2.372  0.0485  0.2883 -0.2576
11128W        W27022  10.370  16.356   1.787 -0.1231  0.0078  0.2115
11129W        W27023  10.846  18.102   0.955  0.0060 -0.3240  0.0345
11130W        W27024   8.900   2.302   1.619  0.0039  0.2106 -0.0289
11131W        W27025   8.093  16.732  12.241 -0.3144  0.0151 -0.5073
11132W        W27026   3.301   6.022   1.891  0.0354  0.0867  0.1536
11133W        W27027   2.545  11.313   4.779  0.2162 -0.1643  0.2784
11134W        W27028  17.162  12.024  13.352 -0.1781  0.0253  0.2064
11135W        W27029  12.622   7.961  13.584  0.1035  0.2758 -0.0234
11136W        W27030   7.271  12.110  13.314  0.0856  0.2512  0.0342
11137W        W27031  13.053   5.213   1.080 -0.1110 -0.2433  0.3130
11138W        W27032  17.646   0.462   4.866  0.0248  0.0692 -0.1019
11139W        W27033  10.413  17.848   4.057 -0.0825 -0.1816  0.0735
11140W        W27034   1.422   4.994  13.530 -0.3427 -0.0171 -0.0208
11141W        W27035  14.129  11.468  15.801  0.1961  0.0640  0.1895
11142W        W27036   2.226  11.381  11.361 -0.0404 -0.0199 -0.0992
11143W        W27037   2.466   5.155  13.543  0.0743 -0.2967  0.0089
11144W        W27038  13.083   5.833  12.072 -0.3344  0.1009  0.0955
11145W        W27039   6.182  13.400  10.361 -0.1623  0.1793 -0.2230
11146W        W27040   9.243  14.406   1.755  0.0656 -0.1053  0.0850
11147W        W27041   3.993  14.974  12.022  0.1192 -0.2389 -0.1100
11148W        W27042   5.525  16.153   0.833 -0.3331 -0.1930  0.2408
11149W        W27043  13.906   0.202  14.802 -0.1418 -0.0302  0.2498
11150W        W27044  17.599   0.203   2.292 -0.1614  0.0793  0.0071
11151W        W27045   6.508  15.565   0.423 -0.1137 -0.2910  0.0021
11152W        W27046   3.500   3.544   3.506 -0.0198 -0.1605  0.0698
11153W        W27047  18.175   7.705  12.335 -0.1286 -0.0951  0.2234
11154W        W27048  12.409  10.229   3.357  0.0054  0.1848  0.3712
11155W        W27049   9.933  15.992   5.703 -0.0168  0.0266 -0.0210
11156W        W27050   8.982   9.100  11.638 -0.0096 -0.2047  0.0388
11157W        W27051   7.397  15.401   1.812  0.0996 -0.1401 -0.3620
11158W        W27052   2.022  16.885  11.591 -0.0552  0.1094  0.1098
11159W        W27053  15.864   0.628  12.517  0.0956 -0.2804 -0.1496
11160W        W27054   9.130   7.075   3.123 -0.0350 -0.0802  0.3944
11161W        W27055   9.333  18.022  10.886  0.0220 -0.0816  0.5839
11162W        W27056   6.554  15.247  11.250 -0.0334  0.0184 -0.0174
11163W        W27057  18.332   1.368   2.506 -0.1705 -0.0203 -0.0969
11164W        W27058  11.727  12.166   5.124  0.1065  0.0177  0.2124
11165W        W27059   9.201   1.736  12.737  0.0031 -0.0685  0.0875
11166W        W27060   3.127  12.534  12.347 -0.2128  0.1599  0.2414
11167W        W27061   2.494  10.685   3.625 -0.1225 -0.2711  0.0740
11168W        W27062   7.642   4.128  15.276 -0.0334 -0.1113  0.1775
11169W        W27063  11.920   1.069  15.577 -0.0033 -0.1711 -0.0373
11170W        W27064  10.160   9.280   0.102 -0.0222  0.0174  0.0591
11171W        W27065   3.999   0.786   4.938  0.2508  0.1484  0.1470
11172W        W27066  11.495  16.670  10.774  0.0338  0.2821  0.1033
11173W        W27067   0.311   7.784   0.279  0.3086 -0.2231  0.0787
11174W        W27068   9.284  17.450   0.541  0.1576 -0.0303  0.3519
11175W        W27069  14.796  17.060   5.059  0.1989  0.1471  0.3791
11176W        W27070   3.699  14.673   1.118 -0.0395 -0.5755  0.0181
11177W        W27071  14.284  11.830   0.598  0.2555 -0.1503 -0.0563
11178W        W27072   8.127  17.845   3.380  0.2008 -0.2114  0.0360
11179W        W27073   1.029  13.992   1.198 -0.0557  0.0024  0.0736
11180W        W27074  15.603  11.915   3.326  0.0311 -0.1676  0.0768
11181W        W27075   3.417  17.504  11.898  0.1314  0.3019  0.2767
11182W        W27076  13.336   0.328   3.979 -0.0513 -0.5069  0.2116
11183W        W27077   0.918  16.788  11.052  0.1894 -0.0472  0.2484
11184W        W27078  15.322   1.205   3.128 -0.2238  0.2227 -0.0924
11185W        W27079   3.677  14.879  12.805 -0.0620  0.0679 -0.1713
11186W        W27080   0.540   0.769  15.138  0.1999  0.0057  0.1985
11187W        W27081   9.124   9.932  12.050 -0.2846 -0.0564 -0.0910
11188W        W27082   9.527   1.100  11.394  0.1362 -0.0064 -0.0071
11189W        W27083   5.152  12.528   1.396 -0.1095  0.2526  0.4817
11190W        W27084  15.341  11.833  12.865 -0.3871  0.3716  0.0193
11191W        W27085   9.280  10.163  13.946  0.0240 -0.2284  0.1103
11192W        W27086   4.740   0.645  14.383 -0.3380  0.0698  0.0789
11193W        W27087  10.181   4.767   4.041 -0.3691 -0.0775  0.0325
11194W        W27088   0.601  15.560   5.863  0.1410  0.1786 -0.0750
11195W        W27089   9.198  15.801   1.909 -0.3403  0.2367  0.2619
11196W        W27090   6.430   1.544   2.783  0.2594  0.0226  0.0934
11197W        W27091  13.774   7.686   2.855  0.1021  0.0404  0.0256
11198W        W27092   2.481   0.970  12.288 -0.2869  0.5082  0.0963
11199W        W27093  18.337   1.294  13.772 -0.0207  0.2902  0.0160
11200W        W27094   8.323  11.187  15.527 -0.1636 -0.1590  0.1682
11201W        W27095  15.110  15.418   2.441 -0.3314 -0.0552  0.2551
11202W        W27096   6.247   0.926   1.775  0.0061  0.2992 -0.0290
11203W        W27097   3.558   2.102  12.967 -0.3177  0.3313  0.3503
11204W        W27098  18.190  16.882  12.262  0.0024  0.1297  0.2224
11205W        W27099  17.401   4.340   1.408  0.2615  0.1097  0.0321
11206W        W27100   1.040  13.613  11.077  0.1051 -0.2829  0.0057
11207W        W27101  14.691   5.822   2.733 -0.1647 -0.1254 -0.3825
11208W        W27102  12.497   2.428  11.755  0.0103 -0.0710  0.0192
11209W        W27103  15.442  12.146  14.757  0.0307 -0.0398 -0.1202
11210W        W27104   8.119   5.037  12.453  0.3060  0.0086  0.0795
11211W        W27105   0.409  12.726  12.158  0.2363  0.4768  0.1644
11212W        W27106   9.640   0.450  15.718 -0.2315  0.2689 -0.1466
11213W        W27107  10.464   5.046   0.420  0.2488  0.0818 -0.0720
11214W        W27108   7.006   1.587   5.574 -0.1295  0.1599  0.0032
11215W        W27109   5.599   2.912  13.677  0.0778 -0.1902  0.3295
11216W        W27110  16.230  14.058   5.060  0.6091 -0.0197 -0.0072
11217W        W27111   1.155  14.475   3.369 -0.0630  0.3054 -0.1733
11218W        W27112  15.409  17.794  16.092  0.0773 -0.2903  0.4827
11219W        W27113   3.312   1.464  13.595 -0.3018  0.1015 -0.2306
11220W        W27114  15.744  12.134   0.059 -0.0873  0.2317 -0.1975
11221W        W27115   0.423   1.742  12.976  0.0499  0.3558 -0.0325
11222W        W27116   0.698   0.160  10.199 -0.0183  0.1014  0.1134
11223W        W27117  18.344   8.635  16.019 -0.2285 -0.1976  0.0183
11224W        W27118   6.838  17.626  15.546  0.1208  0.0346  0.0079
11225W        W27119  14.717   5.802   1.101 -0.1181  0.0419  0.0296
11226W        W27120   6.812   3.403  15.391  0.2328  0.0914  0.0934
11227W        W27121  11.622  16.948   4.578  0.1882  0.0482 -0.0594
11228W        W27122  11.469   4.314   1.302  0.0929 -0.2720 -0.2460
11229W        W27123  15.919  12.616  15.942  0.3876 -0.0297  0.1048
11230W        W27124   7.504  16.703   0.355  0.3040  0.1956  0.5047
11231W        W27125   3.028  11.990   0.747 -0.1452  0.4082 -0.1333
11232W        W27126  15.317   4.456  13.777 -0.2773  0.1535 -0.3919
11233W        W27127   4.886  12.826  11.005  0.0004  0.0264  0.2103
11234W        W27128  14.403  13.629   0.770  0.1410 -0.0241 -0.0902
11235W        W27129  15.610  13.838  12.396 -0.3640 -0.1243  0.3683
11236W        W27130   1.586  11.373  14.941 -0.1796 -0.2168  0.1425
11237W        W27131   4.254   9.074  14.791  0.3001 -0.1477 -0.1312
11238W        W27132   9.154  18.257  13.151  0.2098 -0.1680 -0.2863
11239W        W27133  15.625  10.734  12.393  0.1083  0.0014  0.0079
11240W        W27134  10.923  18.123  11.922  0.1357  0.2339 -0.3913
11241W        W27135   7.850  13.116  15.031  0.0809 -0.0888  0.0737
11242W        W27136   7.099   9.770  11.739 -0.0953  0.2829 -0.1109
11243W        W27137  13.051  11.647   5.776 -0.1454  0.2395 -0.2491
11244W        W27138  13.893  13.464  12.977  0.5110  0.0616  0.1892
11245W        W27139  11.039   2.704   0.667 -0.2331 -0.0964  0.0570
11246W        W27140   1.141   1.737   4.919 -0.2750 -0.0975 -0.0762
11247W        W27141   8.704  17.553  15.456  0.1810  0.0195 -0.2544
11248W        W27142  17.844  13.393   0.516 -0.0057 -0.3942  0.1272
11249W        W27143   4.412  14.045  13.949 -0.1064 -0.1641 -0.0222
11250W        W27144   0.307  14.122   4.489 -0.1876  0.1827  0.0487
11251W        W27145   7.084   6.172  15.868  0.1239 -0.2859  0.3511
11252W        W27146   0.246   3.689  12.113 -0.0569  0.3175 -0.1958
11253W        W27147   2.534   5.042   5.093 -0.0563  0.4406 -0.1481
11254W        W27148   7.999  16.203  10.977  0.0435 -0.0192  0.2122
11255W        W27149   6.069   8.221  14.688  0.0629  0.1458  0.0376
11256W        W27150  10.513  13.944   5.305 -0.2107  0.0107 -0.2060
11257W        W27151   3.807  13.700  14.750  0.0839  0.0916 -0.1006
11258W        W27152  14.391   9.061   4.516 -0.0253  0.3210  0.2865
11259W        W27153   7.852   0.632  14.472 -0.0539 -0.0459  0.0769
11260W        W27154  13.025  18.188   2.437 -0.1064 -0.2227 -0.2215
11261W        W27155   1.402   1.263   3.630 -0.2144  0.0384  0.0614
11262W        W27156  16.198   4.605   2.245 -0.1395  0.0208  0.0681
11263W        W27157  16.851  15.876   5.379  0.0646  0.1730 -0.1977
11264W        W27158   2.727  12.922  12.509  0.1134 -0.0920  0.3793
11265W        W27159   7.589   4.388   5.965 -0.0195 -0.0000 -0.2074
11266W        W27160   0.347  13.741   0.215  0.2065  0.1887 -0.1968
11267W        W27161   2.390  17.636   1.442 -0.1588  0.0542  0.1561
11268W        W27162   0.545  16.319   3.134 -0.2612  0.2149  0.0515
11269W        W27163   1.992  14.611   0.042  0.0529  0.0901  0.1208
11270W        W27164   9.275  15.112   0.768 -0.0492 -0.0575 -0.1506
11271W        W27165   3.306   2.513   2.117  0.1012 -0.0396 -0.2553
11272W        W27166  10.946   5.060   3.422 -0.1503  0.0353 -0.2359
11273W        W27167   8.779  17.754  11.020 -0.0399  0.2907 -0.0597
11274W        W27168   6.418   4.050   4.895  0.0688  0.3541  0.1216
11275W        W27169  10.267  11.494   0.307  0.1767 -0.3589 -0.0345
11276W        W27170  13.862   1.328   5.380 -0.0926  0.1232 -0.0202
11277W        W27171   8.155  17.481  15.666 -0.4061 -0.0742  0.2621
11278W        W27172   0.362  18.411   0.251  0.0347 -0.0435  0.0580
11279W        W27173  10.565  10.760   1.512 -0.0183  0.1243  0.1611
11280W        W27174  13.252   3.375  13.123 -0.1733  0.1404  0.2260
11281W        W27175   5.042  12.296  13.670 -0.1477 -0.0659  0.0703
11282W        W27176  14.381  17.090  15.813  0.1324  0.0635 -0.3793
11283W        W27177   6.889   0.760   1.424  0.1304  0.1323  0.1574
11284W        W27178  11.530   9.885   0.882  0.1354 -0.1883  0.3781
11285W        W27179   3.908   7.694  13.062  0.1461  0.2346  0.2774
11286W        W27180  12.320   2.469  11.139 -0.0582 -0.2184 -0.0262
11287W        W27181  15.254   9.968  15.824  0.0118 -0.1080  0.0580
11288W        W27182  17.979   7.620   2.323  0.0116  0.0112 -0.3101
11289W        W27183   9.894  13.782  13.993  0.1155  0.0987  0.1051
11290W        W27184  14.813  14.571   2.151  0.0791  0.3155 -0.1520
11291W        W27185   1.316   6.267  13.989  0.1285  0.0752  0.0707
11292W        W27186  13.824  10.058   0.132 -0.1363 -0.2347 -0.0891
11293W        W27187   3.228   4.857   3.734  0.0215 -0.2705 -0.2367
11294W        W27188   1.647   4.365  12.847  0.2016 -0.3621  0.2959
11295W        W27189  10.448   8.502  10.722  0.3027  0.0099  0.0396
11296W        W27190  10.114  12.494  14.252  0.0521  0.1508  0.0451
11297W        W27191  16.082   7.359   5.067  0.2603  0.3640 -0.1751
11298W        W27192   5.922   0.417  14.801  0.0598 -0.1058  0.3204
11299W        W27193   8.024  10.094   3.996  0.1111 -0.1193 -0.2021
11300W        W27194   0.928   6.010  12.803 -0.3669 -0.1108  0.1565
11301W        W27195  14.568  14.444  13.910  0.1288  0.1609  0.1622
11302W        W27196  18.408  12.468  13.329 -0.3297 -0.2548 -0.0929
11303W        W27197   1.691   2.289   5.648  0.1190  0.1484  0.2271
11304W        W27198  11.751   7.092   0.041  0.1399 -0.4381  0.0906
11305W        W27199  12.886   0.189  13.798  0.0055  0.2732 -0.1006
11306W        W27200   5.400  16.512  15.490  0.1546  0.1496 -0.3191
11307W        W27201   5.178   1.390   2.901  0.2491  0.2116  0.0904
11308W        W27202   3.314   9.129  11.366  0.1070 -0.0224 -0.1331
11309W        W27203  15.678  14.930  13.727 -0.2792 -0.3084  0.0544
11310W        W27204   0.105  17.469  11.589 -0.1951  0.0727 -0.1495
11311W        W27205   8.780  15.186  15.860 -0.0589  0.0169 -0.2700
11312W        W27206   0.243   0.333  13.480  0.0761 -0.1160  0.1001
11313W        W27207  13.537  11.306  14.626  0.1329 -0.0376 -0.2788
11314W        W27208   6.610   1.239  11.122 -0.0453  0.1398 -0.1771
11315W        W27209  11.908  10.488  11.204 -0.0202  0.1685 -0.0132
11316W        W27210  16.219   9.458   3.239 -0.3718 -0.0088  0.0231
11317W        W27211   7.611   6.397   3.714  0.4007 -0.0788  0.1866
11318W        W27212   0.781   0.190  15.998  0.1814  0.1488  0.2388
11319W        W27213   6.073  16.659  13.024  0.2308 -0.1207 -0.1019
11320W        W27214   3.546   4.597  12.936  0.1935  0.0927 -0.0297
11321W        W27215   9.313   2.029  13.200 -0.2635 -0.0020  0.2181
11322W        W27216   0.928  16.281  13.404  0.0934  0.0354  0.0959
11323W        W27217   6.677   2.058  15.956 -0.1790 -0.0554  0.0247
11324W        W27218   0.980  13.687  11.633  0.0917 -0.0728 -0.0066
11325W        W27219  13.897  16.057   3.930 -0.1317  0.0794 -0.1562
11326W        W27220  14.730  13.379  11.007 -0.3293  0.2212  0.1275
11327W        W27221  10.912  15.015   0.613 -0.1337 -0.2353 -0.0405
11328W        W27222  13.890  16.929  14.571  0.1871 -0.0010 -0.1384
11329W        W27223   3.223  14.690   2.595  0.2262  0.4567  0.3318
11330W        W27224   6.722   9.146  14.768 -0.2693  0.4328  0.1223
11331W        W27225   9.792   2.676  12.188 -0.1584 -0.2522  0.3368
11332W        W27226   0.267   4.225   4.836 -0.3178 -0.2792  0.0732
11333W        W27227  18.091   1.803  11.929 -0.1176  0.2414 -0.3738
11334W        W27228   5.196   0.234  15.723 -0.1847  0.0426 -0.2239
11335W        W27229   7.400  17.804  11.225  0.1496  0.0805 -0.2686
11336W        W27230   0.489   6.203   0.861  0.0336  0.0915 -0.0451
11337W        W27231  10.687   9.543  12.112  0.0874 -0.4343  0.0130
11338W        W27232   4.940   9.263   1.886  0.0577 -0.1429  0.4128
11339W        W27233  14.873  15.602  15.358  0.5829 -0.1182  0.3433
11340W        W27234   3.409   2.096   4.763  0.2115 -0.0254 -0.0326
11341W        W27235  10.603   7.649   3.118  0.3210  0.2600 -0.2014
11342W        W27236  15.896   2.730   4.248 -0.1914 -0.0660 -0.1589
11343W        W27237   0.228  12.925   0.470  0.3568  0.4050  0.3244
11344W        W27238   1.286  12.447   2.524 -0.2636 -0.2538 -0.0374
11345W        W27239   1.900   5.590   2.863 -0.1396  0.4389  0.0324
11346W        W27240  11.938   2.892   4.717 -0.0778  0.1544  0.0686
11347W        W27241   3.311  10.965  12.488  0.2273  0.3482 -0.1046
11348W        W27242  16.103   0.137  12.935  0.2129 -0.0171 -0.0480
11349W        W27243   6.063  10.207   1.318 -0.0044  0.0884 -0.2467
11350W        W27244  10.567  14.326   4.970 -0.2602  0.2850 -0.0242
11351W        W27245   2.248  13.181  12.761 -0.2256 -0.1891 -0.0356
11352W        W27246  14.822   2.949  13.223  0.2250  0.0274  0.2629
11353W        W27247   9.544  12.167  11.631  0.0810 -0.0084 -0.5212
11354W        W27248   5.543   2.221   2.726 -0.0898 -0.0727  0.1035
11355W        W27249   0.048  17.749  14.337  0.0866  0.0039 -0.2815
11356W        W27250   9.309   8.508  15.822 -0.0462  0.3213 -0.0893
11357W        W27251   5.771  13.943   0.566  0.1265  0.3966  0.0980
11358W        W27252   5.336   7.372  15.864 -0.1396  0.0117  0.0291
11359W        W27253  10.321  12.432   1.424 -0.0054 -0.0602  0.1753
11360W        W27254   9.600  12.391  14.305 -0.3700  0.1488  0.0298
11361W        W27255  12.951   1.135   0.103 -0.2193 -0.0899  0.0059
11362W        W27256  16.590   9.531  14.844 -0.0018 -0.2936 -0.1911
11363W        W27257  15.999   9.238   2.435 -0.0785  0.2329 -0.0643
11364W        W27258  15.489   0.382   1.518 -0.3192  0.2081  0.4240
11365W        W27259   6.764   6.589   5.162 -0.0965 -0.1152  0.0580
11366W        W27260   1.373   0.711   4.244 -0.1241  0.1176 -0.2291
11367W        W27261   1.686  10.369  12.106 -0.1070 -0.0980 -0.2887
11368W        W27262  14.642  15.699   5.210  0.0923 -0.0571  0.2112
11369W        W27263   2.190   3.183   1.755  0.3670  0.1951  0.0238
11370W        W27264   5.273  13.357   5.965  0.0511 -0.4976 -0.2673
11371W        W27265  12.034  10.549   4.049  0.1126 -0.2174  0.3751
11372W        W27266   1.215   0.256   0.126  0.1346  0.2049 -0.1112
11373W        W27267  16.772  14.945  12.634 -0.0593  0.1458  0.0668
11374W        W27268   7.664  14.060  14.925 -0.3953 -0.2259  0.1237
11375W        W27269   9.157   4.712   5.587  0.3733 -0.2310 -0.1196
11376W        W27270   8.360  13.577   4.398 -0.1952 -0.0798  0.0420
11377W        W27271   3.246   4.823   4.758 -0.1571  0.1377 -0.0984
11378W        W27272  11.275  14.704   0.420  0.0209  0.0034  0.3991
11379W        W27273   7.371   9.693   4.080  0.1543 -0.0522 -0.0943
11380W        W27274   8.629   2.554  14.339  0.1079  0.5654  0.1607
11381W        W27275  14.564   7.606  13.740 -0.1109 -0.1441  0.1913
11382W        W27276  18.319   3.306  13.693 -0.1284 -0.1605 -0.2157
11383W        W27277   2.638   3.999  15.564 -0.0435  0.3756 -0.2235
11384W        W27278   9.957  10.535  13.463  0.0011 -0.2499  0.0747
11385W        W27279  10.429   7.241   0.467  0.2360 -0.3192  0.1189
11386W        W27280   3.088   0.239   4.794  0.0398  0.2510  0.1807
11387W        W27281   6.605  15.598   0.977 -0.1174 -0.3882 -0.1683
11388W        W27282   8.015   9.682  15.926  0.0880 -0.0068  0.0407
11389W        W27283  15.054  15.771   3.229 -0.0196  0.0866 -0.2910
11390W        W27284  15.524  18.233  14.087  0.1418  0.2299  0.4945
11391W        W27285   7.644   3.598   5.859  0.0726 -0.0900 -0.1391
11392W        W27286   8.262  10.251  15.000 -0.0195 -0.1415  0.0310
11393W        W27287  12.019   5.281   0.840 -0.1867 -0.2850 -0.2326
11394W        W27288  11.024  18.391  15.006  0.3291  0.0990  0.2473
11395W        W27289  13.109  12.295  11.658 -0.0317  0.0968  0.0725
11396W        W27290   4.637   1.199   2.717 -0.2607  0.0095 -0.0526
11397W        W27291   3.638   4.579   0.568  0.1893  0.1556 -0.2157
11398W        W27292  15.043  17.037   0.498  0.0357  0.0228  0.3760
11399W        W27293   0.886   6.482   4.375 -0.0931  0.0595 -0.0171
11400W        W27294  14.759   3.558   5.716  0.1968  0.2569 -0.0759
11401W        W27295   8.968   9.327  13.625 -0.2469 -0.1519  0.1060
11402W        W27296  17.822   4.937   0.359 -0.1127 -0.1283  0.0267
11403W        W27297   6.179  12.420  15.324 -0.0469  0.0119  0.2722
11404W        W27298  13.652  10.812  11.431  0.3427  0.0640  0.1669
11405W        W27299   9.425   6.503   3.948 -0.0321  0.1968  0.1830
11406W        W27300   0.344   9.310   4.475 -0.1059 -0.0115  0.0744
11407W        W27301   0.874   6.013   0.481  0.1403 -0.1523  0.2670
11408W        W27302  15.583   2.808   1.627  0.1965 -0.0215  0.0181
11409W        W27303  16.089   4.935  12.219 -0.0258 -0.2818  0.4957
11410W        W27304   3.632   3.028  11.686  0.0471 -0.0140  0.3687
11411W        W27305   2.210   9.155  15.847 -0.0834  0.0990  0.2153
11412W        W27306  10.852   3.049   0.348 -0.2693  0.0192  0.0577
11413W        W27307  13.093   7.606   2.261  0.0130  0.1223 -0.0049
11414W        W27308  11.565   2.084  13.703 -0.1217 -0.1104  0.1332
11415W        W27309  14.616   7.880  12.860  0.3836 -0.1873  0.0902
11416W        W27310  10.563   2.892   0.908 -0.0993  0.2032 -0.2460
11417W        W27311  18.428   8.202   2.565  0.1149 -0.1509  0.0072
11418W        W27312  14.122  14.855   1.623 -0.0833  0.2847  0.3515
11419W        W27313   8.381   1.994   2.941 -0.1908  0.0270  0.3804
11420W        W27314  11.117  17.256   3.585  0.3215  0.0300 -0.1364
11421W        W27315   0.344   8.310  14.012 -0.0450 -0.0672  0.0027
11422W        W27316   7.441  16.296   1.484  0.1032  0.1833  0.2760
11423W        W27317  10.014   2.345   3.603  0.0602  0.0068 -0.2263
11424W        W27318   3.100   5.020  14.653  0.1931  0.1615 -0.3060
11425W        W27319   6.792   1.546  11.422 -0.3024 -0.3291  0.2417
11426W        W27320  10.383  11.642   4.576 -0.1284 -0.1796 -0.1026
11427W        W27321  17.068   2.369   1.644 -0.1956 -0.0569  0.0163
11428W        W27322  10.585   4.931  14.155 -0.1767 -0.0632 -0.1494
11429W        W27323  11.529  18.219  12.097 -0.0691 -0.4440 -0.0413
11430W        W27324   2.677   8.547  13.244 -0.0257 -0.2434 -0.0588
11431W        W27325   9.112  18.101  11.825  0.0061  0.2234  0.4018
11432W        W27326  14.493  14.893   3.480 -0.0606 -0.0738 -0.0286
11433W        W27327   2.774   1.834  14.935 -0.1041  0.1056 -0.2572
11434W        W27328   3.215   3.796  11.954  0.1685  0.0659  0.1247
11435W        W27329   1.669   9.053   2.983  0.0034 -0.2013  0.1180
11436W        W27330  13.841   3.417   5.211 -0.2968 -0.0500 -0.4359
11437W        W27331  15.709   0.990   2.482  0.0585 -0.0898 -0.1136
11438W        W27332  10.063  13.835   2.741 -0.1600  0.2040  0.0580
11439W        W27333   3.086  11.215   3.918 -0.0560  0.1859 -0.1088
11440W        W27334  14.935  12.624   0.142  0.1115  0.0377  0.3260
11441W        W27335   7.180   4.340  12.426  0.0470  0.0698 -0.2480
11442W        W27336  15.570   3.785  15.417 -0.1964 -0.0719  0.0675
11443W        W27337  14.950   3.807   3.205  0.0478  0.2945 -0.1124
11444W        W27338   4.701  16.438   5.661  0.2290 -0.0431 -0.1003
11445W        W27339   6.446   7.732   4.889 -0.2159 -0.2280  0.2948
11446W        W27340   6.274   6.810   3.296  0.1299  0.0645 -0.2488
11447W        W27341  14.426   8.805   0.634 -0.1868  0.2431 -0.0645
11448W        W27342  14.975  14.386  13.639  0.2403  0.0548  0.1319
11449W        W27343   5.169  18.251   5.858  0.2741  0.1987 -0.0394
11450W        W27344   3.911   0.945   1.106 -0.1612 -0.3727  0.0904
11451W        W27345   5.227   6.682   4.997  0.0799 -0.1143 -0.1005
11452W        W27346   9.175   1.833  13.734  0.1487  0.0911 -0.3463
11453W        W27347  13.712   5.893   1.749  0.0692 -0.0236 -0.1596
11454W        W27348   8.894   1.591   5.486 -0.1049  0.1114  0.2498
11455W        W27349  13.691  16.991  13.013  0.0736  0.2454  0.2247
11456W        W27350   4.655  15.819  11.450  0.0052  0.1046  0.3525
11457W        W27351  13.864  16.159   3.414 -0.4794 -0.0906 -0.1526
11458W        W27352   0.060   0.024   3.711  0.2580  0.0445  0.0839
11459W        W27353   5.491   0.440  15.313  0.1615 -0.2615 -0.0372
11460W        W27354  16.279   6.541  14.214 -0.1243 -0.1658 -0.1431
11461W        W27355  16.527  17.727  11.942 -0.2451 -0.1070  0.0223
11462W        W27356  17.982   9.709  12.684 -0.2127 -0.0091 -0.3421
11463W        W27357  18.230  17.891  11.429 -0.0109 -0.3791  0.2940
11464W        W27358  13.531  12.184   4.398  0.0803  0.1306 -0.0760
11465W        W27359   1.685  17.648  11.077  0.2229  0.0136 -0.2830
11466W        W27360  12.001  17.243   1.237  0.1436  0.3161 -0.0591
11467W        W27361  11.557   0.538   3.656 -0.1896 -0.3939 -0.0595
11468W        W27362  11.505  12.209  14.962 -0.0420 -0.0297  0.1109
11469W        W27363   0.972  10.464   2.114  0.0990  0.2355  0.2377
11470W        W27364   8.696   1.563  13.004  0.3858  0.1098 -0.1713
11471W        W27365  18.021  18.228   2.970 -0.2189 -0.2108  0.3479
11472W        W27366   0.379  15.914  11.477 -0.2189 -0.0583 -0.0562
11473W        W27367  12.008  17.298  15.083  0.0420  0.0631  0.5123
11474W        W27368   5.297  14.764  13.063 -0.1955  0.2890  0.1747
11475W        W27369   3.207   4.167   5.572 -0.2612 -0.1818 -0.1119
11476W        W27370  11.703   0.580  12.502 -0.0930 -0.0641  0.1121
11477W        W27371   3.456   4.545  11.402  0.1125 -0.0038  0.0026
11478W        W27372  16.363   4.339   1.292 -0.2542  0.0733 -0.2204
11479W        W27373   4.606  13.631   0.706  0.1120 -0.1179  0.2968
11480W        W27374   1.325  15.124   2.817 -0.1537 -0.3464 -0.0825
11481W        W27375  13.659   9.236   0.256 -0.3207 -0.0499 -0.1421
11482W        W27376  17.164  10.272  14.998 -0.0297  0.1049  0.0914
11483W        W27377   3.445  14.041  13.223  0.0119 -0.0552  0.2649
11484W        W27378   1.205   4.721  13.972 -0.5413 -0.0249 -0.1463
11485W        W27379   9.869   1.034   3.842 -0.0444 -0.1476 -0.1082
11486W        W27380  11.412   1.729   3.019 -0.0318  0.1269 -0.0134
11487W        W27381  17.323   0.377  15.507 -0.1561 -0.2797 -0.0229
11488W        W27382  16.773  11.467  14.751 -0.2736  0.0202 -0.1479
11489W        W27383  11.040   5.628  14.034  0.1828  0.0186 -0.2377
11490W        W27384   6.784  11.978  14.782  0.3490 -0.0539 -0.1262
11491W        W27385  14.046  13.142  15.007 -0.0290  0.0156  0.0030
11492W        W27386   2.393   4.965  14.032 -0.2722 -0.1732  0.1082
11493W        W27387  13.241  12.084   2.012  0.1630  0.3454 -0.2295
11494W        W27388  12.495  12.467   3.190  0.0410  0.0290 -0.0407
11495W        W27389  13.716   6.449   4.968 -0.1141 -0.0227  0.0324
11496W        W27390   6.342  10.509  11.278  0.0803  0.2266 -0.0871
11497W        W27391   5.800  13.906  11.774  0.0812 -0.1862 -0.3585
11498W        W27392  17.679  17.065   5.443 -0.1850 -0.1442  0.2134
11499W        W27393   9.431  12.338  10.743 -0.0118 -0.0434 -0.2912
11500W        W27394   9.063   1.761  16.010 -0.0925  0.1490 -0.1610
11501W        W27395  18.037  17.960  13.481 -0.2364 -0.1105 -0.0608
11502W        W27396  16.173   3.539   4.579 -0.0574 -0.1177 -0.1053
11503W        W27397   8.793   2.020  15.572 -0.1065  0.3858  0.1812
11504W        W27398   9.511   3.318  13.756 -0.3396  0.1516 -0.1152
11505W        W27399  14.762  15.582  14.301 -0.0577 -0.0167  0.0411
11506W        W27400  10.690  15.804   9.946  0.0525 -0.0889  0.1894
11507W        W27401   0.997  16.264   4.162  0.1155 -0.0418  0.4340
11508W        W27402   1.243  11.717  15.681  0.2314 -0.2701  0.2985
11509W        W27403   9.373  12.613  11.198  0.2859  0.1518 -0.1564
11510W        W27404   4.554  16.690  11.808  0.0672 -0.2933 -0.2194
11511W        W27405  15.036  15.383  13.927  0.1185 -0.1090  0.3924
11512W        W27406  15.784  12.777   5.195 -0.0513 -0.0308 -0.0270
11513W        W27407   0.312   4.444  14.681  0.2752 -0.0443 -0.0800
11514W        W27408   2.368   9.582  13.105 -0.0099  0.1369  0.1381
11515W        W27409   4.015  16.007   4.395 -0.1153  0.3398  0.0699
11516W        W27410   0.283   1.342   2.187 -0.1464  0.1800  0.0211
11517W        W27411  11.354  15.009  16.148 -0.0148  0.0732 -0.1150
11518W        W27412  17.944   7.158   1.513 -0.2146  0.2635 -0.1336
11519W        W27413   0.269  15.664  13.420 -0.0172 -0.0787 -0.1318
11520W        W27414   5.374  13.286  15.171 -0.0389  0.4989  0.2333
11521W        W27415   9.882  13.314   3.001 -0.2106  0.2936  0.1495
11522W        W27416   6.045  13.373   0.262  0.2374  0.0406 -0.1377
11523W        W27417   2.000  18.237  14.643 -0.0553 -0.0603  0.0058
11524W        W27418  16.247   9.950   4.311 -0.0106  0.3704 -0.0552
11525W        W27419   7.154   9.961  13.841  0.0191 -0.2112  0.1031
11526W        W27420   3.729  10.640   4.748 -0.0400 -0.1155  0.1098
11527W        W27421  11.983   1.020   4.823  0.2601 -0.0480  0.0700
11528W        W27422   6.249  10.078  11.992 -0.1980 -0.1386  0.0334
11529W        W27423   7.695   8.991  13.341 -0.2152  0.1752  0.0439
11530W        W27424   6.307  13.540  14.138 -0.0552  0.2265 -0.3010
11531W        W27425  16.192  12.866   4.615 -0.0381 -0.2263  0.1797
11532W        W27426   8.139  17.426   5.442 -0.0609 -0.0756  0.1643
11533W        W27427  14.325  14.024  13.063 -0.0052 -0.0033 -0.0452
11534W        W27428   3.557  13.603   4.449 -0.1775 -0.0163  0.2895
11535W        W27429   2.814   3.990   0.440 -0.3472 -0.0092 -0.0984
11536W        W27430   5.549  10.689   0.971  0.0468 -0.0615 -0.3869
11537W        W27431  15.414  15.910  13.069  0.2393 -0.0231 -0.0221
11538W        W27432  15.961   4.375   5.698  0.0115  0.2409  0.0802
11539W        W27433  11.460  15.231   5.799  0.1520  0.1305  0.0012
11540W        W27434   3.225   7.089  12.049  0.3050 -0.0968  0.0447
11541W        W27435   0.390  16.164   2.240 -0.3359  0.0225 -0.0380
11542W        W27436   3.872  13.389  11.597 -0.0906  0.3893 -0.3432
11543W        W27437   9.035   2.148   0.224 -0.1737 -0.0212 -0.1370
11544W        W27438   7.804   7.078   2.154 -0.0836 -0.1587 -0.1666
11545W        W27439   5.480  17.633  14.799 -0.3319 -0.0534  0.1739
11546W        W27440   2.929   1.690  13.853 -0.1941  0.4241  0.0070
11547W        W27441   2.074  15.199  14.184  0.0685  0.3946  0.0570
11548W        W27442   9.408  10.852   2.979  0.3302  0.0898  0.2525
11549W        W27443  10.629   9.397  15.751  0.1231 -0.1405 -0.2574
11550W        W27444  14.770  11.430  14.403  0.3249 -0.0272  0.1113
11551W        W27445   9.094  10.257  11.276 -0.6419 -0.2340 -0.2322
11552W        W27446   8.700   8.987  13.820 -0.1075  0.0370  0.2670
11553W        W27447  16.069   3.995  13.115 -0.0562  0.3019  0.1850
11554W        W27448  17.393   7.550  15.932 -0.2226  0.4533 -0.0386
11555W        W27449   5.849  13.836   1.124  0.2047 -0.2717 -0.1689
11556W        W27450  14.102   3.339  15.220 -0.2689  0.1190  0.1611
11557W        W27451  14.480   7.516   5.821  0.2907 -0.1056 -0.0079
11558W        W27452  13.366  12.376   2.487  0.0884  0.1259  0.0205
11559W        W27453  17.729   4.440  11.721 -0.3008  0.0851  0.3317
11560W        W27454   2.549  12.879   2.558 -0.2854  0.0088  0.2954
11561W        W27455   7.856  16.376  13.888  0.3214 -0.0521  0.4468
11562W        W27456   3.101  14.275  12.086 -0.2967  0.0480 -0.1439
11563W        W27457   1.453   8.014   1.315  0.2946  0.0988  0.1656
11564W        W27458   6.422  11.610   1.061 -0.0177  0.1629 -0.1708
11565W        W27459  10.574  10.335  15.728 -0.0281 -0.1138  0.0425
11566W        W27460  13.411   5.761  14.806  0.0973 -0.0006  0.0258
11567W        W27461   1.223  15.096  13.533 -0.1806 -0.0981 -0.1415
11568W        W27462  15.401   9.628  14.545  0.3266  0.0290 -0.0284
11569W        W27463   7.002   3.751  15.865 -0.2961  0.0383 -0.1861
11570W        W27464   3.057  16.627  11.340  0.0334 -0.2658 -0.1191
11571W        W27465   5.958   7.126  15.737 -0.0153 -0.2495  0.2625
11572W        W27466   4.221  12.743  11.087  0.1883  0.1062  0.0915
11573W        W27467   1.373   3.590   5.224 -0.2007  0.2633 -0.1761
11574W        W27468   1.894   3.007  11.093  0.2457 -0.2469 -0.1510
11575W        W27469   8.550   9.392   4.284 -0.3167 -0.0396 -0.0761
11576W        W27470  15.779   0.861  12.014  0.1358 -0.1719 -0.0826
11577W        W27471   3.382   8.872  12.476  0.2382 -0.0438 -0.0636
11578W        W27472  11.209   7.197  16.104  0.0274 -0.0045  0.3663
11579W        W27473   9.919  10.246   1.214 -0.4331  0.1451 -0.0207
11580W        W27474  13.751   0.647  12.492  0.2807 -0.1982  0.0071
11581W        W27475  15.716   9.234  15.699  0.0088 -0.1585  0.3382
11582W        W27476   3.293   8.072  10.212 -0.0123  0.2191  0.1039
11583W        W27477  17.567   5.175  15.454 -0.2095 -0.1228 -0.0896
11584W        W27478   3.518   9.304  15.173 -0.0772 -0.2026  0.3355
11585W        W27479   5.509   4.835   2.254  0.0652  0.1187  0.3403
11586W        W27480   8.418  16.615  14.434  0.1249 -0.0705 -0.2269
11587W        W27481  16.110  16.382   6.259 -0.2114  0.4300 -0.1075
11588W        W27482  15.685   8.515   4.076 -0.3681  0.0474 -0.2874
11589W        W27483  10.676   9.972  11.825 -0.1743 -0.1598  0.1443
11590W        W27484  15.763   0.403   2.332  0.4393 -0.2242  0.0771
11591W        W27485  15.898  13.272  14.882  0.1443  0.1772  0.0562
11592W        W27486   6.077  10.729  10.862  0.1976  0.0505 -0.2068
11593W        W27487   5.848  17.274  15.839 -0.2764 -0.0388  0.1592
11594W        W27488   4.980  17.694  13.529  0.2480  0.0746  0.3887
11595W        W27489  17.518  16.430  16.005 -0.0807 -0.2179  0.1510
11596W        W27490   3.123   5.249  15.980 -0.1713 -0.0305  0.2562
11597W        W27491  14.103   5.062   3.553  0.0979  0.1924 -0.2092
11598W        W27492   0.829   1.772   1.635  0.1267 -0.0727  0.2109
11599W        W27493  11.619  11.161   4.221 -0.0146  0.1561 -0.1164
11600W        W27494   9.613  14.968   5.428 -0.5436  0.2243 -0.0123
11601W        W27495  15.077   2.049   2.614  0.1674 -0.2232 -0.1700
11602W        W27496   0.999   6.664  14.273  0.0009  0.1341 -0.0081
11603W        W27497  18.388  14.615   3.250 -0.2757 -0.0826 -0.1553
11604W        W27498  12.056   3.908   3.951 -0.1225  0.0763 -0.0555
11605W        W27499  17.645   5.586   1.233 -0.2918 -0.6585  0.1519
11606W        W27500  10.841   5.539   2.499 -0.0032  0.2944 -0.0679
11607W        W27501  11.217  18.154  15.607  0.3781  0.1070  0.1568
11608W        W27502   7.339   1.320  10.572 -0.0785  0.0692  0.2016
11609W        W27503  14.101  15.371  12.904  0.0425  0.1280  0.0430
11610W        W27504   1.119   9.635   4.111  0.0223  0.1286  0.0358
11611W        W27505  14.650   2.993  15.124 -0.1259 -0.3856  0.0875
11612W        W27506   0.137  17.987  16.107 -0.3041 -0.0081  0.0801
11613W        W27507  16.454   5.136   6.005  0.1780  0.1938 -0.1324
11614W        W27508  17.346  17.998  11.058 -0.2337 -0.0417 -0.2913
11615W        W27509  18.153   3.396   5.005 -0.2823 -0.1522  0.2731
11616W        W27510   7.107  16.119  12.552  0.0583  0.1137  0.0056
11617W        W27511  10.432  13.702  10.910  0.1857  0.0023  0.1421
11618W        W27512  18.072  10.706   2.613  0.1361 -0.1378  0.0659
11619W        W27513  16.941   5.696   2.339 -0.0593 -0.1081 -0.0804
11620W        W27514  13.334   9.359   1.737 -0.1194  0.3274  0.3523
11621W        W27515  16.793   3.741  12.699 -0.2077  0.2225 -0.0701
11622W        W27516  15.313   2.999  12.745 -0.1118  0.1157  0.1909
11623W        W27517   8.548  10.978  15.890  0.0084 -0.0103  0.0033
11624W        W27518  14.860  11.124  12.315  0.2214  0.2778  0.3470
11625W        W27519  11.561  16.145  11.980 -0.0027  0.0658  0.0859
11626W        W27520   4.891  11.807  12.477  0.2958 -0.0297 -0.1170
11627W        W27521   3.270  17.206   0.490 -0.2094 -0.0017 -0.0812
11628W        W27522   5.564   6.249  12.143  0.2957 -0.2570  0.1254
11629W        W27523   1.372   4.903   2.658  0.0738 -0.0300 -0.2470
11630W        W27524   6.056   7.207  15.251  0.1319 -0.0230 -0.1768
11631W        W27525   7.754   6.988  13.366  0.1847  0.3326 -0.0980
11632W        W27526   7.907   0.938   5.093 -0.1463  0.1305  0.1570
11633W        W27527  12.431   0.930   1.078 -0.3124  0.2277  0.0418
11634W        W27528  10.644   0.884  10.748 -0.2674 -0.0574 -0.1423
11635W        W27529   8.167   5.553  10.991  0.1686  0.0428  0.1436
11636W        W27530  16.253   8.667   2.168 -0.3424  0.0135 -0.0518
11637W        W27531   8.414   1.853  14.837 -0.4590 -0.1112  0.0148
11638W        W27532  18.109  13.351  13.086  0.0445 -0.1069  0.2144
11639W        W27533  12.038   8.319   1.035 -0.0719 -0.0023  0.0256
11640W        W27534  10.162   9.719  12.910  0.1811 -0.0736  0.2091
11641W        W27535   7.111  17.937  12.587 -0.2236 -0.0498  0.0294
11642W        W27536   3.391  10.468  11.258  0.1559  0.0098 -0.0168
11643W        W27537   7.747  14.205   0.691 -0.3743 -0.0373  0.2926
11644W        W27538   6.935   3.835   0.552 -0.1649 -0.1860 -0.0200
11645W        W27539  18.130  14.869  12.936 -0.1892 -0.2910  0.0602
11646W        W27540  12.528   5.108   4.786 -0.2487 -0.0736  0.0055
11647W        W27541  11.108  16.386  12.460 -0.2783  0.2891  0.1746
11648W        W27542  16.130  15.964   0.512  0.3319  0.0210 -0.1330
11649W        W27543  14.751   2.583   6.442 -0.2149 -0.1413 -0.1454
11650W        W27544  11.572   2.260   0.181  0.0652 -0.1383 -0.0761
11651W        W27545   6.839  12.096   3.915  0.0253  0.1606  0.0733
11652W        W27546  10.377   6.645  16.011  0.1782  0.4415 -0.1622
11653W        W27547   7.641  10.511   5.046  0.1366  0.1877  0.3204
11654W        W27548   3.841   2.746   5.203 -0.2915  0.0787 -0.0046
11655W        W27549  18.392  12.685   4.077  0.0000 -0.0880  0.2008
11656W        W27550  15.769  16.716  12.534  0.1791  0.1713  0.0514
11657W        W27551  11.111  16.533   4.742  0.3176  0.0878 -0.1608
11658W        W27552  14.437  17.817   0.662 -0.0166 -0.1149  0.0009
11659W        W27553   3.428  11.009  11.005  0.0146 -0.0606  0.0865
11660W        W27554   9.961  17.966   3.237  0.1459 -0.0747 -0.0788
11661W        W27555  16.540  16.834  11.384  0.0239 -0.0796 -0.1083
11662W        W27556   9.184  16.957  10.882 -0.0104  0.2524  0.3080
11663W        W27557  11.652  17.972   3.702 -0.4185  0.2087  0.2708
11664W        W27558  13.474   9.347  12.719  0.2985  0.2406 -0.1435
11665W        W27559   3.037   4.817  15.317  0.1647 -0.0816 -0.2068
11666W        W27560   0.422   5.716  15.700  0.2205  0.0667  0.0234
11667W        W27561  14.294   9.873   6.241  0.3556 -0.2469 -0.2970
11668W        W27562   6.194   2.091   3.619 -0.2049 -0.4507  0.0807
11669W        W27563  11.777   8.244   2.205 -0.2304 -0.4538 -0.2650
11670W        W27564   3.544  10.235  13.310  0.0706  0.1061  0.0290
11671W        W27565   7.884   7.182  11.080 -0.0261 -0.0536 -0.0430
11672W        W27566  11.233  13.482  15.418  0.1073  0.1143 -0.2020
11673W        W27567  10.945   0.492  11.166 -0.0508  0.0610 -0.0777
11674W        W27568  17.701   4.379  14.469 -0.0810 -0.0162  0.0306
11675W        W27569   9.064  10.328  14.392 -0.2307  0.0069 -0.0787
11676W        W27570   4.607   6.398  12.908 -0.2991  0.0007 -0.1216
11677W        W27571  13.532   6.083  12.082 -0.3735  0.1826  0.0708
11678W        W27572   9.293  13.531  11.387  0.1596 -0.1079 -0.1258
11679W        W27573   3.450  11.078  14.954  0.0102  0.0439 -0.0292
11680W        W27574   4.965  15.286  12.916 -0.4466  0.0750 -0.0811
11681W        W27575  14.448  15.402   1.031 -0.1616 -0.1050  0.0905
11682W        W27576  14.793  18.220  12.756  0.3382  0.1520  0.3343
11683W        W27577  14.257  14.041  11.717 -0.3005 -0.0347 -0.0167
11684W        W27578   5.843   8.506   2.348  0.2077 -0.2380 -0.2519
11685W        W27579   6.795   0.160   3.181  0.0415  0.0198 -0.0350
11686W        W27580   9.807   5.478   0.217  0.0519 -0.4987  0.0846
11687W        W27581  14.838  16.952   3.485  0.2532 -0.0476 -0.0926
11688W        W27582  14.148   9.022   3.540  0.2842  0.0364  0.0142
11689W        W27583   0.223  15.771   0.375  0.1315 -0.0586  0.0744
11690W        W27584   3.932   8.677  15.569  0.1405  0.0831 -0.0653
11691W        W27585   0.893  15.649   3.601  0.1212  0.3771 -0.1165
11692W        W27586  13.533   6.636   2.229  0.4156 -0.2600  0.3432
11693W        W27587  13.244   8.364  15.880 -0.2666 -0.1560  0.0872
11694W        W27588  11.281   3.200   2.876  0.2762  0.1051 -0.0405
11695W        W27589  18.031  16.100   3.458 -0.0783 -0.2757  0.0781
11696W        W27590   5.722   4.664  12.292  0.2929 -0.0955  0.0089
11697W        W27591   6.279   3.581   4.753 -0.2510 -0.0452  0.4572
11698W        W27592  16.998  10.160  13.807 -0.0442  0.2933 -0.0784
11699W        W27593   2.924  15.242   0.627 -0.0550 -0.2966  0.2240
11700W        W27594   3.016   2.812   0.434 -0.3293 -0.1769 -0.1015
11701W        W27595  14.971  18.009   2.539 -0.3260 -0.4671  0.1171
11702W        W27596  11.541  13.635  13.911 -0.1780 -0.2766  0.2714
11703W        W27597   3.507  12.164  15.167 -0.0420 -0.1189 -0.0811
11704W        W27598  11.212  12.850  14.810 -0.1901  0.1637 -0.1039
11705W        W27599  15.965  17.126  14.866  0.1201 -0.0482 -0.1484
11706W        W27600  18.242   1.280  11.917 -0.0104 -0.2648  0.1662
11707W        W27601  11.475   7.574  12.172 -0.4012 -0.0158  0.2826
11708W        W27602   0.294   3.587   1.327 -0.1406  0.0456 -0.0825
11709W        W27603   8.407   1.164  12.931 -0.3128  0.1038 -0.0229
11710W        W27604   2.195   3.738   3.408 -0.1879  0.0733 -0.0708
11711W        W27605  10.262  17.392  13.318 -0.3742  0.0091 -0.0242
11712W        W27606  11.071   4.270  11.297 -0.1721 -0.0852 -0.3738
11713W        W27607  12.696   0.445  15.273  0.0695 -0.3347  0.3400
11714W        W27608   5.378   1.860   5.586  0.0983 -0.0674 -0.3599
11715W        W27609  13.968   1.232  14.973 -0.0001  0.2336 -0.0956
11716W        W27610   9.932  17.916   4.318 -0.2169  0.1772  0.2568
11717W        W27611  10.009   0.376   4.556 -0.2535 -0.0014  0.0089
11718W        W27612   2.476  16.293  12.515  0.0391  0.1388  0.1694
11719W        W27613  12.243   4.048  12.326 -0.0576  0.0260  0.0612
11720W        W27614  15.499   0.007   1.114 -0.2768  0.1461 -0.2718
11721W        W27615  17.464  10.093   5.506 -0.0930  0.0380 -0.0591
11722W        W27616  17.348   4.852  15.089  0.0230 -0.0448  0.1329
11723W        W27617  12.861  10.260   4.079 -0.0210 -0.0223 -0.3133
11724W        W27618   3.326  12.651   4.133  0.2559  0.0570  0.1634
11725W        W27619   4.739   7.526   4.064 -0.3466  0.0412  0.0236
11726W        W27620   9.701   9.125   5.412 -0.3507  0.0412  0.2331
11727W        W27621  15.517  10.756   3.021 -0.1238 -0.2124  0.1829
11728W        W27622   7.642  15.280  13.825 -0.2320  0.0127 -0.0216
11729W        W27623  12.267  17.729  12.098 -0.1830 -0.1329 -0.0433
11730W        W27624  13.505  12.733  14.701 -0.0369  0.0098  0.0596
11731W        W27625   6.985   5.397   3.683 -0.0535  0.0379  0.1076
11732W        W27626  16.011   5.840  12.304 -0.0381 -0.1207 -0.0764
11733W        W27627   1.793  11.673   5.579 -0.1035  0.0807 -0.0104
11734W        W27628  11.363   8.884   1.100  0.0495 -0.3304 -0.4828
11735W        W27629   0.474  11.441   5.708 -0.3259  0.0334 -0.1196
11736W        W27630   0.053   1.016  15.156 -0.1192  0.0348  0.0893
11737W        W27631  14.469  15.028   0.688 -0.0482  0.1021 -0.2352
11738W        W27632   7.237   8.063  12.688 -0.1236 -0.0335 -0.1896
11739W        W27633  15.196   3.129   0.454 -0.0736 -0.0221  0.1170
11740W        W27634   2.339  12.623  14.508 -0.2474 -0.3209 -0.0728
11741W        W27635  15.808   1.797  15.741 -0.1288 -0.0750 -0.1713
11742W        W27636   6.832  11.201  11.391  0.1255  0.2766 -0.3226
11743W        W27637  15.864   1.334  15.807  0.2791  0.0777  0.0982
11744W        W27638  10.459   8.983   3.213  0.1513 -0.0479  0.2018
11745W        W27639   8.123  11.749  11.547  0.2073 -0.1869  0.2936
11746W        W27640   5.378  14.166   2.227 -0.0036  0.0330 -0.0998
11747W        W27641  11.825  17.905  11.371  0.0973  0.4440  0.4811
11748W        W27642  16.051  10.498  12.263 -0.0197 -0.2796  0.4111
11749W        W27643  17.016  16.121   0.553  0.2542  0.0713 -0.1739
11750W        W27644   0.256   1.686   1.682 -0.0348 -0.1700  0.1992
11751W        W27645   5.507  12.452   3.401  0.1203 -0.1461 -0.2304
11752W        W27646  10.995   9.009   0.744 -0.0400  0.1248  0.2080
11753W        W27647  11.383   9.383   2.762  0.1623 -0.1147 -0.1532
11754W        W27648   0.381   3.468  11.713 -0.4478  0.2659  0.0613
11755W        W27649  12.435   0.976  15.372  0.1741  0.3935 -0.1844
11756W        W27650   0.956  14.676   4.320  0.0821 -0.1452  0.0590
11757W        W27651   6.660  10.792   4.542 -0.4643  0.4624 -0.2727
11758W        W27652  15.267  17.758  11.947 -0.2639  0.1699 -0.1324
11759W        W27653  10.014   7.807  11.838  0.1207 -0.0762 -0.0492
11760W        W27654  18.337   6.341   1.209 -0.1133 -0.3081 -0.1566
11761W        W27655   5.144  11.434  15.774 -0.1780  0.4063  0.2212
11762W        W27656  10.715  17.994  15.880  0.0329  0.0467  0.0052
11763W        W27657  14.723  10.212   1.223  0.1509  0.0193  0.3226
11764W        W27658   5.187   0.512   2.526 -0.0341 -0.0473  0.0164
11765W        W27659   6.306   9.755   5.956 -0.0074 -0.2675  0.0150
11766W        W27660   4.867  17.707  14.006 -0.2308 -0.2258 -0.1585
11767W        W27661   0.499  12.788  11.566  0.2095 -0.0784 -0.0860
11768W        W27662  17.698  13.915   2.436  0.0729 -0.3375  0.0493
11769W        W27663  15.095   7.392   2.027  0.0523  0.1333 -0.0348
11770W        W27664   1.105  15.459  13.925  0.2126 -0.0323 -0.0382
11771W        W27665  17.482  13.797  12.213  0.3623  0.0545 -0.1599
11772W        W27666  13.706   8.100   2.515 -0.1493  0.0429 -0.0003
11773W        W27667   8.301  12.441   2.886 -0.1021 -0.0908  0.1774
11774W        W27668   1.878  18.453  14.213  0.0334  0.3252  0.0288
11775W        W27669   7.956  17.720   2.289 -0.3918 -0.1513 -0.0550
11776W        W27670   0.210   8.893  13.497 -0.0782 -0.0510 -0.2789
11777W        W27671  10.207  11.176   3.128 -0.1660 -0.0078 -0.0001
11778W        W27672   8.688  16.998   3.299  0.4586 -0.1741  0.2139
11779W        W27673   9.286   8.352   4.535 -0.1159 -0.0895  0.2569
11780W        W27674   6.085  12.331  16.106 -0.0923 -0.1154  0.2259
11781W        W27675  15.312   1.969   6.161 -0.2405 -0.2313 -0.0446
11782W        W27676   2.458   1.394   1.536  0.1272 -0.0249  0.0621
11783W        W27677   7.850   0.299   2.329  0.3065 -0.2229 -0.1422
11784W        W27678   5.700  14.442  11.693  0.4521 -0.1688  0.1925
11785W        W27679   2.757   6.599   1.634 -0.2302 -0.1106  0.0305
11786W        W27680  10.102  12.838  12.829  0.1244  0.1820 -0.0713
11787W        W27681   5.920   2.369  11.623 -0.0392  0.2620 -0.2239
11788W        W27682   0.551   6.803  12.529 -0.2430  0.0646 -0.1478
11789W        W27683   6.467   6.863   1.769  0.1530 -0.0477  0.0965
11790W        W27684  16.840   7.305  12.890  0.2173 -0.1686  0.2748
11791W        W27685   4.770   0.040  13.429 -0.3198  0.2163  0.2556
11792W        W27686  18.141  13.840   4.100 -0.1554  0.2574  0.1275
11793W        W27687  13.815   5.312  12.699  0.2554  0.2548  0.0184
11794W        W27688  10.230  14.777  11.068 -0.1741  0.0049 -0.0207
11795W        W27689   3.653   1.999   4.294  0.2284 -0.2980 -0.0589
11796W        W27690  17.631   2.005   5.656 -0.0058  0.3504 -0.1560
11797W        W27691   6.242  13.107  12.917  0.2168  0.3758  0.1314
11798W        W27692   2.992   7.916   0.285 -0.0449  0.0213 -0.1702
11799W        W27693   4.478  14.114  12.852  0.0503  0.0186 -0.1305
11800W        W27694   0.165   8.877  12.797  0.0827  0.2369 -0.0341
11801W        W27695  10.154   8.330  11.804 -0.0415 -0.0402 -0.1242
11802W        W27696  12.309  11.400   2.909 -0.0637 -0.0455  0.4040
11803W        W27697  16.817  11.326  12.122 -0.1395  0.2347  0.2218
11804W        W27698   0.848  14.078  14.511 -0.0479 -0.3342 -0.1242
11805W        W27699  10.853   8.600   2.653 -0.0293 -0.0046  0.0389
11806W        W27700   3.286   4.435   3.527 -0.4038 -0.1280  0.2203
11807W        W27701   3.814  10.338  12.876  0.0815 -0.0190  0.0474
11808W        W27702   0.100   1.194   1.713  0.2654 -0.3023  0.0551
11809W        W27703  18.133   5.521   1.059  0.5224 -0.1034 -0.0373
11810W        W27704   5.328  11.078   5.165  0.1377 -0.2922  0.4352
11811W        W27705  11.355   7.011   5.456 -0.0160 -0.1651  0.0704
11812W        W27706   2.357   8.595  15.108 -0.0418 -0.1567 -0.2321
11813W        W27707   8.211  13.327   3.268 -0.0694 -0.2086 -0.1951
11814W        W27708   3.118   4.789   1.107 -0.1118 -0.3356 -0.0312
11815W        W27709   8.696   0.271   0.021 -0.0256 -0.0561 -0.0260
11816W        W27710   4.301   5.513   3.680  0.0616  0.3849 -0.1011
11817W        W27711  17.912  13.023  13.949  0.0156  0.1556  0.0452
11818W        W27712   5.997   4.055   1.056 -0.3452 -0.0247  0.0750
11819W        W27713   9.750  15.039  15.834  0.1919  0.1217 -0.2289
11820W        W27714   1.600  18.330  14.941 -0.2054  0.0059  0.0131
11821W        W27715  10.765  13.223   2.689 -0.5708  0.0549 -0.0500
11822W        W27716   2.391   1.530  12.485 -0.1225 -0.0660  0.0168
11823W        W27717   0.556  10.721  13.682  0.3789  0.2981  0.0628
11824W        W27718  16.459  11.354   3.336 -0.0365  0.2058 -0.0918
11825W        W27719   7.913   1.416  12.672 -0.0193 -0.1836 -0.0270
11826W        W27720   7.542   1.605   4.255  0.0858  0.0347 -0.2445
11827W        W27721   3.587   3.364   1.630 -0.0319  0.0652  0.2270
11828W        W27722  10.358   6.899   0.918 -0.1590  0.4101 -0.2388
11829W        W27723  17.628   2.419   5.905  0.2608  0.0568  0.1056
11830W        W27724  16.615   6.458   0.458  0.0233  0.1012  0.0753
11831W        W27725  13.240  15.455  12.858  0.0854  0.3442  0.4182
11832W        W27726  18.059   6.792  12.739  0.2682  0.2222  0.3949
11833W        W27727   9.394   2.548  13.193 -0.1759  0.0634  0.1832
11834W        W27728  11.420   3.688  16.135 -0.0061  0.0638  0.2681
11835W        W27729   2.572  16.483   0.519  0.0553  0.2098 -0.3452
11836W        W27730   5.148   3.051   3.359 -0.1604  0.1970  0.2103
11837W        W27731   4.124   2.184  15.034  0.3809  0.1485  0.0633
11838W        W27732   5.503   0.265  12.217 -0.1660 -0.1282 -0.0077
11839W        W27733   7.059  14.104  13.781  0.1900 -0.2294 -0.2862
11840W        W27734  11.282  15.700   5.436  0.1132  0.2800 -0.6918
11841W        W27735  14.630  14.987  15.485  0.2409  0.0335 -0.1836
11842W        W27736  10.713  13.175   1.025  0.1454  0.2075  0.0609
11843W        W27737  17.125  17.726   3.084 -0.3224 -0.0375 -0.2698
11844W        W27738  11.590   6.396   0.538 -0.0168  0.3290  0.2801
11845W        W27739   7.783   7.345   5.468  0.2305  0.0126  0.0426
11846W        W27740   4.023  17.874  13.315 -0.0678 -0.1120 -0.0922
11847W        W27741  15.526  16.856   3.086 -0.2941  0.1697 -0.0962
11848W        W27742  14.516  11.902   3.365  0.1387 -0.1185  0.1635
11849W        W27743  17.475  16.473  11.752 -0.0263 -0.3207  0.2692
11850W        W27744  16.681  13.813   0.105 -0.0221 -0.2922  0.3926
11851W        W27745   9.234  14.799   3.655 -0.0595  0.0815  0.0909
11852W        W27746  10.202   2.558  16.053  0.0518 -0.2739 -0.1079
11853W        W27747  14.977   4.609  13.215 -0.2218  0.1202  0.0520
11854W        W27748  14.408  12.269   0.777 -0.0139 -0.0324  0.2635
11855W        W27749  17.656   6.217  14.813 -0.0110 -0.1294  0.0192
11856W        W27750   0.232  15.957   3.809 -0.0192  0.2723  0.1769
11857W        W27751  13.460   2.981  12.240  0.0946  0.2080  0.0082
11858W        W27752  16.674  17.077   2.346  0.1307  0.0658  0.1218
11859W        W27753  16.611  13.328   1.790 -0.2110 -0.1535 -0.3574
11860W        W27754  10.131   7.216  11.699  0.0095  0.1395 -0.0089
11861W        W27755  17.330   2.856   1.346 -0.0779 -0.1782 -0.5493
11862W        W27756  11.522   1.075   0.446  0.0477  0.1099  0.1870
11863W        W27757  12.171   4.960  12.884 -0.1501  0.0211 -0.0296
11864W        W27758  11.447  12.257   0.115  0.0098  0.2398 -0.2133
11865W        W27759  17.044   2.780   0.385  0.2271  0.0180 -0.0202
11866W        W27760   5.684   2.645   0.069  0.0765 -0.3598 -0.3123
11867W        W27761  10.041   1.772   2.195  0.1820  0.2908 -0.0810
11868W        W27762  15.913  18.227   1.595  0.2213  0.1884 -0.1615
11869W        W27763  12.251  16.732  12.080 -0.2347  0.0830  0.1688
11870W        W27764   5.158   3.619  12.450 -0.1496 -0.4035 -0.0322
11871W        W27765   4.671   9.167   2.843 -0.4328 -0.1933  0.5660
11872W        W27766   4.682   1.064   0.501  0.1845 -0.1696  0.0671
11873W        W27767  11.471  13.168  15.087  0.0159 -0.0447  0.1802
11874W        W27768   6.553  14.205   0.946  0.2541  0.0697 -0.0774
11875W        W27769   8.154   1.118   0.873 -0.1635  0.0510 -0.0395
11876W        W27770  11.966   4.182   0.577 -0.1608 -0.3335 -0.2987
11877W        W27771  13.605   2.378   1.154  0.0052 -0.4774  0.2693
11878W        W27772   5.669  15.864   1.221  0.0407  0.0969 -0.3162
11879W        W27773   8.420  15.052   3.268  0.0441  0.4424 -0.1257
11880W        W27774   1.300   1.113   1.835 -0.0613 -0.0686 -0.0123
11881W        W27775   2.847   5.086  13.960 -0.3577 -0.1666  0.0935
11882W        W27776   5.233   3.974  15.487  0.3170 -0.1114 -0.1952
11883W        W27777  17.295  17.671   4.075 -0.1502  0.1619  0.0024
11884W        W27778  11.463  14.643   3.084  0.1957  0.0316 -0.0025
11885W        W27779   8.736   8.580   3.415  0.1872 -0.1959  0.0278
11886W        W27780  13.130   9.451  13.064  0.3192 -0.0269  0.1533
11887W        W27781  17.831  13.556  11.657 -0.3931 -0.0757  0.0319
11888W        W27782  11.488  18.159   2.241 -0.0641  0.3250  0.2303
11889W        W27783  17.768  17.967   4.500  0.3149  0.3129  0.0129
11890W        W27784   2.058  11.909  11.719 -0.1784  0.2218 -0.0778
11891W        W27785  14.705  13.817  14.087 -0.1234  0.2225 -0.0337
11892W        W27786  12.732   6.076   6.216  0.1617 -0.0635 -0.1775
11893W        W27787  13.663   8.445   2.911 -0.5822  0.2152  0.0484
11894W        W27788  15.469  12.483   0.620  0.0262 -0.0702  0.3291
11895W        W27789  12.567  13.651   4.815 -0.1482  0.0127 -0.0740
11896W        W27790   0.279   9.960  13.680 -0.1814  0.2236  0.0903
11897W        W27791  10.294   9.581   3.610 -0.1768 -0.1864  0.3129
11898W        W27792   8.496   6.478  15.942  0.0332 -0.1706  0.0105
11899W        W27793  15.663   7.907   2.921  0.0221  0.2456 -0.0986
11900W        W27794  14.964   1.639  11.478  0.0629  0.0911  0.1154
11901W        W27795   9.652   1.596  12.549 -0.0747  0.1226 -0.0125
11902W        W27796   7.806   7.402  11.597 -0.2832  0.7171  0.0239
11903W        W27797   7.661  14.497  12.880 -0.0245  0.1965 -0.1926
11904W        W27798   7.313   8.709  13.553  0.2029 -0.0206 -0.3735
11905W        W27799   6.705   6.254   2.068 -0.0188 -0.2734  0.5252
11906W        W27800   6.450   5.380   2.196  0.2930 -0.0561 -0.1720
11907W        W27801   8.578  10.334   4.751 -0.0536  0.0112 -0.0883
11908W        W27802   8.129  11.216  11.223 -0.1323 -0.5192  0.1716
11909W        W27803  15.418  17.961  13.244 -0.0568 -0.1032  0.1775
11910W        W27804   0.578  14.125  13.662  0.3354 -0.4720 -0.1711
11911W        W27805  17.436   0.508   0.822  0.1826  0.0060  0.4158
11912W        W27806   3.871  12.199  11.700  0.3957  0.2429 -0.1980
11913W        W27807  13.974   7.149   1.553  0.1979 -0.0164 -0.3006
11914W        W27808  15.471  13.747   1.248 -0.1739  0.2727  0.1292
11915W        W27809   5.055   2.880   5.935 -0.1946 -0.0161  0.0226
11916W        W27810  15.569   3.320  12.104  0.1998 -0.0037 -0.3261
11917W        W27811   9.974   3.335   1.827  0.2421  0.0231 -0.0961
11918W        W27812  11.642   7.357   5.248  0.2982  0.3012 -0.0925
11919W        W27813   4.070   3.813  12.909 -0.0706  0.1624  0.0122
11920W        W27814   6.871   5.180   2.169 -0.1702  0.2125  0.0486
11921W        W27815  11.707  11.917  11.160 -0.1122  0.1347  0.0049
11922W        W27816  15.133   6.366  13.616 -0.5163  0.1201  0.0289
11923W        W27817   7.477   1.156  12.506  0.1975  0.3284 -0.1958
11924W        W27818   2.401   2.644   3.314  0.0063 -0.0634  0.3142
11925W        W27819   5.126  12.120  16.055 -0.1042 -0.0077  0.0006
11926W        W27820   2.352   9.657   2.902 -0.0900 -0.0007  0.1460
11927W        W27821  15.981   7.283   3.832 -0.1466 -0.0272 -0.0780
11928W        W27822  14.970   1.015   4.196 -0.3234 -0.2136 -0.0804
11929W        W27823   5.009  16.793   4.034 -0.0513 -0.1356  0.0240
11930W        W27824  18.423  12.716   1.356 -0.1923  0.4169  0.3055
11931W        W27825  14.240   8.859  13.503  0.2107 -0.0372 -0.0383
11932W        W27826   2.908  11.388   6.375 -0.0277 -0.1433  0.2049
11933W        W27827   8.822  15.573  12.016  0.5720  0.1530  0.2358
11934W        W27828   3.465   2.640   1.635 -0.1308  0.1224 -0.0415
11935W        W27829   8.259   2.092  11.206  0.1343 -0.2951 -0.0326
11936W        W27830   1.782  17.826  14.873 -0.4864 -0.0067 -0.2484
11937W        W27831  10.175  14.579   2.220 -0.1807 -0.0059 -0.1936
11938W        W27832   0.679  12.327  11.982 -0.0417 -0.0728 -0.3421
11939W        W27833  13.554  12.918   1.281 -0.1329  0.2059  0.2521
11940W        W27834   0.263  14.083   1.799  0.2151 -0.0162 -0.1595
11941W        W27835  14.566   7.581   0.004  0.1036  0.0788 -0.1693
11942W        W27836  12.080   5.992   5.635 -0.0480 -0.0976  0.1477
11943W        W27837  17.766  18.160   2.170 -0.1015 -0.1064  0.0168
11944W        W27838   5.033   4.243   3.301  0.0367 -0.1724 -0.3096
11945W        W27839  16.975   4.502  11.776  0.0357 -0.1408  0.0814
11946W        W27840   4.009  10.301   0.196 -0.3215 -0.2114 -0.0294
11947W        W27841  12.845  15.555   1.520  0.0103 -0.3030  0.2157
11948W        W27842   4.516   0.653  13.105 -0.2324  0.0541  0.0360
11949W        W27843   9.929   6.162  11.380  0.2512  0.1221  0.1456
11950W        W27844  11.125  16.908   1.643 -0.0899  0.1795 -0.2205
11951W        W27845   2.185   6.172   0.941 -0.3697  0.4327 -0.0259
11952W        W27846  16.638  12.288   1.977 -0.2360 -0.1447 -0.1781
11953W        W27847   1.428  14.988  14.802 -0.1326  0.1083 -0.1567
11954W        W27848   7.608  13.204  11.408 -0.3522  0.0691  0.2464
11955W        W27849   6.883   9.666  13.465  0.5946 -0.0350 -0.0055
11956W        W27850   3.994   8.721  13.994 -0.1786  0.1151 -0.2615
11957W        W27851  16.109  16.453  14.145  0.0340  0.1897 -0.2242
11958W        W27852   2.050  16.186  14.644 -0.4656 -0.1348  0.1745
11959W        W27853   5.924  10.355   4.953  0.1199  0.1373  0.0766
11960W        W27854  10.783   7.600  14.865 -0.0814  0.3651 -0.1229
11961W        W27855   8.397   5.058  14.847 -0.0360 -0.1560 -0.2899
11962W        W27856   6.057   8.149   4.756  0.1815  0.0450  0.1846
11963W        W27857  16.251   1.109  12.590  0.1461  0.0323  0.3832
11964W        W27858  17.684   9.803  14.583  0.1221 -0.0796  0.2987
11965W        W27859  13.132   4.523   2.952 -0.0387 -0.1825  0.1810
11966W        W27860   7.988  15.632  10.920 -0.0019  0.0591  0.1697
11967W        W27861   1.928  10.534   5.477  0.1317  0.0206 -0.0190
11968W        W27862   1.373  12.294   4.054 -0.2483 -0.0447 -0.1807
11969W        W27863  18.053   5.210   0.011 -0.2071 -0.3679  0.0810
11970W        W27864   7.062  16.350   4.978 -0.0408  0.2185 -0.3069
11971W        W27865  11.804   6.090  15.607 -0.4415 -0.1875  0.2978
11972W        W27866   4.459   8.703   3.113  0.3479 -0.4001  0.0008
11973W        W27867   0.937   4.438  14.238  0.0308  0.2042 -0.0778
11974W        W27868   4.323   1.748  15.850 -0.2731  0.0030  0.0179
11975W        W27869   1.618  10.233   1.933  0.0840  0.3677  0.0384
11976W        W27870  14.169  17.337   3.630  0.0269  0.0291  0.2271
11977W        W27871   3.654  11.292   3.998 -0.1265 -0.2754  0.0988
11978W        W27872  16.698  18.429   5.576 -0.1037 -0.4827 -0.2021
11979W        W27873   2.279  14.870   2.867  0.1640 -0.1537  0.1842
11980W        W27874  14.709  15.180  14.882  0.3419  0.0615  0.2607
11981W        W27875  14.621  17.643   2.687  0.1736  0.1128 -0.0152
11982W        W27876  16.429  10.536  14.519 -0.2815 -0.1610 -0.0458
11983W        W27877   5.087  10.678  11.872  0.0191 -0.1171 -0.2168
11984W        W27878  11.593   9.437   3.719 -0.1048  0.0226 -0.2655
11985W        W27879   3.178   7.834  15.034 -0.0329  0.1560 -0.1326
11986W        W27880   0.889  17.603   5.312 -0.0214 -0.0221 -0.2205
11987W        W27881  10.161   8.645  15.455 -0.0081  0.0403  0.0451
11988W        W27882  15.801  15.374  14.841 -0.0237  0.2795 -0.1997
11989W        W27883  10.987   2.048  10.526 -0.1156 -0.1836  0.1944
11990W        W27884  14.016   7.536   1.874 -0.1053  0.1711  0.0529
11991W        W27885  15.827   7.331  14.062  0.1111  0.3670  0.0153
11992W        W27886   6.737  11.142  11.869 -0.1251 -0.1311 -0.2710
11993W        W27887  17.756  11.048   1.200 -0.0972  0.0999  0.2944
11994W        W27888  13.781   1.779  15.274 -0.1018 -0.0024 -0.0475
11995W        W27889   5.412   1.253  13.930 -0.0923  0.1403  0.0916
11996W        W27890  13.620   0.882   1.827 -0.1016 -0.0351 -0.1252
11997W        W27891   5.620   0.540   2.858 -0.2131 -0.0758 -0.3470
11998W        W27892  16.227   3.999   5.468 -0.2546  0.0114  0.0013
11999W        W27893   7.078  13.544  15.293 -0.3342 -0.1510 -0.2031
12000W        W27894  16.967   1.637  14.795 -0.4051  0.1971  0.5101
12001W        W27895   0.009   6.901  15.023  0.0330  0.0456  0.4904
12002W        W27896   5.273  18.177   2.892  0.2357 -0.1113  0.1766
12003W        W27897  10.586   5.536   1.442  0.0534 -0.1873 -0.1060
12004W        W27898   1.953  14.668  13.363  0.1357  0.0857  0.0332
12005W        W27899   5.200   2.209   5.266  0.0017 -0.0639 -0.3286
12006W        W27900   1.734   4.574   2.472 -0.1260 -0.0833 -0.0473
12007W        W27901  15.506  15.822  15.014  0.1570  0.1437 -0.1620
12008W        W27902   9.709  14.996  13.958 -0.2322 -0.1745  0.2192
12009W        W27903   1.260   3.973  12.900 -0.0590 -0.1348  0.2573
12010W        W27904   3.246  12.277   3.693 -0.0515 -0.1431  0.0083
12011W        W27905  13.726  17.436  14.280  0.1852  0.0920 -0.1648
12012W        W27906  16.314   2.834   3.931  0.1499  0.0509  0.0983
12013W        W27907   4.299   6.589   6.252 -0.5157 -0.2240 -0.4050
12014W        W27908   8.895  15.929   4.828 -0.1987  0.1898  0.0662
12015W        W27909   2.447   1.009  12.769  0.2631  0.2082 -0.3068
12016W        W27910   7.254  14.044  15.230 -0.1849  0.1492 -0.1855
12017W        W27911  11.868  14.361  13.557 -0.0324 -0.1243 -0.2083
12018W        W27912   6.214   3.447   1.147 -0.1992 -0.0372  0.0249
12019W        W27913   2.024   6.301  11.859 -0.0424  0.2313 -0.1684
12020W        W27914   3.441  13.122   2.778  0.0843  0.5349 -0.0811
12021W        W27915  11.852   2.722  15.481 -0.2970  0.1534  0.3158
12022W        W27916  14.358  15.748   0.615 -0.1015 -0.0880  0.2150
12023W        W27917  10.406  13.263  13.114  0.2617 -0.0571 -0.2775
12024W        W27918   5.859   6.278   3.394 -0.2503 -0.0649 -0.0774
12025W        W27919   6.082   6.134   0.455 -0.1580 -0.1252 -0.3456
12026W        W27920   3.570   7.110   3.777 -0.3037 -0.0217  0.0508
12027W        W27921   1.121   5.440   2.854  0.1338 -0.0804 -0.4692
12028W        W27922  10.167  17.613   5.534  0.0400  0.0386  0.1110
12029W        W27923   4.560  14.090   3.533  0.0905  0.2000 -0.0406
12030W        W27924  10.092   9.334  10.755 -0.2737  0.1374  0.0291
12031W        W27925   0.953   7.897   0.740  0.0367 -0.1080  0.0089
12032W        W27926   6.779  16.878   4.042  0.0808  0.0548  0.0320
12033W        W27927  10.304  16.605   2.191 -0.1860  0.0777 -0.1429
12034W        W27928   3.659  16.733   1.541 -0.1864 -0.1606  0.1851
12035W        W27929  18.295   1.895   0.339  0.2377 -0.2043 -0.0503
12036W        W27930   4.872   3.224  11.329 -0.1195  0.0047  0.0299
12037W        W27931   1.947   9.164  12.460  0.1891 -0.3280  0.0337
12038W        W27932  13.238   2.837  13.320  0.0393 -0.1411  0.0079
12039W        W27933  18.049  17.479  15.474  0.1695 -0.1870  0.2421
12040W        W27934   7.939  18.460   2.877 -0.1702 -0.0776  0.0970
12041W        W27935   8.044   8.140  11.048 -0.2919 -0.0093 -0.1502
12042W        W27936  11.242  17.150  12.963  0.1024  0.2548 -0.2072
12043W        W27937   9.797   7.542   2.495  0.3949  0.1518  0.0206
12044W        W27938   7.629  15.430  12.093  0.1256 -0.0091  0.1246
12045W        W27939  15.447   2.823   5.704  0.1488 -0.1453  0.0307
12046W        W27940  15.446  16.348  12.797  0.1373 -0.0024  0.1133
12047W        W27941  17.538   5.032   1.238 -0.1505 -0.1200  0.2494
12048W        W27942  17.327   0.349   2.678  0.0370 -0.1237  0.1100
12049W        W27943   5.046   5.504   2.485 -0.0050  0.1122 -0.0095
12050W        W27944   6.696   0.776  14.415 -0.1595 -0.1159  0.0657
12051W        W27945   1.146  16.919   3.994 -0.4766 -0.1459 -0.0772
12052W        W27946  13.174   6.502  15.481 -0.2425 -0.0758 -0.1889
12053W        W27947  14.016  12.797  14.436  0.3656 -0.2177  0.1066
12054W        W27948  17.804   8.460   1.270  0.0155  0.1422 -0.3101
12055W        W27949  15.315   6.940   0.924 -0.1021  0.0462 -0.0437
12056W        W27950   1.442  15.037  11.069  0.1912 -0.2077  0.0547
12057W        W27951  10.492   8.699   0.671 -0.0108  0.1284 -0.0047
12058W        W27952   2.494  17.681   0.947  0.3170  0.0135 -0.1398
12059W        W27953  16.230   8.759  11.510  0.1147  0.2670  0.2191
12060W        W27954  18.465  16.167  14.441 -0.2225  0.0849  0.1808
12061W        W27955  12.083   0.882   3.015  0.0725  0.1071  0.1692
12062W        W27956   9.007   6.014   4.185 -0.2496 -0.2953 -0.4528
12063W        W27957   1.259   6.676  11.397 -0.0024  0.1123  0.0477
12064W        W27958   1.825   4.066  12.283  0.1868 -0.0645 -0.1140
12065W        W27959  14.691   5.750   4.134 -0.1890  0.2073  0.0891
12066W        W27960   7.604   8.354  11.300 -0.0183  0.3099  0.2490
12067W        W27961  10.997  16.019  14.366  0.0218 -0.0428  0.0495
12068W        W27962  12.103   0.183   9.958 -0.0312  0.1412 -0.0008
12069W        W27963   0.791  16.985   3.377 -0.0654 -0.0689  0.1076
12070W        W27964   9.449  11.925  14.483  0.0811 -0.0544 -0.1907
12071W        W27965   7.382  16.923  15.618 -0.1105  0.3392 -0.0655
12072W        W27966  13.464   6.721   3.148 -0.0721  0.0703 -0.3162
12073W        W27967  15.164  14.520   3.891  0.1793 -0.0233  0.1659
12074W        W27968  12.785   7.222  13.446 -0.4465  0.1155  0.1025
12075W        W27969   3.173  16.240   1.066  0.2199  0.1265 -0.3866
12076W        W27970   1.483  10.986   1.304 -0.0677  0.3013  0.1154
12077W        W27971   9.944   2.922   3.753  0.2835 -0.3892  0.2125
12078W        W27972   8.374   7.756  16.007 -0.0277  0.2788  0.0468
12079W        W27973  12.087  16.392   0.867  0.2171  0.0713 -0.2749
12080W        W27974   7.438  16.362  15.132  0.1288 -0.0744  0.2115
12081W        W27975  11.806   6.565  15.851 -0.0753  0.0570 -0.1658
12082W        W27976   6.290   1.450   1.889 -0.1241  0.1570 -0.1279
12083W        W27977   7.705  17.426  12.958 -0.1828  0.0916  0.0288
12084W        W27978  17.218   3.525  12.447  0.2825  0.0205  0.3860
12085W        W27979   0.307   9.573   3.165  0.2605 -0.2281  0.1911
12086W        W27980  12.923   1.438   1.908 -0.0927  0.0416 -0.0992
12087W        W27981   5.714  13.424   4.487 -0.1745  0.0419 -0.0373
12088W        W27982  13.577  16.201   1.900 -0.2741 -0.0194 -0.1873
12089W        W27983   6.587   3.215  12.300 -0.0667 -0.3231  0.0493
12090W        W27984  15.648  17.417   4.740 -0.0677 -0.2387 -0.0095
12091W        W27985   5.304   1.280   2.077 -0.3184  0.0044 -0.2322
12092W        W27986   1.282  14.121   3.806  0.1690  0.2741  0.0121
12093W        W27987   7.655  16.983  11.017  0.2104  0.4137  0.0171
12094W        W27988   0.975   8.438  16.096  0.0943  0.1621  0.1053
12095W        W27989  15.567   6.803   0.554 -0.1606 -0.2502  0.1306
12096W        W27990  11.747  12.848   2.648 -0.2021 -0.0033 -0.0259
12097W        W27991  10.148  10.608  15.900  0.2644 -0.0120 -0.0045
12098W        W27992   2.873   4.739   4.120 -0.0175 -0.2637  0.0471
12099W        W27993  11.791  12.696   5.019  0.2002  0.0207  0.2308
12100W        W27994   6.683  11.465   0.325 -0.0513 -0.1922 -0.1962
12101W        W27995   3.706  17.184   5.288  0.0503 -0.1637  0.0751
12102W        W27996   2.598   1.467  14.169 -0.3735 -0.1647  0.3443
12103W        W27997  18.057  16.490   2.051  0.1187 -0.1083 -0.1081
12104W        W27998   7.126  10.496  15.650  0.1503  0.1274 -0.0802
12105W        W27999   9.101   9.546  15.701 -0.1231 -0.2899 -0.1881
12106W        W28000  17.029   9.067   1.221 -0.0353  0.0109 -0.2265
12107W        W28001  15.342   3.045   3.068  0.0060  0.0135 -0.1020
12108W        W28002   8.770   0.575  11.638  0.1860  0.1815 -0.1044
12109W        W28003  17.188   1.566  12.796 -0.2023  0.0804  0.1335
12110W        W28004  17.124   0.159   3.976 -0.3906 -0.0248 -0.0189
12111W        W28005   6.976  17.925   0.638 -0.2117  0.1884  0.2885
12112W        W28006   3.726   9.084  14.658  0.2334 -0.0039 -0.0884
12113W        W28007   6.640   9.874  13.826 -0.2092  0.1625 -0.1523
12114W        W28008  15.486   3.389  11.605  0.2392  0.3338  0.1102
12115W        W28009   6.043   9.187  11.424 -0.0441  0.2795 -0.0544
12116W        W28010   5.472   5.137   1.825  0.1442  0.0063  0.0123
12117W        W28011   2.046   6.161   2.156  0.2464  0.0244 -0.4861
12118W        W28012  16.467   7.400   4.508 -0.0415  0.1277 -0.0059
12119W        W28013   6.459  10.022   3.118 -0.3180  0.0053 -0.0372
12120W        W28014  17.742  10.413   2.384  0.4189  0.1178  0.2365
12121W        W28015  14.153   3.381  11.750 -0.0721 -0.0955 -0.0306
12122W        W28016  11.263   7.013   2.373 -0.0890  0.1465  0.3745
12123W        W28017   3.183   2.018  14.675 -0.2541  0.2716  0.0402
12124W        W28018  13.637   0.528   0.707 -0.2387 -0.1250  0.0809
12125W        W28019   2.301   1.358  12.028 -0.1154 -0.1624  0.1373
12126W        W28020   8.308  16.903   3.619  0.0122 -0.1376  0.0442
12127W        W28021   5.220  17.539   1.045  0.1311  0.0182  0.1353
12128W        W28022   6.418   3.870  12.978  0.3061  0.2979 -0.3087
12129W        W28023  15.420  17.953  12.736 -0.0069  0.2522 -0.2304
12130W        W28024   7.840   0.477   4.198  0.1132 -0.0955 -0.0126
12131W        W28025  16.547  17.914  12.847  0.3980 -0.0817 -0.1183
12132W        W28026   0.295  10.708   4.947 -0.0799 -0.0449 -0.0253
12133W        W28027  15.255   3.038   1.226  0.0586  0.0619  0.0053
12134W        W28028   7.788   6.760   3.914 -0.3011 -0.1044 -0.1169
12135W        W28029  10.070  18.077  11.946 -0.0090 -0.1225 -0.4015
12136W        W28030  11.107   5.978   2.096 -0.1146  0.2176  0.2392
12137W        W28031   7.326  13.100  10.963 -0.0776  0.0102  0.0377
12138W        W28032  17.869   4.562   3.984 -0.1132  0.0509  0.6662
12139W        W28033   5.867  11.433   2.772  0.3325  0.2648  0.0840
12140W        W28034  18.269  10.210  15.288 -0.0201  0.0718  0.5412
12141W        W28035   3.835   7.682  10.678  0.0703 -0.4457  0.2730
12142W        W28036   7.114   2.421   3.528  0.0271 -0.1670 -0.1875
12143W        W28037  14.338   7.212  15.688  0.2909 -0.1628  0.0811
12144W        W28038   8.632  12.872  13.756  0.0224 -0.2193 -0.1924
12145W        W28039  15.497   0.252   5.256 -0.2647  0.1024  0.0162
12146W        W28040   5.633  14.214   4.427 -0.0304  0.1913  0.2523
12147W        W28041   2.173  14.153  12.606 -0.1008  0.1424 -0.1418
12148W        W28042   1.723   6.748   3.196 -0.2717  0.0079 -0.4692
12149W        W28043   9.239   4.742   1.487 -0.2988 -0.2611 -0.2228
12150W        W28044  18.123   1.614   4.852  0.0911  0.2107 -0.1785
12151W        W28045  10.152  10.068   3.502  0.2804 -0.1051  0.0482
12152W        W28046  17.661   2.239   2.161 -0.2859  0.0612  0.0758
12153W        W28047   2.156   2.945  14.918 -0.0711 -0.1217 -0.0847
12154W        W28048  15.949   4.551   4.468  0.1198  0.1458  0.1224
12155W        W28049  14.511  15.667   1.943  0.1236  0.1036  0.0093
12156W        W28050  14.344   9.249  11.914 -0.1026 -0.1158 -0.2350
12157W        W28051   1.137   7.906  11.598  0.0980  0.2307  0.1121
12158W        W28052  12.576  10.791  16.127 -0.0565  0.1498 -0.1475
12159W        W28053   1.216  17.766   2.925  0.0907  0.1748  0.0233
12160W        W28054   6.953  11.075   4.874 -0.5117  0.4965  0.1315
12161W        W28055  11.951   3.438   2.197 -0.1995 -0.1177  0.3384
12162W        W28056  11.636   2.468  12.867  0.0297 -0.2150 -0.0242
12163W        W28057  17.883   2.438  15.445 -0.1751 -0.0162 -0.2955
12164W        W28058  11.006   7.595   2.663 -0.0159 -0.4336  0.0217
12165W        W28059   4.429   4.680   4.462 -0.1727 -0.0578  0.1205
12166W        W28060   3.015  16.002  11.319  0.0679  0.2699  0.2632
12167W        W28061  12.662  13.048  14.400 -0.1490 -0.0911  0.0426
12168W        W28062  15.936   8.750   2.643 -0.4603 -0.1376  0.1521
12169W        W28063   1.668  13.262   5.506 -0.1701 -0.4294  0.2048
12170W        W28064   0.495  15.863   5.098  0.0062  0.0706 -0.0631
12171W        W28065   8.188  10.960  11.619 -0.1817  0.0632 -0.1378
12172W        W28066  10.245  16.111  12.010 -0.1204  0.2673 -0.4870
12173W        W28067  15.899   3.711   3.161 -0.1018  0.1003 -0.2664
12174W        W28068  10.245  17.375  11.650 -0.2998  0.2207 -0.1990
12175W        W28069  15.446   6.200  12.188  0.0760 -0.0147  0.0529
12176W        W28070  12.590  13.447  11.390  0.2487 -0.0482 -0.1865
12177W        W28071   6.772  13.340   3.540  0.1954  0.1204 -0.0811
12178W        W28072  18.185   1.472   0.849 -0.1489 -0.1786 -0.0756
12179W        W28073   4.113   9.252   2.861  0.3800  0.0860  0.0647
12180W        W28074  15.302   5.991   0.166 -0.0581 -0.0386 -0.0807
12181W        W28075   2.152   8.468   3.709  0.0573 -0.1025  0.0153
12182W        W28076  13.474   4.797   2.736 -0.0016  0.2621  0.0972
12183W        W28077   7.146  16.681   3.651 -0.0694 -0.1427 -0.0730
12184W        W28078   4.843  17.143  16.146 -0.0208  0.2850 -0.1081
12185W        W28079  11.766  14.570   1.304 -0.0898  0.0083  0.3190
12186W        W28080   1.716  10.297  14.648 -0.1332 -0.1517 -0.1095
12187W        W28081   4.657   6.712  13.365  0.0992  0.1109  0.1158
12188W        W28082   4.549  17.502   4.365 -0.1216 -0.0487  0.0176
12189W        W28083  17.280   6.884   3.174  0.0085 -0.0560 -0.0411
12190W        W28084  16.210  15.820   1.713  0.0091  0.0195 -0.2867
12191W        W28085  11.016   9.207   5.727 -0.3545  0.2419 -0.0295
12192W        W28086   8.522  13.842   3.202 -0.1772 -0.1189 -0.2983
12193W        W28087   7.733  10.510   3.717 -0.4300  0.2255 -0.1132
12194W        W28088   1.650   3.436  11.007 -0.1013 -0.1359 -0.1344
12195W        W28089  11.008  16.979  14.909  0.3106  0.1617 -0.1568
12196W        W28090  15.989   0.284  15.007  0.5007 -0.0271 -0.0183
12197W        W28091   3.120  10.114   4.069 -0.2466  0.1465 -0.0246
12198W        W28092  11.891  14.004  16.062  0.2780  0.0506  0.3805
12199W        W28093   3.433   9.987  11.244  0.1047 -0.1349 -0.0656
12200W        W28094   5.900   5.000   5.383  0.0524  0.1257  0.1527
12201W        W28095   5.803   1.967  15.712  0.0120 -0.1242 -0.0325
12202W        W28096   4.088   4.346   0.675 -0.2422 -0.0502  0.1262
12203W        W28097   5.010   0.974   9.958 -0.4888 -0.2776  0.1085
12204W        W28098   6.231   6.393  13.829  0.0026 -0.0732 -0.1673
12205W        W28099   8.109  12.744   3.920  0.0146 -0.3432  0.2373
12206W        W28100  14.461   8.588  13.854 -0.0202 -0.0439 -0.1225
12207W        W28101   2.731   4.379   5.579  0.0071  0.0917 -0.0603
12208W        W28102  15.684   2.900   0.418  0.2950  0.1428  0.2461
12209W        W28103  16.696  18.200  11.760 -0.1096  0.1631 -0.2803
12210W        W28104  18.041   6.580  14.949 -0.0802  0.1709  0.2108
12211W        W28105  11.985  12.241  12.453  0.2101  0.0457 -0.0760
12212W        W28106   1.205   0.341   5.591  0.0435  0.0439 -0.1320
12213W        W28107  13.316   3.248   4.256  0.1806  0.0612  0.1529
12214W        W28108   6.424  15.152   2.424  0.0972  0.1966  0.2644
12215W        W28109   5.163   2.840   3.811  0.1631  0.0828 -0.0421
12216W        W28110   5.733  11.783  13.276 -0.0756 -0.3839 -0.1749
12217W        W28111  14.216   2.387   3.724 -0.2095 -0.1195  0.4281
12218W        W28112   0.478   5.913  13.182  0.0671  0.3167 -0.0710
12219W        W28113  11.308   0.516   1.183  0.3096 -0.1358  0.3936
12220W        W28114   7.066   3.098   2.374 -0.0432  0.1442  0.1580
12221W        W28115   1.703   0.179   3.394 -0.2381 -0.1826 -0.0454
12222W        W28116   6.648   2.844  13.947  0.1935 -0.2432  0.2296
12223W        W28117   1.392  18.006  13.792 -0.0750 -0.0499  0.2728
12224W        W28118   5.727  18.092   2.639 -0.1055  0.2418 -0.2639
12225W        W28119   1.520   7.894  13.003 -0.0206 -0.1167  0.2858
12226W        W28120   6.712  16.272  15.836  0.4108 -0.3271  0.2115
12227W        W28121   5.623   0.369   0.424 -0.1066 -0.1733 -0.2050
12228W        W28122   7.106   4.070   0.973  0.1641 -0.0373 -0.1929
12229W        W28123   2.686  17.864  12.486 -0.3478 -0.2919 -0.1929
12230W        W28124   7.646  12.166  14.041  0.3838  0.3094 -0.0367
12231W        W28125   0.182   6.189   3.809 -0.1382  0.1090  0.0098
12232W        W28126   9.567   6.751   1.814  0.2775  0.2265  0.5606
12233W        W28127   4.977   4.669   2.409  0.0949 -0.0624 -0.4579
12234W        W28128   0.366  11.409  15.419 -0.0379  0.1953 -0.0664
12235W        W28129  15.282  16.328   5.469 -0.2069 -0.1463 -0.0426
12236W        W28130   3.143  17.109   4.093 -0.1388  0.2089  0.0517
12237W        W28131  18.047  17.178   4.128 -0.3244 -0.2968  0.1571
12238W        W28132  17.786   9.035  13.902  0.0264  0.2231  0.0036
12239W        W28133   1.249  11.018  12.530  0.0233 -0.1491 -0.0072
12240W        W28134   0.319   1.653   2.575 -0.2809 -0.2511 -0.4516
12241W        W28135  16.100   1.468  14.971  0.0954  0.2140 -0.0955
12242W        W28136  17.385   6.529  15.180  0.0705  0.1542  0.3135
12243W        W28137   6.958  11.513  12.108 -0.0164  0.0074  0.0555
12244W        W28138  11.627  14.755  13.129  0.0051 -0.0752 -0.1485
12245W        W28139   0.767   8.699   1.314  0.1352  0.1915  0.0609
12246W        W28140   2.644  13.168  10.815  0.1429 -0.0520  0.3298
12247W        W28141   3.891   1.633  11.360  0.1726 -0.0226  0.0509
12248W        W28142  15.964  10.849   3.396 -0.0191  0.1588  0.1403
12249W        W28143  11.751   5.634   5.483  0.0936  0.1904  0.2029
12250W        W28144  13.872   9.684   5.388  0.0540  0.0403 -0.1110
12251W        W28145  11.002  13.630   3.068  0.0947  0.0521 -0.0654
12252W        W28146   5.397   7.252   3.005  0.0783  0.1871  0.0990
12253W        W28147   7.056  11.884  14.157  0.1138 -0.0602  0.0146
12254W        W28148   6.105   1.308   0.583  0.2674 -0.2078 -0.0629
12255W        W28149   2.893   6.932   0.769  0.1310 -0.1479 -0.0788
12256W        W28150  17.148   0.652  11.700 -0.1812  0.0008 -0.0228
12257W        W28151   9.001   3.677   4.845  0.0319 -0.0205  0.0838
12258W        W28152   6.685   3.025   5.493  0.0339 -0.2069 -0.1282
12259W        W28153  17.715   4.320   3.070 -0.0146 -0.2044  0.1204
12260W        W28154   3.062   7.679  12.804 -0.0011  0.1792  0.1781
12261W        W28155   5.873   5.770   4.154  0.1635  0.1719 -0.1522
12262W        W28156   3.894   0.374   3.379  0.4500  0.0829  0.0851
12263W        W28157   2.805  14.356   4.152 -0.2504 -0.1559 -0.0856
12264W        W28158  17.884   5.525  15.358  0.1769 -0.0291  0.4439
12265W        W28159  12.394   1.046  11.207 -0.1216  0.2609  0.0018
12266W        W28160   3.610   9.406   1.126 -0.0787 -0.2546  0.4746
12267W        W28161  13.310   0.720   1.073 -0.3845 -0.0989  0.1086
12268W        W28162   5.455   7.157  13.851  0.0716  0.0484  0.1278
12269W        W28163  17.631   2.850   1.755 -0.1109 -0.1355  0.1210
12270W        W28164   3.592  15.508  16.060  0.1049 -0.1376  0.2512
12271W        W28165   2.783  12.971   2.118  0.1895 -0.1164 -0.2852
12272W        W28166  13.193  15.202   0.138  0.4410 -0.0467 -0.2464
12273W        W28167   3.758  17.303  13.281 -0.1247  0.1231  0.0600
12274W        W28168  12.778   4.911   3.521 -0.0107 -0.4412  0.0843
12275W        W28169  13.139   1.142  13.031  0.2039 -0.1377  0.3049
12276W        W28170  13.882  12.155   2.333  0.2304 -0.2831 -0.2201
12277W        W28171   0.956  12.041  14.688  0.3133 -0.0894  0.0092
12278W        W28172  17.753  15.179  16.032  0.2286  0.2794 -0.0393
12279W        W28173   2.385   6.706   3.314 -0.4265  0.0612 -0.2727
12280W        W28174   7.780   9.999  15.022 -0.0945 -0.1242 -0.0615
12281W        W28175  15.359  10.097   4.353 -0.0728 -0.4946 -0.0037
12282W        W28176   5.918   9.296   2.506  0.1965  0.1539  0.6150
12283W        W28177   6.584   2.165   1.309  0.2184  0.3137 -0.1969
12284W        W28178  16.891   9.851   3.778  0.2653 -0.2231  0.0341
12285W        W28179   9.439   5.452  14.642 -0.1472  0.0279 -0.0713
12286W        W28180  15.721   9.714   5.646 -0.1011 -0.0555  0.0664
12287W        W28181   3.866  14.219  16.115 -0.3683 -0.1273 -0.0361
12288W        W28182  13.567   4.441  11.528  0.2541  0.0974 -0.0374
12289W        W28183   3.381  14.321  15.121  0.0342 -0.2473 -0.2503
12290W        W28184  11.928   2.144  15.378 -0.0846 -0.0505 -0.1110
12291W        W28185  12.445   6.509   5.419  0.2149  0.0566 -0.0719
12292W        W28186  11.912  11.321  11.969  0.0468 -0.0726  0.0951
12293W        W28187   6.127  13.539  11.424  0.0919  0.0634 -0.1563
12294W        W28188   4.233  14.501  12.071  0.0309 -0.0086  0.0367
12295W        W28189  18.026   5.568  15.793 -0.0344  0.1728 -0.4556
12296W        W28190   3.489  11.893   4.597 -0.1041 -0.4675  0.0388
12297W        W28191   3.249  12.389   2.760 -0.0355  0.3425  0.2023
12298W        W28192   9.300  15.144  11.315 -0.0495  0.2501  0.7602
12299W        W28193  11.177  15.552  14.464 -0.0716 -0.0796 -0.1832
12300W        W28194  13.744   6.582  15.343  0.1832 -0.1977 -0.1347
12301W        W28195   7.888   3.880   0.364  0.0061  0.0924  0.0636
12302W        W28196  11.213   7.968   4.708  0.0781 -0.0374  0.0853
12303W        W28197  12.456   2.537   1.857  0.0283  0.0119  0.1318
12304W        W28198  16.182   9.274   3.696 -0.0066 -0.0385 -0.2122
12305W        W28199   6.174   7.850  10.921  0.0303 -0.1930 -0.1211
12306W        W28200   6.899  17.461  12.789  0.1569 -0.1211  0.1857
12307W        W28201   4.652   9.904   5.271  0.1299 -0.1532 -0.4095
12308W        W28202  12.601   3.489  13.207  0.2121  0.0683 -0.2136
12309W        W28203   2.749  17.432  13.033 -0.1587 -0.1985 -0.0773
12310W        W28204   5.279   4.043   5.191 -0.0409  0.0236  0.1330
12311W        W28205  18.389  18.354  14.302  0.0724 -0.1924 -0.0078
12312W        W28206  16.525   5.003   0.391 -0.1662  0.1033 -0.1255
12313W        W28207  10.165   1.075  15.627 -0.3593 -0.1061  0.0612
12314W        W28208   6.889   1.331   3.701  0.1138  0.1431  0.5161
12315W        W28209   9.909   4.281   0.197 -0.2372 -0.0413  0.2272
12316W        W28210  12.576  14.903  14.447 -0.4570  0.0981  0.2488
12317W        W28211   3.428  16.972  10.998 -0.0358 -0.1572 -0.1027
12318W        W28212  12.599   6.844   4.142  0.1656  0.1991  0.3974
12319W        W28213  14.041  18.152   0.821 -0.1440 -0.0188  0.1400
12320W        W28214  10.462  17.760   0.864  0.1527 -0.0842 -0.0283
12321W        W28215  13.292  10.833  13.160  0.2214 -0.1247  0.1230
12322W        W28216   2.801   2.081   1.874 -0.4620  0.0310  0.3382
12323W        W28217  17.172   6.879  14.441 -0.0929  0.2108  0.1436
12324W        W28218   9.647   5.817  12.347 -0.1851  0.0485 -0.3113
12325W        W28219   0.492   4.621   4.082 -0.0383  0.0106  0.1545
12326W        W28220   7.675   0.106  15.049 -0.1194  0.3656 -0.2525
12327W        W28221  18.246   4.831   3.426 -0.1592  0.0088  0.1294
12328W        W28222   3.226  16.656  11.871  0.0266  0.3215 -0.3229
12329W        W28223   8.773  13.631   0.575  0.0655  0.0708  0.2009
12330W        W28224   7.759  11.225   3.199  0.1779 -0.2407 -0.1305
12331W        W28225  13.243   1.986  13.272  0.1625  0.0707 -0.1176
12332W        W28226   4.675   7.322   1.624 -0.1032 -0.3285 -0.5264
12333W        W28227   3.821   7.529   0.869  0.0803 -0.0789 -0.1838
12334W        W28228   0.304   1.096   2.599  0.4115 -0.1743 -0.2022
12335W        W28229   0.562   7.993   4.705 -0.1821 -0.1163 -0.1397
12336W        W28230  12.123   6.726   3.288 -0.2604  0.1004  0.3127
12337W        W28231   5.977   4.965  13.466  0.0274  0.2284  0.0660
12338W        W28232   4.305   0.969   2.010 -0.3530 -0.0510 -0.0136
12339W        W28233  17.249   1.250   2.551 -0.1027  0.1960  0.1041
12340W        W28234   4.308   2.238   4.943 -0.0096 -0.3210 -0.1131
12341W        W28235  14.406   6.414   0.479  0.2038 -0.1241  0.0818
12342W        W28236  16.282   0.185   4.237 -0.0877  0.1090  0.0863
12343W        W28237   0.301  18.035  15.535 -0.1149  0.0498 -0.0946
12344W        W28238  17.348  15.967  13.267 -0.2478  0.2049 -0.1204
12345W        W28239   8.822   3.318  11.921  0.1390 -0.0074 -0.1847
12346W        W28240  12.326  13.020   2.102  0.2146 -0.2681  0.1182
12347W        W28241   5.078  17.714   4.559  0.0540  0.0336  0.0537
12348W        W28242  12.493  12.084  12.621 -0.2113  0.0410  0.2159
12349W        W28243   0.796   4.710  14.757  0.1874 -0.1771  0.1864
12350W        W28244   1.658  12.129   0.678  0.1319  0.2133  0.2786
12351W        W28245  17.139  12.603  14.099 -0.2823  0.1400  0.0709
12352W        W28246   3.754   7.250   4.796 -0.0594  0.0551  0.0764
12353W        W28247  16.578  13.237   4.364  0.1655 -0.1297  0.1509
12354W        W28248   3.931   6.580   2.490 -0.0398 -0.2648 -0.3454
12355W        W28249  15.631  12.553   1.560  0.2595 -0.2063  0.1435
12356W        W28250  13.472   5.582   5.010 -0.0947 -0.1269 -0.0059
12357W        W28251   7.555  18.435  12.771 -0.2861 -0.1764 -0.3861
12358W        W28252  15.660   5.611   2.382  0.2514 -0.0295 -0.1302
12359W        W28253   1.008  14.029   0.629 -0.2269 -0.0297  0.0777
12360W        W28254  16.403   3.633   0.715  0.0323 -0.2936  0.0113
12361W        W28255  16.010   2.045   0.972  0.4505 -0.2431  0.2726
12362W        W28256  14.091  13.984   4.257 -0.1699 -0.1175  0.2760
12363W        W28257   1.489   6.198   6.146  0.1116 -0.0904  0.1906
12364W        W28258   3.430   4.095  14.878  0.0584 -0.1059 -0.0504
12365W        W28259  15.684   3.384   2.799  0.1108  0.0867 -0.1937
12366W        W28260   9.253   2.545   2.565 -0.0582  0.0140 -0.0680
12367W        W28261   0.569   0.609   2.571 -0.1617  0.4109 -0.1456
12368W        W28262   7.752   7.204   1.607 -0.2767  0.2553  0.1261
12369W        W28263  13.828   8.201  13.179  0.0781  0.4395 -0.2879
12370W        W28264  11.977  17.556   0.463  0.0329 -0.0647  0.0158
12371W        W28265   5.991  13.141  14.914  0.0504  0.0095  0.1190
12372W        W28266  17.683  11.267   4.948 -0.2425  0.2310 -0.1676
12373W        W28267   2.424   3.170   1.204  0.1639 -0.3535  0.2072
12374W        W28268  13.775   2.308  15.995 -0.0310 -0.3865  0.3299
12375W        W28269  14.353   8.156   4.056  0.0486 -0.1719  0.0164
12376W        W28270  10.548   2.674   1.386  0.0635  0.2838  0.0303
12377W        W28271  13.848   8.953   5.583 -0.2428 -0.1633 -0.1982
12378W        W28272  14.244  10.148   3.404 -0.0118  0.0196  0.2599
12379W        W28273   2.826  13.527   0.267  0.3230  0.3031 -0.0011
12380W        W28274  12.274   3.390   4.906  0.2843  0.0716  0.1272
12381W        W28275   2.245  16.716   3.543  0.0228 -0.1289 -0.0281
12382W        W28276   1.368  15.916   4.806  0.3045  0.1250 -0.3771
12383W        W28277  14.776   3.845   1.134  0.1154 -0.3154  0.0547
12384W        W28278   8.526  10.173  13.233 -0.0369  0.4888  0.2060
12385W        W28279   3.398  17.027   1.014  0.1570  0.0681  0.0421
12386W        W28280   3.232  14.102   4.354  0.1220 -0.2433  0.0080
12387W        W28281   4.303   7.319  12.006  0.0357  0.0275  0.2219
12388W        W28282   1.610  12.183  13.509  0.2302 -0.2437  0.2033
12389W        W28283  17.621  13.917   5.479 -0.1824 -0.0793 -0.2358
12390W        W28284   1.941   3.959   1.235  0.2286 -0.4182  0.0580
12391W        W28285   4.045   9.011  11.758  0.1744 -0.0286  0.2802
12392W        W28286  11.125  12.088  15.315  0.0686  0.1014 -0.1407
12393W        W28287   4.720   5.576  14.677 -0.2152 -0.1658  0.1453
12394W        W28288  17.244   7.118   0.770 -0.1552  0.2937 -0.0430
12395W        W28289  15.503  15.730  11.067  0.0419 -0.1749 -0.1049
12396W        W28290  13.832  14.990   1.963  0.1583  0.1851 -0.2146
12397W        W28291   3.512   8.532   6.285 -0.0982 -0.0904 -0.0428
12398W        W28292   1.222   7.916   2.953  0.2870 -0.0875 -0.0211
12399W        W28293  15.134   7.500   4.579 -0.1059 -0.0674  0.0734
12400W        W28294   1.727   6.386   1.196  0.2796  0.1663  0.2377
12401W        W28295  15.069   5.002  12.071 -0.3265  0.1957  0.2023
12402W        W28296  15.758   2.789   5.301 -0.2851 -0.1992  0.2597
12403W        W28297  17.880   6.483   4.686  0.0653 -0.0411  0.0743
12404W        W28298   7.756  15.145   4.732  0.1491 -0.1927 -0.1264
12405W        W28299   9.773  16.406   6.013 -0.1679  0.2682  0.1499
12406W        W28300   0.277  12.076  14.746 -0.1566  0.1500  0.2951
12407W        W28301   0.571  11.384   6.491 -0.0556 -0.2386 -0.0387
12408W        W28302   9.658  14.892  15.391  0.0192  0.2522  0.1228
12409W        W28303  14.397   7.975  15.190 -0.0558  0.2532 -0.0266
12410W        W28304   3.564  14.591   2.228 -0.0261 -0.2360 -0.0301
12411W        W28305  14.583   7.602   4.725 -0.0302 -0.1320  0.0331
12412W        W28306  13.379   8.681  14.366 -0.1299 -0.3406  0.0559
12413W        W28307   3.106  16.017  11.789  0.2016  0.0679 -0.1383
12414W        W28308  11.530   0.042  15.630 -0.1553  0.0293  0.0561
12415W        W28309  10.754   8.603  14.123 -0.2439 -0.0508 -0.1440
12416W        W28310  17.452   9.063  12.062  0.2017 -0.1216  0.0670
12417W        W28311   7.481  15.893   6.151  0.2219 -0.0440  0.0796
12418W        W28312  16.487   0.677  16.030 -0.1757 -0.1146 -0.0118
12419W        W28313   7.494  11.778   1.089  0.2082 -0.0609 -0.1184
12420W        W28314   0.563  15.570  13.007  0.1497 -0.0643 -0.2034
12421W        W28315  13.098  13.556   4.691  0.3474 -0.2268  0.0627
12422W        W28316   2.172   0.755  14.369 -0.3955  0.2804  0.0561
12423W        W28317   8.848  11.035   2.988  0.0786  0.1857  0.3218
12424W        W28318  14.999  10.309  14.125  0.0777  0.2493 -0.1163
12425W        W28319  11.568  15.981  15.145 -0.0935 -0.0654 -0.0364
12426W        W28320  11.396  12.365  11.313 -0.2536 -0.3269  0.1499
12427W        W28321  16.013   0.294  14.168 -0.2180 -0.1431 -0.2358
12428W        W28322   7.741   8.166   3.189  0.2441  0.1543  0.0575
12429W        W28323  11.329   6.955  11.625 -0.1095 -0.0438 -0.1161
12430W        W28324   2.723   5.351  11.608 -0.0598 -0.0074 -0.1286
12431W        W28325   2.123   3.714  13.749  0.3720  0.2638 -0.0826
12432W        W28326   9.500  14.011  12.062  0.2396 -0.0869  0.0324
12433W        W28327   8.185   9.851   0.854  0.0236  0.0255  0.2398
12434W        W28328  13.120   6.223   0.796  0.0391  0.0206  0.2101
12435W        W28329   8.185  15.060   0.480  0.2626  0.3660  0.0214
12436W        W28330   9.265  17.367  12.853 -0.2093  0.0847  0.2000
12437W        W28331  14.752  12.804  12.635 -0.1089 -0.1267  0.1750
12438W        W28332  15.077   6.808  14.111  0.1495 -0.1270 -0.4691
12439W        W28333   3.547  13.751  11.881  0.2464 -0.0384  0.0163
12440W        W28334   9.346   2.926  11.992  0.1563 -0.1226  0.1435
12441W        W28335  14.747  12.253   3.088  0.2338 -0.2126 -0.0632
12442W        W28336   8.498  17.091  14.091  0.0706  0.0463  0.3510
12443W        W28337  14.768   4.645   0.305 -0.2643  0.2170 -0.0635
12444W        W28338   5.983  15.693   0.461 -0.0088 -0.2350  0.1462
12445W        W28339   3.046   0.028   2.113 -0.1334  0.2798 -0.0542
12446W        W28340   5.211   9.642  12.335 -0.2932 -0.1496  0.0738
12447W        W28341   9.790   3.553  12.412  0.2188  0.1555 -0.1825
12448W        W28342  18.076  10.143   2.761  0.0484  0.2160  0.2687
12449W        W28343   8.232   7.153   3.721  0.0697  0.1813 -0.2822
12450W        W28344   3.672   6.677   2.078 -0.0919  0.0573 -0.1130
12451W        W28345  18.155  18.466  13.383 -0.0699  0.2147 -0.2872
12452W        W28346   5.429  16.487  11.625  0.1031  0.0557 -0.1051
12453W        W28347  15.276  11.961  12.360 -0.1852 -0.1240  0.1868
12454W        W28348  10.456   4.286   0.916  0.0607 -0.2749 -0.0900
12455W        W28349   0.252   1.467   4.806 -0.1017  0.1043 -0.1500
12456W        W28350   6.540  13.445   2.210  0.0619  0.0368 -0.0663
12457W        W28351   0.528   5.077  14.640  0.0204 -0.0343  0.2447
12458W        W28352   9.754  15.309   0.554 -0.0185 -0.2237  0.1915
12459W        W28353   4.877  14.060  13.704  0.2803 -0.0924  0.0497
12460W        W28354  15.260  13.274   1.039 -0.0464  0.0081 -0.1814
12461W        W28355   7.895   7.875   3.552 -0.0512 -0.2301 -0.3157
12462W        W28356  12.645  17.928  11.130  0.1769  0.1134  0.2640
12463W        W28357   7.433   9.783  12.210 -0.1318  0.1464  0.1013
12464W        W28358  11.818   0.597  13.752  0.2528 -0.1683  0.1229
12465W        W28359  18.274   0.522   1.854 -0.0271  0.0170  0.3430
12466W        W28360   7.269   2.574   2.627 -0.2666 -0.0547  0.0928
12467W        W28361  10.632  11.473  13.486  0.1068 -0.0545  0.1143
12468W        W28362  14.779  12.961  13.219  0.1570  0.1884 -0.1161
12469W        W28363   5.248  11.566  15.231 -0.1677 -0.2169  0.2020
12470W        W28364   5.048  10.090   0.208 -0.1472 -0.2416  0.3556
12471W        W28365  10.271   1.752   4.896 -0.3166  0.0330  0.0017
12472W        W28366   7.949  18.338   2.164  0.1739  0.6015 -0.3471
12473W        W28367  10.846   6.662  11.774 -0.1980  0.1212 -0.1145
12474W        W28368   8.731  10.239   0.241  0.2689 -0.3051  0.3556
12475W        W28369   2.237  14.491  11.302 -0.1026  0.1327 -0.1747
12476W        W28370   3.712  13.783  11.379  0.2651 -0.2086  0.1515
12477W        W28371   9.479  15.374   1.561 -0.0133  0.1987 -0.3420
12478W        W28372   1.422   6.870  12.229 -0.0585  0.2026 -0.1926
12479W        W28373   0.494   4.168   1.930 -0.1731 -0.1546 -0.2764
12480W        W28374   9.619   4.238  13.311 -0.1868  0.1241  0.0078
12481W        W28375   2.973  14.823  16.085 -0.3080  0.0785 -0.1258
12482W        W28376   5.532  15.179   5.411 -0.0940  0.1855  0.0452
12483W        W28377   9.804  16.911   2.289  0.0950  0.0701 -0.0363
12484W        W28378  10.803   1.147   4.277  0.0548  0.1376  0.2623
12485W        W28379   8.467   1.465   3.698  0.0479  0.0709  0.0978
12486W        W28380   4.047   4.183  12.105  0.5798 -0.3342  0.0114
12487W        W28381   5.457   2.577   5.981  0.0685  0.0338 -0.1507
12488W        W28382   0.102   7.388  12.373 -0.1411 -0.0779  0.0973
12489W        W28383  14.543   2.664  12.078  0.1628  0.1727 -0.0119
12490W        W28384   5.749   8.881   2.741  0.0328  0.1921 -0.1935
12491W        W28385   9.141   0.187  13.535  0.0927 -0.0543  0.1453
12492W        W28386  14.427  17.113   4.102 -0.1342 -0.2610  0.0734
12493W        W28387  11.008  12.202   3.414  0.1558 -0.0527 -0.1468
12494W        W28388   3.087   5.545  13.975 -0.2210 -0.0419 -0.0009
12495W        W28389  10.752  12.896  14.717  0.1168 -0.3747 -0.3003
12496W        W28390  13.327   8.968  12.513  0.1054  0.1966  0.1943
12497W        W28391   8.031   7.976   2.293  0.3855  0.0117 -0.1191
12498W        W28392  14.122  12.658  13.876  0.0484  0.0541  0.2421
12499W        W28393  17.764  16.648   1.049  0.2074 -0.0800  0.1520
12500W        W28394   5.702   7.024   4.839  0.0864 -0.0603  0.0047
12501W        W28395   3.039   5.173   4.403 -0.0251  0.2393 -0.0577
12502W        W28396   4.408   4.422  11.259 -0.3215 -0.0265 -0.0932
12503W        W28397  11.479  17.501  12.599 -0.2665  0.3131 -0.0095
12504W        W28398   0.670   8.020  13.326  0.0062  0.1037  0.1443
12505W        W28399  11.070  17.694  13.788 -0.1004 -0.1050  0.2680
12506W        W28400   4.077  15.611  16.134  0.2325 -0.4654  0.0306
12507W        W28401   1.408  16.919   5.668  0.0816  0.0450 -0.0457
12508W        W28402  10.503   2.449   5.538 -0.1467  0.0996 -0.4055
12509W        W28403   7.575  16.142  12.165  0.1033  0.2912 -0.0427
12510W        W28404   6.131  15.513  13.748 -0.4664 -0.2528  0.1353
12511W        W28405   6.521   4.023  11.587 -0.2540  0.1615  0.0708
12512W        W28406  13.863  14.416   1.711 -0.1802  0.0807  0.4352
12513W        W28407   4.977   4.500   0.559  0.0413  0.1738 -0.1876
12514W        W28408   0.390  17.262   1.840  0.0323  0.0292 -0.1690
12515W        W28409   4.608   7.213  13.274 -0.0016 -0.0754  0.2801
12516W        W28410   6.315  11.371   1.891  0.2441 -0.1288 -0.0265
12517W        W28411  12.764  13.129   1.858  0.0384 -0.0848  0.0354
12518W        W28412  12.667   8.026   3.719  0.2365  0.4923 -0.2030
12519W        W28413   0.601  17.418  11.585 -0.2056 -0.0013  0.1032
12520W        W28414   6.359  12.400  13.527  0.0336  0.1763 -0.1384
12521W        W28415  15.543   0.300   0.295  0.1582  0.2344 -0.0780
12522W        W28416   0.901   7.855   5.154  0.0569 -0.3765  0.0338
12523W        W28417   4.320  12.030  11.373 -0.2946 -0.3988 -0.1535
12524W        W28418   8.362   5.435   0.576 -0.0938 -0.0451 -0.0819
12525W        W28419  16.183   7.234   3.209 -0.3166 -0.2878 -0.0407
12526W        W28420   5.823   9.354  10.930  0.1644 -0.1763 -0.3757
12527W        W28421  17.901   4.526  12.713  0.0899 -0.0999  0.0422
12528W        W28422  13.467   0.269  12.523 -0.2679  0.1032  0.2034
12529W        W28423  11.676   9.190   3.276 -0.1235  0.1848  0.1416
12530W        W28424  17.666   7.971   2.040  0.0533 -0.1085  0.2017
12531W        W28425  11.517  17.105   3.039  0.0003 -0.1433 -0.2705
12532W        W28426  15.863  12.723  13.952  0.1524 -0.1556  0.0943
12533W        W28427   7.677  13.422  12.087  0.2661 -0.1014 -0.0624
12534W        W28428   4.989  12.787  10.447  0.2399 -0.3080  0.0085
12535W        W28429   4.884   6.072  14.719 -0.0457  0.2813 -0.0435
12536W        W28430  16.255   2.150   1.365 -0.0727  0.1946  0.1308
12537W        W28431  10.929  15.775   0.808 -0.2218 -0.0781 -0.1813
12538W        W28432   4.210  12.957  13.779 -0.0098 -0.1486 -0.5583
12539W        W28433   2.512  15.323  15.302 -0.2303 -0.1143  0.0964
12540W        W28434   8.252  14.988  11.515 -0.0390 -0.1968  0.1554
12541W        W28435  16.542  11.661   3.701  0.1003  0.2500 -0.2418
12542W        W28436   4.225  15.994  12.521  0.0401 -0.2748 -0.2384
12543W        W28437  16.098   9.807  15.763  0.0606 -0.0052 -0.1492
12544W        W28438  12.801   3.586  11.157 -0.0755  0.0857  0.4881
12545W        W28439  16.420   2.661   2.539 -0.1120  0.0676  0.1683
12546W        W28440  18.164  13.960   2.287 -0.0404  0.2941  0.1186
12547W        W28441   9.907   0.910   3.343 -0.5878  0.0949  0.1239
12548W        W28442   4.313   0.185  12.926 -0.2163 -0.0501 -0.0423
12549W        W28443  11.225   0.120  14.265 -0.2112 -0.0086  0.0803
12550W        W28444   0.255  15.377  13.858 -0.1822  0.0979  0.0380
12551W        W28445   0.872  16.214  14.228  0.0787 -0.1606  0.2569
12552W        W28446  15.796  17.934  15.907 -0.0861 -0.1019 -0.1441
12553W        W28447  17.951   6.167  11.940  0.0001  0.0255 -0.0586
12554W        W28448   4.200  14.222   3.997  0.1493 -0.2038 -0.0282
12555W        W28449  11.838   2.270  11.132  0.2639 -0.2652 -0.1175
12556W        W28450   5.951   8.244   4.269 -0.1351  0.3344 -0.0566
12557W        W28451  16.800   8.424  12.041  0.1032 -0.0977 -0.1041
12558W        W28452  12.684   1.283   5.866  0.3150 -0.1798  0.1943
12559W        W28453  17.640   5.414  13.202  0.1741  0.0646 -0.1678
12560W        W28454  15.822  16.304  15.425  0.1741 -0.0628 -0.3212
12561W        W28455   1.066  16.780   1.590 -0.0351 -0.3153  0.1546
12562W        W28456   7.115   6.253   1.807 -0.1228 -0.1184 -0.0546
12563W        W28457   6.945   1.647  15.728 -0.0760  0.1021 -0.3202
12564W        W28458  15.290   8.544  14.319 -0.3021 -0.2915 -0.1615
12565W        W28459  13.820   8.927  14.462 -0.2019  0.1893  0.1926
12566W        W28460   3.356  17.767  15.045 -0.2586 -0.2522 -0.0850
12567W        W28461  18.038  17.367  12.580 -0.1203  0.0969  0.0075
12568W        W28462   0.632  17.780   4.872  0.0332  0.3664 -0.4291
12569W        W28463  11.928  17.070   3.614 -0.1726  0.0951 -0.0232
12570W        W28464  14.341   7.590  14.223 -0.3818 -0.2289  0.0207
12571W        W28465  11.793  18.079  15.481 -0.0638 -0.1977  0.1969
12572W        W28466  16.068  10.530   5.348  0.1061 -0.0475  0.0881
12573W        W28467  13.999   1.225   2.961  0.2487  0.0318 -0.3090
12574W        W28468   5.850   2.735  15.358  0.2272 -0.1482  0.0531
12575W        W28469   0.812   8.137   2.599 -0.0734 -0.1549  0.3249
12576W        W28470   0.443   7.342  12.689  0.2143 -0.1237  0.3562
12577W        W28471  14.557   6.722   5.441  0.0845 -0.1473 -0.0010
12578W        W28472  13.008   8.690   4.066  0.0348  0.0620 -0.2437
12579W        W28473  14.394   9.438  14.340 -0.5252 -0.0571  0.2155
12580W        W28474  15.642  16.767  12.048  0.1586  0.3526 -0.1155
12581W        W28475   1.755  11.487  13.105 -0.1407 -0.1532  0.0389
12582W        W28476  15.530   4.046   3.802 -0.2366  0.3585 -0.0252
12583W        W28477  14.963   7.058   1.633  0.2049  0.1912 -0.1822
12584W        W28478   4.123  11.817  11.800 -0.1915  0.1827  0.1896
12585W        W28479  14.438   1.453  12.840 -0.2078  0.0541 -0.0774
12586W        W28480   7.848   0.138  14.119  0.0330  0.0316  0.0448
12587W        W28481  16.658   5.502   0.369 -0.0503  0.1589 -0.0002
12588W        W28482  14.873   8.394  14.104  0.0523  0.0150 -0.1289
12589W        W28483  17.656   5.357  11.434 -0.0089  0.2036  0.1170
12590W        W28484  11.468  13.661  10.815 -0.0687 -0.1465 -0.0635
12591W        W28485   6.370   5.010  16.137  0.1445 -0.0974  0.1570
12592W        W28486   9.327   9.164   2.809 -0.2305  0.3045  0.2479
12593W        W28487  18.389   3.505   3.219  0.1416  0.0138 -0.1227
12594W        W28488  13.314   4.441   4.826  0.2201 -0.3076  0.1432
12595W        W28489  10.538  12.215   0.956  0.0708  0.0625  0.1497
12596W        W28490   4.943   0.062   3.774  0.1885  0.1707 -0.1084
12597W        W28491   8.724   0.416   3.296 -0.1873 -0.1532  0.0179
12598W        W28492  14.390   2.114  15.985 -0.0559 -0.2587  0.0509
12599W        W28493   4.181  15.077  15.387 -0.2315 -0.3611 -0.2232
12600W        W28494   6.752   6.768  13.706 -0.0162 -0.1684 -0.3648
12601W        W28495  17.124   0.853   2.950  0.2267 -0.0494 -0.0827
12602W        W28496   7.713   1.352   0.959  0.2358 -0.0459  0.0176
12603W        W28497  11.887  14.981   0.945  0.0188 -0.1272 -0.2982
12604W        W28498  12.616   1.244   2.653  0.1205  0.0480 -0.1793
12605W        W28499   0.260   3.838  15.894 -0.0904  0.2889 -0.0615
12606W        W28500   0.104   2.395   2.833 -0.1171 -0.1352 -0.1059
12607W        W28501  10.041  18.037   3.772 -0.4689  0.1259 -0.3321
12608W        W28502  13.738   8.602  12.491 -0.0567 -0.2878 -0.1345
12609W        W28503  14.624   3.495  11.873  0.1589 -0.4807 -0.0946
12610W        W28504   0.727   6.948   4.480  0.1027  0.0177 -0.0603
12611W        W28505   5.383  11.048  12.163 -0.0506 -0.0542 -0.0993
12612W        W28506  13.863   9.328   3.344 -0.2850  0.1342 -0.1509
12613W        W28507  12.470  13.425   3.630 -0.1145  0.1770  0.0654
12614W        W28508  15.820  16.029  14.270 -0.0295  0.0822 -0.1728
12615W        W28509   3.618   4.104   3.628 -0.0903  0.0778 -0.1991
12616W        W28510  11.839  12.043  15.919  0.1103  0.4521  0.0237
12617W        W28511   9.332  13.421  10.639 -0.2310  0.1235  0.0699
12618W        W28512  17.668  10.634   3.776  0.1536 -0.1417  0.1449
12619W        W28513  11.676   7.100   0.605 -0.2145  0.1754 -0.1063
12620W        W28514   3.351   1.404   5.163  0.0710  0.1621  0.1580
12621W        W28515  12.537  10.238  13.830  0.1548 -0.1080 -0.0350
12622W        W28516  16.556   1.653  12.885  0.0613 -0.1741 -0.2988
12623W        W28517   5.391  17.761   1.973  0.3094 -0.1043  0.0852
12624W        W28518   0.090  10.988  13.258  0.0268 -0.0837 -0.0041
12625W        W28519  11.977   6.761  12.218 -0.0021 -0.0446  0.0671
12626W        W28520  12.066   8.592   5.315 -0.0488 -0.1744 -0.0953
12627W        W28521   6.375   5.815  11.752  0.2528  0.3953 -0.1119
12628W        W28522   9.818  15.012   3.785 -0.1807 -0.0856 -0.0937
12629W        W28523  10.994   4.096  14.339 -0.1892 -0.1774  0.1371
12630W        W28524   7.092   3.285   5.314  0.0591  0.1026 -0.0896
12631W        W28525  11.252   8.920  11.058  0.2835  0.0653  0.1142
12632W        W28526  13.265  13.618  14.792 -0.0874 -0.0816 -0.3445
12633W        W28527  14.501   6.042  15.086 -0.0988  0.2104  0.1282
12634W        W28528   3.724  17.150   3.429 -0.0243 -0.3340 -0.0062
12635W        W28529  13.222   4.837  14.242 -0.2351  0.1720 -0.0296
12636W        W28530   5.902  13.915  12.325  0.0138 -0.0066  0.2729
12637W        W28531  11.931  18.084   4.491  0.0647 -0.1308 -0.2666
12638W        W28532   7.087   8.860  12.177 -0.0912  0.0966 -0.2626
12639W        W28533  15.266   4.620  14.951  0.1865 -0.0366  0.3174
12640W        W28534  17.071   3.969  15.130  0.1392 -0.0165  0.4557
12641W        W28535  15.098  14.147  15.124  0.0929 -0.2166  0.0529
12642W        W28536   6.430   2.504  16.016 -0.0312  0.1171 -0.0300
12643W        W28537   1.791   3.908  15.448 -0.0325 -0.1309 -0.0870
12644W        W28538   6.852  15.903  10.518 -0.4214 -0.4973  0.3151
12645W        W28539  12.526   8.356   4.361 -0.2195  0.1357 -0.4046
12646W        W28540   2.069   2.031   2.416  0.0974 -0.3171  0.0701
12647W        W28541   8.614  12.427  11.398  0.0380 -0.3032 -0.0710
12648W        W28542   7.157  14.840   1.197 -0.0412 -0.0703  0.0917
12649W        W28543   4.709  11.189   2.754 -0.0501 -0.0184  0.0004
12650W        W28544  17.419  10.991   0.670  0.0678 -0.1029  0.1559
12651W        W28545   3.229  15.407   0.230  0.0849  0.0892  0.0493
12652W        W28546  10.398  16.303  15.171 -0.3893  0.1230 -0.0140
12653W        W28547   1.898  17.672   2.470  0.0719  0.3412  0.1304
12654W        W28548  13.310  14.261  11.433  0.0635  0.3637  0.3054
12655W        W28549   5.897   8.103   1.604 -0.0608  0.1109  0.1190
12656W        W28550   3.833  11.904   3.102 -0.0462  0.1874 -0.0124
12657W        W28551   5.923   3.257   3.018 -0.0623 -0.1314  0.1775
12658W        W28552   8.082   4.520  12.564  0.2153 -0.3705 -0.2070
12659W        W28553   9.458   4.716  13.152 -0.0768  0.1139  0.1755
12660W        W28554   6.786   9.861  12.147  0.0429 -0.0349  0.2052
12661W        W28555  15.245   1.511  12.379 -0.0259 -0.0932  0.3753
12662W        W28556   1.410   2.602  15.452 -0.0813 -0.2060  0.2747
12663W        W28557  14.103  16.742  13.048 -0.0966  0.3048 -0.0574
12664W        W28558   3.167  11.112  11.975  0.2777 -0.0482  0.0221
12665W        W28559  13.157  17.641   3.302  0.1046  0.0052 -0.2501
12666W        W28560  11.249   8.510  12.700 -0.4036  0.2159 -0.0706
12667W        W28561   6.332  14.319  15.248 -0.1878 -0.0267 -0.0097
12668W        W28562  16.285   7.085  12.207  0.2285  0.1530 -0.0052
12669W        W28563   8.856  16.431  11.478 -0.0656 -0.0351  0.0220
12670W        W28564  13.117   3.167   1.229  0.0022 -0.3175 -0.1355
12671W        W28565  11.796  14.487   0.746 -0.1157 -0.1536  0.0425
12672W        W28566   1.635   3.828   4.434 -0.1101  0.0652  0.0180
12673W        W28567  18.187  13.064   0.438 -0.1355  0.0985  0.0621
12674W        W28568   4.202  15.394  10.638  0.1147 -0.1397 -0.0651
12675W        W28569  14.056  18.222   3.469  0.0541  0.1881  0.1139
12676W        W28570  14.015  10.553   2.933  0.2074 -0.2759  0.2634
12677W        W28571   0.842   8.274  13.779  0.4248  0.2169  0.0778
12678W        W28572  16.637  12.485  11.362 -0.1712 -0.1760 -0.0007
12679W        W28573   2.268  14.343  15.404  0.0154 -0.3128 -0.1944
12680W        W28574  11.978   1.836   3.718  0.2211  0.1974 -0.0001
12681W        W28575   8.493  10.423  15.831  0.1512 -0.1526 -0.0181
12682W        W28576   3.736   8.178   3.684  0.0909 -0.1176 -0.2108
12683W        W28577  14.161  15.922  11.675  0.2118 -0.0813 -0.1377
12684W        W28578   8.901  15.190   3.329  0.1013 -0.0208 -0.0387
12685W        W28579   8.733   1.319   5.016 -0.0974 -0.3690 -0.0362
12686W        W28580   7.427  16.004   4.268  0.0764  0.1365 -0.2185
12687W        W28581   2.367   1.791   1.856 -0.2170  0.0286 -0.1124
12688W        W28582   2.961  12.357  11.869  0.0847  0.2719  0.0947
12689W        W28583  10.069   6.814   3.761 -0.0099 -0.1553  0.1287
12690W        W28584   2.706   9.885  14.605 -0.3859 -0.1616 -0.1824
12691W        W28585  13.398   0.142   4.437  0.0483  0.0850 -0.3577
12692W        W28586   4.019  18.146   0.448 -0.0441  0.3361  0.2145
12693W        W28587   3.304  12.096  16.050 -0.0461  0.0526 -0.0225
12694W        W28588   9.287   9.247   5.051 -0.2875  0.0023 -0.2119
12695W        W28589   5.185  16.945   5.106  0.1277  0.3264 -0.0690
12696W        W28590   5.357   8.819   6.216  0.0444  0.0804 -0.1541
12697W        W28591   1.317  11.679   5.374  0.2312 -0.2600  0.1636
12698W        W28592   3.670   9.316   5.598  0.4159 -0.0296 -0.2657
12699W        W28593   6.198  14.842  11.398  0.0702  0.2639 -0.4343
12700W        W28594   7.706  12.539   3.063 -0.0380  0.1446  0.0235
12701W        W28595   4.579  13.730  13.545 -0.1310  0.2832 -0.3756
12702W        W28596   5.037   5.392   5.905  0.0372  0.0898  0.1281
12703W        W28597   1.200  12.513   1.329 -0.3930  0.2527  0.0867
12704W        W28598   8.946   5.702  15.469  0.1745 -0.0480  0.3290
12705W        W28599  12.527  16.304   5.000 -0.0603 -0.0990  0.1588
12706W        W28600  14.715  17.436  14.860  0.0444 -0.1604  0.0031
12707W        W28601  12.508  10.948   2.740  0.1816 -0.3064 -0.3262
12708W        W28602  14.102  14.653   3.668 -0.0585 -0.2678 -0.2987
12709W        W28603   3.938   4.019   1.046 -0.3623  0.1574  0.1076
12710W        W28604   4.724  12.803   0.117 -0.0009  0.0760 -0.2426
12711W        W28605  11.184   8.112  12.969 -0.1370 -0.1383  0.1590
12712W        W28606   8.417   6.086   3.453  0.1114  0.0075 -0.1217
12713W        W28607   0.412   9.284  12.804 -0.3933  0.0766  0.2259
12714W        W28608   9.269  12.574  12.122  0.2849  0.2199 -0.2231
12715W        W28609   6.445  12.581   4.678  0.1756  0.2761  0.0552
12716W        W28610   6.784  17.185  13.229  0.1825 -0.1588 -0.2857
12717W        W28611   4.161  15.716   5.155 -0.2055 -0.1476 -0.3621
12718W        W28612   2.742   2.308  13.216 -0.0697  0.1399 -0.0005
12719W        W28613   5.257   7.926   2.358  0.0516  0.4706 -0.2421
12720W        W28614   3.769  13.192   4.785 -0.1449 -0.1152 -0.0432
12721W        W28615   2.115  18.416   1.764 -0.0991  0.2411 -0.1565
12722W        W28616  16.218  13.024   5.130  0.1270  0.2637  0.1358
12723W        W28617   3.187   1.542  13.074  0.1829  0.3664  0.0343
12724W        W28618  10.823  18.385   0.231  0.2203  0.3639  0.0218
12725W        W28619  11.807  10.708  10.728  0.0255  0.0801  0.0737
12726W        W28620   2.293   8.874   2.845  0.0660  0.3941  0.1260
12727W        W28621  11.504   1.059   4.968  0.1920  0.1366  0.0139
12728W        W28622   5.461   2.421   3.830 -0.1357 -0.1574  0.0811
12729W        W28623   3.056   0.159  11.348 -0.1147  0.0635  0.1622
12730W        W28624  13.206   7.281   1.696 -0.1696 -0.3210 -0.0158
12731W        W28625   4.540   1.676  13.626  0.0379  0.2426  0.1415
12732W        W28626  13.580  11.970  11.185 -0.0890  0.0444 -0.0177
12733W        W28627  10.084   0.158  11.945  0.0151 -0.0730 -0.1412
12734W        W28628   1.853   3.407   4.246  0.0740 -0.1214 -0.1701
12735W        W28629  15.165  17.607   2.889  0.1950 -0.1684 -0.2903
12736W        W28630   9.819  10.096   3.103 -0.0555 -0.4175  0.2060
12737W        W28631  11.694  16.087   4.693  0.0214 -0.0395 -0.1313
12738W        W28632   2.574   4.202   4.769  0.0240  0.0062  0.0674
12739W        W28633   5.967  16.322  12.692  0.1140  0.2294  0.1909
12740W        W28634  18.014   1.221   2.871 -0.1962  0.0890  0.3515
12741W        W28635  16.411  15.932   2.682  0.1137 -0.0476  0.1656
12742W        W28636   8.606   4.254   3.885 -0.0380  0.0303 -0.1709
12743W        W28637  17.693   9.487   4.701 -0.1163  0.1351 -0.3066
12744W        W28638   9.213   1.055   0.905  0.1987  0.2768 -0.1494
12745W        W28639   3.849   8.570   1.324  0.1225 -0.1823  0.0889
12746W        W28640  10.336   9.559   4.913  0.0128 -0.0107 -0.3637
12747W        W28641  10.994   4.272   0.177 -0.0448  0.1563  0.3404
12748W        W28642  10.525   6.534  13.305 -0.1948 -0.4060  0.0776
12749W        W28643   4.310   4.794   4.936  0.0200 -0.0987 -0.1156
12750W        W28644  18.287  16.779   3.276 -0.0866  0.1492 -0.1957
12751W        W28645   4.129  12.132   6.209 -0.1588 -0.1635 -0.0907
12752W        W28646   4.442  12.837   5.458  0.1741 -0.3742  0.0025
12753W        W28647   4.390  11.593   2.995 -0.1858  0.1614  0.2596
12754W        W28648   3.805   0.694   9.934 -0.1836  0.4895  0.0709
12755W        W28649  15.441  15.158  12.873 -0.3480 -0.0057  0.0389
12756W        W28650  13.638  11.864  14.387  0.2351 -0.1154 -0.2898
12757W        W28651   7.446   5.238   4.085 -0.1163  0.2017 -0.3222
12758W        W28652  15.545  13.264   2.464  0.0223  0.0746  0.4387
12759W        W28653  14.910   1.603   1.325 -0.2739 -0.2826  0.1846
12760W        W28654   4.170  13.834  14.356  0.0858  0.0950 -0.0380
12761W        W28655   1.236   7.956   2.457 -0.0656 -0.1399  0.1266
12762W        W28656  15.409  15.008  14.114  0.2352  0.0223  0.2415
12763W        W28657  12.340   5.079   3.456  0.6088 -0.3495 -0.1783
12764W        W28658  17.179  15.584  11.370 -0.0123  0.0220  0.1229
12765W        W28659  11.997  12.648   2.158 -0.1110  0.0502  0.1029
12766W        W28660   9.515   9.025  11.876 -0.0514  0.2888  0.1543
12767W        W28661  10.920   7.496  12.144  0.1819  0.3380 -0.1855
12768W        W28662  15.663   0.646   1.060 -0.0348  0.1166 -0.3257
12769W        W28663  14.360  15.711  16.143  0.0090  0.1658 -0.1861
12770W        W28664   6.033  12.511  14.236  0.4151 -0.2466 -0.1001
12771W        W28665   7.215  16.017  16.093  0.0608 -0.0041 -0.2737
12772W        W28666   3.933   2.044  12.484 -0.1037 -0.0249 -0.2630
12773W        W28667   7.275   6.125  11.645 -0.1996 -0.0581  0.0941
12774W        W28668   5.554  15.489   2.111 -0.0071  0.2130  0.0498
12775W        W28669   2.897  10.727  11.299  0.1443  0.1102  0.1592
12776W        W28670  11.208  17.130  11.857  0.1044  0.1747  0.1997
12777W        W28671  11.943  17.402  11.617 -0.1002 -0.0249  0.0829
12778W        W28672  17.585   6.873  14.786  0.2395  0.0038 -0.1175
12779W        W28673  13.379   3.651   4.932 -0.2836  0.0837  0.1836
12780W        W28674  17.105   0.919  14.155 -0.0469 -0.0245 -0.0913
12781W        W28675  14.826  15.857   6.116  0.0159  0.2119 -0.2013
12782W        W28676   3.657   1.515   2.991 -0.0002 -0.0988 -0.2104
12783W        W28677   1.403  14.942   1.658 -0.0978  0.0848 -0.1405
12784W        W28678   1.020   9.539   2.650 -0.0674 -0.1152  0.0663
12785W        W28679   2.677   0.723  15.137  0.2624  0.2109 -0.0514
12786W        W28680  13.648  11.403  13.736  0.0462  0.2508 -0.0712
12787W        W28681  13.847   9.076  12.149  0.1430 -0.2692  0.0495
12788W        W28682   0.004  14.449   0.629 -0.1261  0.2758  0.1935
12789W        W28683   1.964  16.152   1.594 -0.1428 -0.3021 -0.1115
12790W        W28684   5.597   8.044  11.235  0.0254  0.0367  0.0134
12791W        W28685   3.166   8.253   3.640  0.3232 -0.5320  0.0316
12792W        W28686  15.350  18.073   3.878 -0.0494 -0.0743  0.0518
12793W        W28687  12.764   7.549  13.015 -0.1580 -0.0835  0.0670
12794W        W28688   5.269  15.157  11.784 -0.0107  0.0441  0.2492
12795W        W28689  14.037  17.981  12.566  0.1464  0.0826 -0.0337
12796W        W28690   9.698   3.826   4.853 -0.2287 -0.2786 -0.0217
12797W        W28691  14.735   2.363  12.667 -0.1687 -0.0150  0.0719
12798W        W28692  14.467  11.041  15.776 -0.2599 -0.3210  0.0591
12799W        W28693   5.583   1.651   3.296  0.0005  0.2018  0.1956
12800W        W28694  12.267   8.690  14.643  0.0311 -0.1971  0.0175
12801W        W28695  12.408  12.400  14.507  0.0956  0.1153 -0.0155
12802W        W28696  14.473  18.379  12.320 -0.1430 -0.3041 -0.2325
12803W        W28697  15.602  14.215  14.885  0.3185 -0.0283 -0.0726
12804W        W28698  18.370   6.987   0.708  0.1927 -0.2231 -0.0782
12805W        W28699   7.280   7.245   5.413 -0.1250  0.0312 -0.0115
12806W        W28700  11.296  15.374  10.993  0.0551  0.1130 -0.1867
12807W        W28701  11.654  14.449   0.176  0.0736 -0.4075 -0.0870
12808W        W28702  10.560   0.766  16.016 -0.0311 -0.1984 -0.1787
12809W        W28703   3.462   6.964  11.510  0.2539  0.0289 -0.0018
12810W        W28704   1.957  17.654   1.670  0.2096  0.2968 -0.3145
12811W        W28705  13.417  12.572  15.821 -0.4848  0.0654 -0.1560
12812W        W28706  12.348   5.386  13.370  0.2836 -0.1263  0.1033
12813W        W28707   9.078  13.191   4.791  0.1221 -0.1445  0.1245
12814W        W28708  15.708   3.251  12.601 -0.4289 -0.1543 -0.2170
12815W        W28709   1.986  15.526  13.765  0.1127  0.2360  0.1195
12816W        W28710   2.668   0.845   1.631  0.4061 -0.0694  0.2485
12817W        W28711   3.100   0.279   0.101 -0.0098 -0.0757 -0.0199
12818W        W28712  15.584   0.491  11.008  0.2034  0.2020  0.0397
12819W        W28713   1.967  15.770  11.276  0.0203  0.3554 -0.0620
12820W        W28714  13.414  11.477   2.167  0.1306  0.1352  0.0374
12821W        W28715   2.274  17.965   2.029 -0.2208  0.0113  0.0006
12822W        W28716   3.152   8.228  14.643 -0.0777  0.0942 -0.1253
12823W        W28717   4.978  17.212   4.397 -0.0677 -0.1397  0.1597
12824W        W28718  12.549   1.871  15.690  0.2824 -0.0224  0.2334
12825W        W28719   8.879  10.265  11.783 -0.2487 -0.0382  0.0906
12826W        W28720   7.274   0.301   4.403  0.1178 -0.0512 -0.3879
12827W        W28721  17.357  17.541   5.666  0.0539 -0.2523 -0.0424
12828W        W28722   2.645   2.772  15.302  0.2315 -0.0855 -0.0941
12829W        W28723   7.271  12.793  10.559  0.0605 -0.0910 -0.1575
12830W        W28724   5.055   9.414   0.560  0.2760 -0.1248  0.0102
12831W        W28725  18.027   9.836  11.635  0.4097  0.1224 -0.0405
12832W        W28726   1.291  15.467  11.270  0.0824  0.2945 -0.1992
12833W        W28727  17.428   4.833  13.483 -0.0654  0.3313 -0.2074
12834W        W28728   1.601  12.739   3.222 -0.2279 -0.0504 -0.1858
12835W        W28729   1.423   8.246  12.068  0.1625 -0.1322  0.2870
12836W        W28730  10.154  15.645   0.766 -0.3723 -0.1836 -0.2321
12837W        W28731  17.114  11.279  15.702 -0.0440 -0.2743  0.3154
12838W        W28732  13.942   0.849   5.332  0.2367  0.0740  0.0755
12839W        W28733  11.772   6.263   4.699 -0.0217  0.0052 -0.0724
12840W        W28734  15.526   5.348  12.994  0.0106 -0.2524  0.3960
12841W        W28735   5.042   6.168   4.549  0.0219  0.0461 -0.0794
12842W        W28736   4.886   8.943   4.872  0.1288 -0.1588 -0.0664
12843W        W28737   1.936   9.087  13.892 -0.1469  0.3895 -0.0255
12844W        W28738  17.102   1.259   3.465 -0.2257  0.0273 -0.1795
12845W        W28739  10.003   7.898  15.367 -0.0899 -0.0969  0.1005
12846W        W28740   8.004   0.359  12.388  0.0717  0.0226 -0.1412
12847W        W28741  16.125  16.060   1.013 -0.1205 -0.2858  0.2188
12848W        W28742   1.882   5.130  12.448  0.1238 -0.1321  0.1210
12849W        W28743  10.498  16.787   5.369 -0.1226  0.2804 -0.2589
12850W        W28744   5.700  11.869  11.878 -0.1444  0.0172  0.5295
12851W        W28745  12.862   3.515  11.633 -0.0747 -0.1750 -0.0994
12852W        W28746  12.477  16.553  11.574  0.0949 -0.1050 -0.1536
12853W        W28747   1.921  17.019   2.421  0.0261 -0.0804  0.3831
12854W        W28748   0.948  14.108  15.738  0.0959 -0.2362  0.1389
12855W        W28749   8.585   3.030  14.991 -0.1581  0.0204 -0.1410
12856W        W28750   2.748   4.652  14.277  0.0858 -0.1097  0.1007
12857W        W28751   9.153   1.873  14.668  0.1896 -0.1551 -0.0849
12858W        W28752   4.466   6.460   4.669  0.1352 -0.2766 -0.2613
12859W        W28753  16.706   2.604  13.640 -0.3771  0.1006 -0.0717
12860W        W28754   2.819  16.613   3.527  0.1052  0.0371 -0.1777
12861W        W28755   0.502  12.518   2.641  0.2513 -0.0354  0.0295
12862W        W28756   1.729  16.500  11.412  0.1924 -0.0740 -0.1248
12863W        W28757   2.038  10.479   2.848  0.0668  0.0740  0.1027
12864W        W28758   4.825   9.751  11.968  0.1564 -0.2725  0.1489
12865W        W28759  13.123  13.287   0.395  0.3080 -0.3280 -0.2980
12866W        W28760   0.382   6.945   1.682  0.1653  0.1723 -0.2279
12867W        W28761   8.801  12.354   4.402 -0.1303 -0.0175  0.1051
12868W        W28762   7.981   0.579  14.962  0.2291  0.2242  0.0017
12869W        W28763  14.318   7.647  14.744  0.1300  0.1351 -0.1443
12870W        W28764  11.384  15.487   2.379 -0.1693  0.2107 -0.2435
12871W        W28765  17.807  10.465  14.463 -0.0765 -0.2307  0.1031
12872W        W28766   0.097  18.449   1.649 -0.2294 -0.2066  0.2382
12873W        W28767   2.709   7.660  15.108  0.3979 -0.0558 -0.2178
12874W        W28768  17.955  13.057  15.474  0.1266 -0.2457 -0.1206
12875W        W28769   5.330   7.895  15.129  0.2283 -0.0090  0.1073
12876W        W28770   8.869  11.460   3.345  0.4561 -0.0307 -0.4157
12877W        W28771  14.836   1.370   2.847  0.0932  0.2114  0.1702
12878W        W28772   1.174   7.836  12.138 -0.2974 -0.2061  0.0311
12879W        W28773   5.582  16.037   4.868  0.2770 -0.0494  0.0237
12880W        W28774   8.965  12.395  10.986  0.1330 -0.0404 -0.0354
12881W        W28775  15.945   4.003   2.071  0.2171  0.1029  0.0362
12882W        W28776  18.085  11.037  13.116 -0.0445  0.0463 -0.3235
12883W        W28777   9.202   0.698  10.632 -0.1485  0.1029 -0.0764
12884W        W28778   1.575   9.667  15.209  0.1911  0.5027  0.1010
12885W        W28779   1.526  11.814  13.892  0.0320 -0.0911 -0.2851
12886W        W28780   8.961  16.548   3.320 -0.3262  0.2897  0.4421
12887W        W28781   3.910  13.760   5.718  0.2147  0.3888  0.0727
12888W        W28782  12.365   5.116  11.865 -0.0619  0.2747  0.0715
12889W        W28783  10.941   3.408   1.712 -0.1564 -0.0409 -0.0518
12890W        W28784   1.142   6.548   5.276 -0.3042 -0.1977  0.1152
12891W        W28785  10.947   6.525  10.553 -0.1106 -0.2879 -0.1144
12892W        W28786  16.844   9.033   5.295 -0.1695  0.0803 -0.0868
12893W        W28787   1.704   8.770   0.796  0.1632  0.2703 -0.0676
12894W        W28788  12.758  11.763   4.143 -0.1718  0.1899  0.0755
12895W        W28789  11.472   5.884   4.799  0.0235  0.2092  0.4975
12896W        W28790  13.923   7.109  14.893  0.0720 -0.1493 -0.1000
12897W        W28791   0.279   8.979   3.926 -0.5028 -0.0443  0.1494
12898W        W28792  17.190   5.071  12.593 -0.0752  0.2084  0.2523
12899W        W28793  11.969   2.093  11.618 -0.0398  0.1564 -0.0254
12900W        W28794   2.796  16.369  11.634  0.1884  0.0848  0.1429
12901W        W28795  15.823   7.820  11.351  0.1216 -0.1456 -0.0662
12902W        W28796  15.479   9.745  12.604 -0.1254  0.1262 -0.1114
12903W        W28797  18.429   2.999   2.121 -0.3067 -0.0403  0.2958
12904W        W28798   3.497  12.012   0.918  0.2928 -0.1565 -0.1033
12905W        W28799  17.790  11.954   4.092  0.3436 -0.4276  0.0702
12906W        W28800   2.546  17.932   4.983  0.1951  0.1632 -0.2389
12907W        W28801   3.171  11.478   2.352  0.4004 -0.2288  0.1501
12908W        W28802   8.369  11.509  16.067  0.1563  0.0627 -0.1160
12909W        W28803   4.190   5.150   1.646  0.0472  0.0326 -0.3311
12910W        W28804   8.685   4.418   5.440 -0.2178  0.1264  0.0910
12911W        W28805  18.051  12.487  15.661  0.2980  0.1769 -0.2365
12912W        W28806   3.482  12.034   2.335 -0.2873  0.1294  0.0386
12913W        W28807   2.139   7.025   2.029  0.0118 -0.2959  0.0627
12914W        W28808   9.142  11.282  12.026  0.0859  0.0368 -0.3161
12915W        W28809  15.177   6.331  14.130 -0.0316 -0.2022  0.1545
12916W        W28810   9.222  14.503   4.678  0.1806 -0.1257  0.2256
12917W        W28811   8.804   2.235  12.299 -0.0591  0.2161 -0.1350
12918W        W28812  12.857  11.488  14.825  0.0562  0.3886 -0.1068
12919W        W28813   9.500   7.128   0.734  0.0491  0.3887 -0.4486
12920W        W28814   8.407   6.834   0.717 -0.1529 -0.0686 -0.4667
12921W        W28815  17.960  16.018  15.914 -0.0734  0.3079  0.0260
12922W        W28816   5.587  10.146   3.485 -0.2405 -0.5073 -0.0366
12923W        W28817   8.926   7.821  14.852  0.1524 -0.5437 -0.0510
12924W        W28818  17.462   1.027  14.879 -0.2820 -0.0008 -0.0519
12925W        W28819   0.272  17.132   3.099  0.5501 -0.1329 -0.2441
12926W        W28820   2.665   8.320  16.113  0.0565 -0.1418  0.1783
12927W        W28821   2.202  13.899   1.907  0.0719  0.0492  0.1839
12928W        W28822  10.672   4.718   3.634  0.2195  0.1368 -0.0866
12929W        W28823   7.267  10.814   0.205  0.2120 -0.1597  0.2040
12930W        W28824   5.854   4.214  12.436  0.0186  0.0568  0.0171
12931W        W28825   7.464   6.122  11.194  0.2024  0.0139  0.1926
12932W        W28826  11.422  18.147  11.596 -0.2803 -0.0166 -0.5483
12933W        W28827  15.929   0.595   6.346 -0.1167 -0.0105 -0.0379
12934W        W28828  15.391  16.217  11.027  0.1870  0.0598  0.0413
12935W        W28829   0.140  15.847  14.960 -0.0838 -0.0128 -0.0697
12936W        W28830  11.510  18.457  12.690  0.0588 -0.3228  0.0974
12937W        W28831   8.674  14.467  15.280 -0.1827  0.4186 -0.0709
12938W        W28832  10.813   6.951   5.446 -0.0400 -0.0029  0.0002
12939W        W28833  16.404  10.117   2.439  0.0463  0.1383  0.0358
12940W        W28834   6.801   1.718   1.495 -0.1618  0.1588 -0.1325
12941W        W28835  14.338   1.487   4.733 -0.0774 -0.3642 -0.4045
12942W        W28836  15.296  12.145   1.393 -0.1677 -0.0199 -0.1609
12943W        W28837  10.951  15.149   2.427  0.1493 -0.0368  0.3109
12944W        W28838   4.986  14.385   3.016  0.1094  0.1653  0.0165
12945W        W28839  14.256  15.376   5.557  0.3295  0.2335 -0.4485
12946W        W28840  15.393  12.958  12.061  0.1149 -0.0765  0.3354
12947W        W28841  12.316   2.044   2.139 -0.0260 -0.1122 -0.0325
12948W        W28842   7.571  11.349   2.032  0.1011 -0.0017  0.1706
12949W        W28843  10.675   6.398  15.373  0.1063 -0.2576 -0.1301
12950W        W28844   5.014   5.028   5.562 -0.2956  0.0994 -0.0466
12951W        W28845   2.697  14.510  11.919  0.2675  0.0725 -0.0970
12952W        W28846  17.319  18.224  15.390 -0.1116  0.1580  0.1116
12953W        W28847  14.524   3.136  16.091  0.2695 -0.1299 -0.0438
12954W        W28848  14.811  17.335   5.919 -0.3097 -0.0976  0.1715
12955W        W28849  16.670   9.290   1.448 -0.3011 -0.0861 -0.0717
12956W        W28850   9.258  15.476  14.714  0.0150 -0.1221  0.2639
12957W        W28851   7.823  10.489  14.745  0.1028  0.1589 -0.0146
12958W        W28852  14.217  17.721   2.172 -0.0834  0.0569  0.0137
12959W        W28853   0.135   1.372   5.578  0.0874  0.1351  0.0840
12960W        W28854  10.494   8.400  12.274  0.0986 -0.0327  0.0958
12961W        W28855   9.915   5.239  14.715 -0.0397 -0.3853  0.0536
12962W        W28856  17.273  13.164   0.759  0.1182  0.0190 -0.1211
12963W        W28857   7.139  10.880  11.672  0.1832 -0.0066 -0.0930
12964W        W28858  14.256   1.616   2.823 -0.0103  0.0415  0.0326
12965W        W28859  14.056   4.871   3.116  0.0306  0.3233 -0.0247
12966W        W28860  11.697   9.710  12.840  0.1317 -0.1585 -0.1487
12967W        W28861   6.829  16.809  11.954  0.3025  0.0231 -0.0417
12968W        W28862   4.478   6.369  14.614 -0.4073 -0.0178 -0.2537
12969W        W28863   5.388   1.711   1.839 -0.0579 -0.1672  0.1534
12970W        W28864  14.146  10.820  13.097 -0.0822 -0.1027  0.0210
12971W        W28865   1.726   4.852   3.442 -0.0926  0.1423  0.3138
12972W        W28866   4.347  12.234  15.101 -0.4289  0.1006 -0.0240
12973W        W28867   9.276   8.240  11.394 -0.0543 -0.1281  0.1779
12974W        W28868  10.339   0.571   2.414  0.0016  0.0131  0.0845
12975W        W28869   4.432   8.317  14.736 -0.1553 -0.2566  0.2286
12976W        W28870   3.093   3.301   2.359 -0.0749  0.0830 -0.2428
12977W        W28871   4.582   8.630   1.303 -0.0095 -0.1864  0.0011
12978W        W28872   8.812   2.905  11.152  0.1999  0.1215  0.0141
12979W        W28873  17.342  12.795   0.279 -0.0055 -0.1321 -0.2234
12980W        W28874  10.619  15.860   2.010  0.2557 -0.0154  0.2153
12981W        W28875  17.773  13.478  13.573  0.2689 -0.0267 -0.0496
12982W        W28876  17.821   1.662   0.533  0.0742  0.3176  0.0463
12983W        W28877   8.189   0.096  14.806 -0.0891  0.1008  0.1210
12984W        W28878  18.346  16.995   2.810  0.1002  0.1187 -0.2601
12985W        W28879   6.879   5.172  15.166  0.0067  0.0969  0.1162
12986W        W28880   7.501  13.455  12.722  0.1745 -0.0597 -0.3424
12987W        W28881  10.317  10.347  10.859 -0.0710 -0.3339 -0.0292
12988W        W28882  16.427  10.072   5.936 -0.1254 -0.2770 -0.0910
12989W        W28883  13.775   2.480  11.372 -0.0491 -0.0129 -0.0003
12990W        W28884   7.927   4.989   3.891 -0.0570 -0.2650  0.0152
12991W        W28885  10.367   5.806   4.135 -0.1372  0.1114  0.1532
12992W        W28886  13.021  13.132  11.401  0.2087 -0.0953 -0.2249
12993W        W28887  16.175   6.309   5.031 -0.1972 -0.3309 -0.0706
12994W        W28888  16.487  16.103  14.133 -0.0701  0.0446  0.2338
12995W        W28889   2.262  12.837   0.225  0.1704 -0.0329  0.0174
12996W        W28890  10.207  10.993   1.849  0.0721  0.0888 -0.0800
12997W        W28891   8.313   7.469  15.582 -0.0897 -0.2386  0.1615
12998W        W28892   3.016   3.402  11.071  0.2428  0.1563 -0.4173
12999W        W28893   6.272   4.500  11.197 -0.1013 -0.0017 -0.1171
13000W        W28894  11.027  13.277   3.560  0.0728 -0.2662  0.0476
13001W        W28895  16.163  17.200   1.234  0.0489 -0.1250 -0.1177
13002W        W28896   2.565   4.115  12.865 -0.2947  0.1381  0.0381
13003W        W28897  12.695  17.346   3.717 -0.2134 -0.1030 -0.0999
13004W        W28898  15.276   0.019  14.841 -0.4209  0.1725 -0.2230
13005W        W28899   4.396   3.863   4.948 -0.3280  0.2474 -0.0359
13006W        W28900  18.066  13.525  12.571 -0.2381  0.0307 -0.1291
13007W        W28901   6.906   1.087  13.967 -0.0599 -0.1101  0.3255
13008W        W28902   8.616  14.111  11.673 -0.2402  0.3866  0.2460
13009W        W28903   2.588  15.242   0.061 -0.2540  0.1580 -0.0652
13010W        W28904  17.440   3.291   0.608  0.0626 -0.0365  0.1917
13011W        W28905   5.778  14.941   9.923 -0.1089  0.1405 -0.0347
13012W        W28906   7.331  13.763  14.734 -0.0827 -0.1963 -0.1122
13013W        W28907   8.013  13.855   3.325 -0.2324 -0.0304  0.1594
13014W        W28908   0.268   9.042   2.786 -0.0435  0.0051  0.0865
13015W        W28909   5.809  16.002  12.194  0.1733 -0.1835 -0.0973
13016W        W28910  12.470   3.445  15.308  0.0538 -0.0924 -0.1192
13017W        W28911   9.316   3.995  15.294  0.0638  0.1705 -0.2616
13018W        W28912   5.364  14.251  11.290 -0.3233 -0.4184 -0.0795
13019W        W28913   6.464   4.803   3.276 -0.1889  0.3352 -0.0318
13020W        W28914   3.018   5.773  12.522 -0.1066  0.0069 -0.1114
13021W        W28915  17.142  16.755  14.236  0.1180  0.0634 -0.0495
13022W        W28916   2.287  17.222   5.698  0.2948 -0.1061 -0.0212
13023W        W28917  12.337  18.167   4.798 -0.0275 -0.1456 -0.0980
13024W        W28918  17.468   3.713  15.416 -0.1029  0.2113 -0.0420
13025W        W28919   8.280   0.909   2.247  0.0463  0.3846 -0.2244
13026W        W28920   0.154   0.844  13.745  0.0553  0.4376 -0.1450
13027W        W28921   1.306  15.600  13.464  0.1727 -0.4976  0.1214
13028W        W28922  13.417   4.898   0.500  0.0130  0.0972 -0.0454
13029W        W28923   2.188  15.753   2.493 -0.1066  0.0874 -0.3450
13030W        W28924  12.381  14.880  16.100  0.1483 -0.0168  0.0152
13031W        W28925   4.983  11.152  14.560 -0.2118 -0.0387 -0.1638
13032W        W28926   8.899   5.472   4.566 -0.1409  0.0693  0.1383
13033W        W28927   5.195   6.045   3.719  0.1715  0.0524 -0.1572
13034W        W28928  14.290   9.740  12.092  0.0715 -0.2138 -0.4283
13035W        W28929   4.340   9.933   2.178  0.2195  0.0098  0.0078
13036W        W28930  11.344  13.785   5.025 -0.0252  0.0803  0.2257
13037W        W28931   5.295  17.212   0.389  0.1323 -0.5182  0.0865
13038W        W28932  13.284   3.658  11.499 -0.0168 -0.2127  0.1543
13039W        W28933  17.484  13.248  11.400  0.1040 -0.2101 -0.1451
13040W        W28934  14.668  14.737   1.679  0.2173 -0.1556 -0.2661
13041W        W28935   9.198   1.511  11.579  0.0673 -0.0619  0.2202
13042W        W28936   7.867   2.202  12.107  0.0377  0.1815 -0.2409
13043W        W28937  11.421   9.258  16.067  0.0663 -0.0624  0.0496
13044W        W28938   0.055  14.971   5.365 -0.2745  0.1007  0.0695
13045W        W28939  18.148   9.743   3.920  0.0051 -0.1486  0.1908
13046W        W28940  17.692   2.525   0.956 -0.4541 -0.0638  0.2040
13047W        W28941  11.246   0.520   4.041  0.0729  0.2864 -0.2346
13048W        W28942  14.163   3.461  15.787 -0.0648 -0.2741  0.5047
13049W        W28943   4.432   1.119  12.702  0.1764  0.0626 -0.0303
13050W        W28944  16.574   3.970  13.682  0.1504 -0.1172  0.0193
13051W        W28945  17.378   9.623   3.887 -0.1060 -0.2212  0.2086
13052W        W28946  17.657  14.491  14.227  0.0555 -0.0491 -0.0743
13053W        W28947   6.865  10.190  13.417 -0.1776 -0.1109 -0.0836
13054W        W28948   7.714   0.239   5.655  0.3679 -0.3379  0.1175
13055W        W28949  15.186   9.379   2.432 -0.1011 -0.0741  0.1089
13056W        W28950  15.567   9.737   2.638  0.3025  0.1906 -0.0191
13057W        W28951   1.087   2.461   0.910  0.0130 -0.1573  0.0996
13058W        W28952   0.762   2.349   4.844 -0.1372 -0.4258  0.1460
13059W        W28953   9.517  12.507  13.371  0.0864  0.1339  0.0207
13060W        W28954  13.894  12.332  15.522 -0.0885  0.0938 -0.0884
13061W        W28955   5.552  11.484  13.760 -0.0036  0.3144 -0.0775
13062W        W28956  14.548  14.800   4.986  0.0646  0.0626  0.0137
13063W        W28957   1.625  18.389   0.002  0.1443  0.0067 -0.4489
13064W        W28958  14.945   6.388  14.585  0.0057 -0.0588  0.1842
13065W        W28959   4.731   3.436  12.558  0.5919 -0.0946 -0.3861
13066W        W28960  14.173  13.128   3.657 -0.3187 -0.1429 -0.1072
13067W        W28961   5.343   1.680   0.339 -0.0397  0.1527 -0.4080
13068W        W28962   3.934  12.316   1.172 -0.2449 -0.2047 -0.0837
13069W        W28963   4.412  13.604  14.791 -0.2478  0.0336 -0.0288
13070W        W28964   0.280  16.636   0.784  0.0329  0.3698 -0.0816
13071W        W28965   8.645  11.505  10.037  0.2374  0.0200 -0.2461
13072W        W28966  16.044   6.676   3.284 -0.1273  0.1717  0.2250
13073W        W28967  10.452  15.001  15.040  0.2170 -0.0010 -0.0551
13074W        W28968  14.110  13.563  15.955 -0.0001  0.0697  0.0568
13075W        W28969   8.591   0.246  15.065  0.0632  0.1575 -0.0486
13076W        W28970  10.176  12.166   4.510 -0.0434 -0.0959 -0.0406
13077W        W28971  14.146   6.398   0.062 -0.2504 -0.1255  0.1378
13078W        W28972  18.029   6.180  14.045  0.3278 -0.2761  0.0962
13079W        W28973  17.571   5.538   3.623  0.4011  0.0522 -0.0086
13080W        W28974   1.559   2.258  12.437 -0.0627  0.0632 -0.1721
13081W        W28975  11.082  13.540  12.261 -0.3421  0.0798 -0.2273
13082W        W28976  10.144  11.523  13.827 -0.3507  0.1360 -0.0127
13083W        W28977  11.726   1.298   1.703 -0.1193  0.1655 -0.0756
13084W        W28978   5.996  17.012  12.589  0.0351  0.1454  0.2880
13085W        W28979  18.155   6.710   3.787  0.0436 -0.0828 -0.2531
13086W        W28980  13.825   4.885  11.353 -0.0902  0.0478 -0.0780
13087W        W28981   3.190  11.500  13.674 -0.3092  0.3221 -0.3208
13088W        W28982  18.080   3.563   0.079  0.1651  0.1585 -0.0012
13089W        W28983  14.368  12.063  13.835  0.0813  0.0047 -0.1121
13090W        W28984  12.070  14.625  12.359  0.0543  0.3462  0.0482
13091W        W28985   9.475  17.947   3.546 -0.2478  0.3895  0.1937
13092W        W28986  11.514  11.670  11.924  0.0405  0.2462  0.1843
13093W        W28987   6.043   4.025   1.913  0.1407  0.0733 -0.2189
13094W        W28988  16.216   7.821   2.041 -0.3971 -0.2498 -0.0017
13095W        W28989   9.254  10.449  12.837 -0.0058  0.0224  0.3623
13096W        W28990   8.007   0.701   3.247  0.3008 -0.2411 -0.1139
13097W        W28991   6.215  18.353   5.783 -0.3332  0.6321  0.1399
13098W        W28992   0.137   4.312  16.129 -0.0410 -0.3722  0.3539
13099W        W28993  13.481  10.905   1.607  0.2475 -0.0592 -0.0814
13100W        W28994  12.731  11.052  10.954 -0.3629  0.1079  0.1730
13101W        W28995  14.868   7.921   2.875  0.0584  0.2367 -0.0342
13102W        W28996  10.077   9.628  12.167  0.1614 -0.2070  0.1639
13103W        W28997  15.307   6.093  11.645 -0.1824 -0.3713 -0.2445
13104W        W28998   1.175   3.041   4.567 -0.1164 -0.0190  0.0629
13105W        W28999  11.278   2.157   3.181 -0.0113 -0.2029 -0.0208
13106W        W29000  10.393   8.362   1.728  0.0121 -0.0333  0.1416
13107W        W29001   2.121  14.850  15.375 -0.2183 -0.2228  0.4460
13108W        W29002   7.774   5.994  15.347 -0.0209  0.0764  0.0379
13109W        W29003   5.939   5.420   6.364  0.0605  0.0011  0.2544
13110W        W29004   8.540   6.247   3.992  0.1125  0.1436  0.1951
13111W        W29005  14.764  16.592   3.792  0.0514 -0.1218  0.1369
13112W        W29006   1.583   9.717   1.785 -0.1597 -0.1380 -0.1396
13113W        W29007  10.440  16.492  16.090  0.1143  0.0984  0.2754
13114W        W29008  12.025   5.695  15.995 -0.1044 -0.2515 -0.1826
13115W        W29009  15.754  10.621  13.835  0.0105 -0.3054 -0.2321
13116W        W29010   3.548   7.660  12.694  0.0819 -0.0627 -0.3390
13117W        W29011  10.943  18.127  14.124 -0.3254  0.2598 -0.1718
13118W        W29012   5.517   2.172  16.078  0.0433 -0.1599 -0.0606
13119W        W29013   9.577   2.082  11.148 -0.1476 -0.1594 -0.0536
13120W        W29014   8.505   5.458  11.576 -0.0751 -0.2055 -0.1106
13121W        W29015  12.675  11.875  14.634  0.0487 -0.3004  0.3967
13122W        W29016   7.999  12.716   1.043 -0.0468 -0.0606 -0.1824
13123W        W29017   6.475  16.760   0.369  0.2766  0.1005  0.0637
13124W        W29018   3.317  15.308   2.717  0.1529  0.1460  0.1270
13125W        W29019  12.407   8.668   4.967  0.3890  0.2967  0.1728
13126W        W29020   1.855   6.260   3.199  0.0814 -0.1922  0.1437
13127W        W29021   0.640  16.020   5.570 -0.0860  0.0185  0.1585
13128W        W29022  10.780  16.319  10.591 -0.1009 -0.1632 -0.1192
13129W        W29023   7.437   1.902   5.454  0.0262 -0.2182  0.1022
13130W        W29024   7.464   6.066   3.350 -0.1858  0.3500 -0.0268
13131W        W29025  18.078  17.785  15.904  0.0393  0.1695 -0.0027
13132W        W29026  11.430   1.852   0.521 -0.0770 -0.1257 -0.2037
13133W        W29027   0.025   1.975  13.403  0.2607  0.0708  0.0307
13134W        W29028   8.426  14.793  15.745  0.0155  0.0493  0.0553
13135W        W29029   2.384   0.118   2.910  0.1382  0.3071  0.0459
13136W        W29030  11.760  15.066   3.142  0.0734  0.0808 -0.0884
13137W        W29031   2.005   6.466  13.142  0.1877 -0.0370  0.4990
13138W        W29032   1.467  15.318  12.863 -0.2775  0.2018  0.0090
13139W        W29033   6.068   7.673   4.575 -0.2429  0.2880  0.2475
13140W        W29034   6.467  18.060  15.827  0.4397 -0.0598 -0.0001
13141W        W29035  16.429   8.899  15.969 -0.1547  0.1317 -0.1465
13142W        W29036  14.250   8.892   1.369 -0.1193  0.2192  0.0336
13143W        W29037  13.125   2.193  14.073  0.0027  0.0016 -0.1538
13144W        W29038  17.101  10.367   3.840  0.0382 -0.3255 -0.0834
13145W        W29039  15.202   6.654  15.519  0.2704  0.1079  0.2928
13146W        W29040  15.032   7.221   4.041 -0.3173  0.2603  0.4812
13147W        W29041  12.457   6.356   2.350 -0.0206 -0.2034  0.0787
13148W        W29042  11.857  17.172   9.996  0.2548 -0.4938  0.1791
13149W        W29043   7.678   5.301   2.183  0.1471 -0.1500 -0.0784
13150W        W29044   1.210   4.697  12.485  0.1898 -0.0606  0.0242
13151W        W29045   8.957   4.071  12.780 -0.0643  0.0470 -0.0773
13152W        W29046   3.159  18.224  12.409  0.0061  0.0481  0.0709
13153W        W29047   9.010  10.132   1.113 -0.2720  0.2071  0.0513
13154W        W29048   1.414   1.085   0.680 -0.2318 -0.0334 -0.0825
13155W        W29049   2.844  17.790   6.006 -0.2034 -0.1853 -0.1147
13156W        W29050   1.642   8.339   5.329  0.3066 -0.1495 -0.1862
13157W        W29051  12.854   0.441   3.815  0.1490  0.0838 -0.3796
13158W        W29052   1.115   5.815  13.844 -0.4447 -0.2591  0.0904
13159W        W29053  17.570  10.920  13.255 -0.3870  0.1212  0.0508
13160W        W29054   3.938  17.089  11.181 -0.0530 -0.3455 -0.0790
13161W        W29055  14.439  16.067  14.359  0.0396  0.0068  0.1055
13162W        W29056   4.379  12.561   3.803  0.0317  0.1475 -0.1184
13163W        W29057   3.166   1.895  10.903  0.0678 -0.2263  0.0852
13164W        W29058   3.328   0.065  12.838  0.1730  0.0696  0.3452
13165W        W29059   3.911   9.282  13.291 -0.0981  0.2691  0.1091
13166W        W29060   5.635   9.702  15.634 -0.2951  0.1976  0.3474
13167W        W29061   4.175  10.048  10.437 -0.1495  0.2536 -0.0767
13168W        W29062   7.430  13.817   3.164 -0.0830 -0.3513  0.0121
13169W        W29063   6.173  17.707   5.561  0.2744 -0.0004  0.0359
13170W        W29064  12.902   7.941   5.488 -0.0675  0.0235  0.2121
13171W        W29065   1.265  10.931   2.723  0.2179 -0.2579  0.3917
13172W        W29066  15.983   3.475  13.029 -0.2249 -0.1546 -0.0759
13173W        W29067  13.221   7.453   3.705  0.0906 -0.0652 -0.0908
13174W        W29068  13.540   1.067   4.462  0.4728  0.3266 -0.3476
13175W        W29069   4.640  12.263   2.779 -0.1267  0.2628 -0.0444
13176W        W29070   1.008  15.047  15.544  0.0586  0.1567 -0.0612
13177W        W29071   3.113   5.392   3.717 -0.0631 -0.0366 -0.2646
13178W        W29072  10.965  17.047  15.993 -0.4313  0.0739  0.2680
13179W        W29073  16.176   9.583   5.227  0.0904  0.0863  0.0149
13180W        W29074   8.103  10.494  14.309  0.0239  0.0001  0.2182
13181W        W29075  16.984   9.710   1.592  0.0831  0.0819  0.2933
13182W        W29076   6.123   8.946  15.846 -0.1341 -0.0947 -0.1582
13183W        W29077   6.161   5.502   3.860 -0.2859 -0.2190  0.1006
13184W        W29078  15.252  16.191   2.574  0.3623 -0.0734 -0.1863
13185W        W29079  15.687   3.017  13.899 -0.1676 -0.0987  0.0316
13186W        W29080   1.126  17.468  11.883 -0.2491 -0.0380  0.4106
13187W        W29081  16.976   8.320   0.194 -0.2034  0.1635  0.2355
13188W        W29082   0.744   3.631  12.032  0.0669 -0.0279  0.2217
13189W        W29083   9.181   2.838   1.145  0.0051  0.2188  0.0943
13190W        W29084   4.676  15.046   3.557  0.1560 -0.0678 -0.0793
13191W        W29085   9.964   6.877   3.263  0.0803  0.0862  0.0718
13192W        W29086   7.261   5.450   1.981  0.1823 -0.0021 -0.1933
13193W        W29087   0.954  11.468  11.785 -0.1836  0.1807 -0.0394
13194W        W29088   9.461   3.668   2.071 -0.0187  0.1391 -0.2247
13195W        W29089   2.711   7.025   3.073 -0.1555 -0.3591  0.3131
13196W        W29090   8.782   8.166   0.536  0.0711 -0.3678 -0.0710
13197W        W29091  14.419   2.610   0.020  0.2671  0.3744  0.0173
13198W        W29092  17.743   9.979   3.110 -0.2566  0.0571  0.1164
13199W        W29093  16.089  18.157  12.498 -0.1633  0.0455  0.1923
13200W        W29094  15.708   4.174   2.451 -0.0876  0.1938  0.0654
13201W        W29095   9.043  15.257   1.932 -0.3160  0.2034  0.0001
13202W        W29096   6.989  16.272   1.273 -0.0198  0.0679  0.0699
13203W        W29097  18.323   6.819   1.819 -0.0915 -0.1474  0.0964
13204W        W29098  15.916  17.651  12.719  0.1595 -0.1103 -0.0938
13205W        W29099   9.316   4.985  12.349 -0.0305 -0.0028 -0.1270
13206W        W29100   7.841  18.067  11.044  0.2627  0.0595 -0.2573
13207W        W29101   3.284  12.655   4.706  0.1059 -0.0550  0.0409
13208W        W29102  15.262   4.866   2.003 -0.2760 -0.0668  0.2284
13209W        W29103  11.232  17.785  11.045 -0.2541 -0.0647 -0.2920
13210W        W29104  13.517   5.302  14.730  0.2066  0.0582 -0.0248
13211W        W29105   8.743   6.682  15.589  0.0853  0.1677 -0.1463
13212W        W29106  16.639  11.176   2.844 -0.2073 -0.3795 -0.1935
13213W        W29107  12.293  13.423  10.769  0.2073  0.2033  0.1347
13214W        W29108   8.989   8.374  13.511 -0.2339  0.2009 -0.1238
13215W        W29109  12.094   0.683  12.804  0.3386  0.0150  0.2877
13216W        W29110  10.517  13.444  14.623 -0.3955  0.2312  0.1468
13217W        W29111   6.300   2.152  13.803  0.1452 -0.0142 -0.0596
13218W        W29112   4.783  17.731   1.258 -0.0267 -0.1125 -0.0850
13219W        W29113   3.405  16.921   0.069 -0.3446 -0.1264  0.1226
13220W        W29114   5.629  17.175  14.923  0.0259  0.0472 -0.2409
13221W        W29115   0.066  11.735   5.836  0.2191 -0.0702 -0.0947
13222W        W29116  18.138  14.637   5.590  0.1287 -0.1008  0.1733
13223W        W29117   3.416   0.341  14.792 -0.1275  0.3340 -0.3326
13224W        W29118  15.067  13.797  15.580 -0.0922 -0.0428  0.3024
13225W        W29119  12.820   0.795  10.921 -0.3652 -0.0217 -0.2327
13226W        W29120  18.206  17.774   3.063  0.1548  0.0009 -0.1701
13227W        W29121   6.069   8.781   4.098  0.1028 -0.1481  0.0712
13228W        W29122   0.298   1.559  11.525  0.2771  0.0707 -0.2630
13229W        W29123  14.003  14.365  14.975 -0.0102 -0.2126 -0.0483
13230W        W29124  13.751  15.292   3.300  0.0125  0.2587  0.0719
13231W        W29125   7.406   1.630   3.115  0.1412  0.1421  0.2070
13232W        W29126   9.669  13.359  15.066  0.1618 -0.0806 -0.5124
13233W        W29127  12.503   2.453  12.345 -0.0031 -0.1845 -0.1152
13234W        W29128   3.127  13.030  11.122  0.1796  0.2283  0.2848
13235W        W29129  15.924  14.540   0.779 -0.1049  0.1263  0.2483
13236W        W29130  11.022   5.532  16.015  0.3260  0.2786 -0.2058
13237W        W29131   7.372   2.874  14.883 -0.0387  0.0881  0.4275
13238W        W29132   5.696   4.706   3.909 -0.0449 -0.7085 -0.1719
13239W        W29133  13.668  16.486   1.011 -0.0601  0.0964  0.2622
13240W        W29134  11.574   2.956  13.878  0.2547 -0.0940 -0.1165
13241W        W29135   4.451   2.508   3.493  0.0238 -0.1382  0.2050
13242W        W29136  12.241   1.923  11.149  0.0019  0.0929  0.1562
13243W        W29137   3.467   7.823   4.405  0.0042 -0.2583 -0.1711
13244W        W29138   0.310   5.724   0.300  0.1262  0.1784 -0.2146
13245W        W29139  14.998   6.173   2.421  0.1047  0.0241 -0.0521
13246W        W29140  18.311  15.672   1.554 -0.3404  0.0968 -0.0898
13247W        W29141  13.946   1.682  12.914 -0.1234 -0.1232  0.0868
13248W        W29142   7.961  15.695   0.125  0.0376 -0.5773 -0.0742
13249W        W29143   4.203  13.615  11.327  0.0266 -0.1268  0.3991
13250W        W29144   9.685  17.756   0.811 -0.1378  0.1147  0.0350
13251W        W29145   5.700  17.850   4.036 -0.0701 -0.1477  0.1131
13252W        W29146   9.273   8.329   0.198  0.1458  0.1717 -0.1243
13253W        W29147  10.327   1.105   4.132  0.1307 -0.1801  0.1068
13254W        W29148  10.708  16.788  13.725  0.0952 -0.0111  0.0255
13255W        W29149   6.279   7.522   0.344 -0.3778 -0.2461 -0.0568
13256W        W29150   1.549   8.090  15.229  0.3053 -0.1298 -0.1386
13257W        W29151   4.356   3.195   4.722  0.1045 -0.3328  0.0513
13258W        W29152  16.105  13.869  16.097  0.1094 -0.1560 -0.2637
13259W        W29153  15.709   5.160   2.251  0.1133  0.2356 -0.0278
13260W        W29154  11.994  15.543   2.928  0.2618  0.0253  0.0424
13261W        W29155  17.119  12.337  11.456  0.1662 -0.0809 -0.2748
13262W        W29156  14.729   3.371   1.280 -0.0599  0.0802 -0.1091
13263W        W29157   2.901   7.141  12.583  0.2440  0.0947 -0.1714
13264W        W29158   2.847  10.397   4.461 -0.1541  0.0056  0.2602
13265W        W29159   7.781  15.933  11.774  0.0890 -0.0829 -0.1874
13266W        W29160  16.593  12.110  11.783 -0.0283  0.0216  0.1343
13267W        W29161   5.067   8.456   4.692  0.0307 -0.3313  0.3832
13268W        W29162  11.521   9.256  15.286  0.0812  0.2815  0.2544
13269W        W29163   1.282  14.605  12.523  0.1121  0.0427 -0.3888
13270W        W29164   4.458   1.689   3.235 -0.3053 -0.0480  0.3088
13271W        W29165   9.582  16.417  14.558  0.1707 -0.1278 -0.0779
13272W        W29166   3.722   7.924  13.987  0.1786  0.0485  0.0519
13273W        W29167  18.315   9.829   3.268 -0.2952  0.1231  0.4375
13274W        W29168   2.272   7.076   3.893 -0.1648 -0.0716  0.1032
13275W        W29169   1.490  18.235   3.088 -0.1464  0.0459 -0.0329
13276W        W29170  17.907  15.116   1.382 -0.1481  0.0135 -0.1433
13277W        W29171  10.259  17.432   1.839 -0.1622  0.0360  0.0906
13278W        W29172   5.531   3.588  13.159 -0.2174 -0.1740  0.1851
13279W        W29173  14.383   7.465   0.898  0.2587  0.0188  0.2326
13280W        W29174   5.112  12.640   0.927 -0.0918  0.3213 -0.3691
13281W        W29175   6.075  17.100   4.725 -0.1371 -0.1236  0.2263
13282W        W29176   1.332   6.418   0.527 -0.2357 -0.1415  0.0718
13283W        W29177   9.313   7.329   2.402 -0.0109 -0.0821  0.2491
13284W        W29178   8.703  13.385   3.407 -0.1257 -0.2644 -0.2691
13285W        W29179   3.720  18.066  11.077  0.2291  0.1941  0.3237
13286W        W29180   1.888   1.128   3.334 -0.0529  0.0887  0.0663
13287W        W29181  13.590  17.975   1.672 -0.1311 -0.0497  0.1243
13288W        W29182  10.967  14.259   1.064 -0.1782  0.2880  0.2521
13289W        W29183   9.103  17.939   1.652  0.0404 -0.1537  0.3393
13290W        W29184   3.311   1.385  15.091  0.0874 -0.0423 -0.1728
13291W        W29185  14.990   6.155  15.115 -0.0216 -0.2279  0.0213
13292W        W29186  18.309   7.250   4.070  0.0836  0.0335  0.1623
13293W        W29187   1.059   6.874   4.064  0.0848 -0.2306 -0.0115
13294W        W29188   7.834  14.565   5.467 -0.4838 -0.2891 -0.3134
13295W        W29189   0.319  14.410   5.828  0.0224  0.2376  0.1640
13296W        W29190  17.286   5.850   1.562  0.0361 -0.1326 -0.1013
13297W        W29191  14.656  11.182  13.010 -0.2731 -0.1983 -0.8393
13298W        W29192  10.432  18.413  15.962 -0.0323 -0.2686  0.1352
13299W        W29193  13.162  11.909  12.024  0.1482 -0.2216 -0.1160
13300W        W29194   9.633  12.728   1.855 -0.1981  0.1508 -0.2830
13301W        W29195   1.915   1.977   1.790 -0.1564 -0.0190 -0.1470
13302W        W29196  12.228  10.412  14.842  0.1641 -0.0730 -0.0083
13303W        W29197  17.056  14.812  15.059 -0.1211  0.0471  0.1359
13304W        W29198  15.199   9.998  11.293  0.1048  0.0105 -0.2755
13305W        W29199   8.790  12.991  14.927  0.1316  0.0817  0.0687
13306W        W29200   2.018   3.943  11.425  0.0265  0.2042  0.0934
13307W        W29201  18.340  17.818  15.191  0.0863  0.1508 -0.0451
13308W        W29202  18.177   0.349  15.360 -0.2865  0.0114 -0.1903
13309W        W29203  15.275   8.986   2.128  0.1818  0.1278  0.4107
13310W        W29204  15.529   3.471  13.717  0.2723  0.0404  0.3142
13311W        W29205   2.854  15.836   5.754 -0.2955  0.1946  0.0085
13312W        W29206  15.509   4.958  13.928 -0.1091  0.0050 -0.2217
13313W        W29207   0.953   4.053  11.959 -0.3003  0.0661  0.3290
13314W        W29208  10.396   8.861  11.354  0.2858 -0.3222 -0.2506
13315W        W29209   5.315   8.997  14.569 -0.1633  0.0329 -0.0535
13316W        W29210  18.354  13.490  14.831  0.3049  0.2073  0.3415
13317W        W29211   2.550  11.310  10.885 -0.2898  0.2986  0.2494
13318W        W29212   8.137  14.182  10.624  0.0475 -0.0491  0.0356
13319W        W29213   7.632   8.086  13.023  0.0619  0.3781  0.2700
13320W        W29214  11.194   7.237   0.751 -0.0829  0.0455 -0.2822
13321W        W29215  11.171  16.211  14.846  0.1870 -0.1439  0.3089
13322W        W29216   3.787  10.010  15.931  0.3167  0.1054  0.0087
13323W        W29217   3.311  15.706   2.950 -0.0537 -0.2656  0.3345
13324W        W29218  11.410   9.955   1.819  0.0847  0.3007 -0.0587
13325W        W29219   4.253  15.582   4.696 -0.0674  0.3271  0.2490
13326W        W29220   6.029   0.908   4.145  0.3650 -0.0367  0.2830
13327W        W29221  17.762  17.731  11.276  0.1006 -0.4313  0.2713
13328W        W29222   6.259  12.016   1.786  0.0878  0.1523  0.1874
13329W        W29223   7.520   4.862   4.864 -0.0862  0.1376 -0.0923
13330W        W29224   5.657   8.562   0.389  0.4351  0.0209 -0.1412
13331W        W29225   8.566   6.199   2.874 -0.1215  0.0290  0.0304
13332W        W29226   1.199  17.915   1.053  0.0916 -0.2604  0.0578
13333W        W29227  12.457   7.444  14.425  0.0291 -0.0649 -0.0569
13334W        W29228  16.080  16.490   1.324  0.0046  0.0881  0.0776
13335W        W29229   2.905  12.555   3.452 -0.1455  0.0590 -0.1950
13336W        W29230   8.484  14.069   3.668  0.2417  0.0716  0.1132
13337W        W29231  11.094   4.419  14.667 -0.0492 -0.2276 -0.1923
13338W        W29232   6.437  13.689  15.697 -0.2372 -0.0767  0.1916
13339W        W29233  14.114   4.760  13.732  0.0497 -0.0197 -0.1398
13340W        W29234  17.737   5.682  14.867  0.0940  0.1186  0.0849
13341W        W29235  13.089  13.049  14.815  0.0264 -0.1021  0.3352
13342W        W29236   1.147  18.196  11.317 -0.0961 -0.0543 -0.1286
13343W        W29237  12.568   8.458  12.804  0.4132 -0.3145  0.0746
13344W        W29238   6.059  16.178   2.545 -0.0411  0.2240 -0.1895
13345W        W29239   0.671  11.822   1.545 -0.2012  0.1264  0.0574
13346W        W29240   5.191   2.728   4.839  0.1193 -0.0660  0.1001
13347W        W29241   8.258  16.053  13.647 -0.3408 -0.1653  0.1025
13348W        W29242   1.675   3.085  15.330 -0.2199  0.1631 -0.2182
13349W        W29243  11.354  12.474  14.043 -0.1712 -0.0364  0.0286
13350W        W29244   4.605  18.147  11.615  0.0088 -0.4547 -0.4961
13351W        W29245  12.147  14.644  12.885 -0.3188  0.0683  0.2929
13352W        W29246  16.595   3.349  14.302  0.1045 -0.0186 -0.0558
13353W        W29247   6.604   7.960  11.250 -0.1304  0.0666  0.1931
13354W        W29248  10.397   6.662  14.954 -0.0542  0.1293 -0.1710
13355W        W29249  10.698   9.570  13.929 -0.2201 -0.1443 -0.0629
13356W        W29250   8.656   5.290  13.513 -0.0769  0.2704 -0.1533
13357W        W29251   8.984   6.731  12.949  0.0144  0.1991 -0.0952
13358W        W29252   9.852  11.773   3.252 -0.1879 -0.2479  0.1750
13359W        W29253   5.247   2.097  12.991 -0.3143  0.2294  0.1347
13360W        W29254  13.189   3.254   4.734  0.0485  0.0535 -0.5363
13361W        W29255  16.437  14.132   2.331  0.1979 -0.0393  0.4535
13362W        W29256  14.886  16.077   1.600 -0.0545  0.3853  0.0214
13363W        W29257  15.616  11.435   0.732  0.0814 -0.0244 -0.5160
13364W        W29258  16.505  10.239  10.887  0.1460  0.2446  0.2038
13365W        W29259  11.250   7.999   2.798 -0.3391 -0.0187 -0.0673
13366W        W29260   4.752  11.292  13.022 -0.0205  0.2789 -0.1275
13367W        W29261   0.016   4.174   4.368  0.0031  0.0829  0.1933
13368W        W29262  17.725  17.708   0.584 -0.2900 -0.2912 -0.0964
13369W        W29263   8.881  12.959   2.673  0.0583 -0.3050 -0.0438
13370W        W29264   4.315  17.758   1.515 -0.0623 -0.0199 -0.0759
13371W        W29265   7.431  10.209   3.127 -0.2881 -0.0149  0.0909
13372W        W29266  10.504  15.400   3.880  0.3092  0.1251  0.0577
13373W        W29267   7.109   1.790   0.585 -0.0596 -0.0257 -0.0444
13374W        W29268   9.532   4.831   1.878 -0.1743  0.0127 -0.3460
13375W        W29269   7.143   3.920  11.035 -0.3149  0.3631 -0.0860
13376W        W29270   1.258   2.892  14.662 -0.4674 -0.1980  0.2486
13377W        W29271  13.990  12.533  16.095  0.2897  0.1121 -0.2478
13378W        W29272  18.006   2.872  12.828  0.1634 -0.1988  0.0677
13379W        W29273  17.717   5.372  14.433 -0.1259 -0.1234 -0.0730
13380W        W29274   4.078   1.038  13.145  0.0314 -0.2531 -0.1526
13381W        W29275  12.733   9.174  12.925  0.1292  0.0246 -0.1782
13382W        W29276   6.774   0.405   4.698  0.0184  0.1616  0.0707
13383W        W29277  18.423   1.366  12.434 -0.2232 -0.0278  0.0866
13384W        W29278  15.287   7.427   0.552  0.1914 -0.0710 -0.1714
13385W        W29279   4.154   7.612   1.263 -0.0402  0.1039 -0.2810
13386W        W29280  11.904   0.780   5.838  0.0154  0.1288 -0.1256
13387W        W29281   7.320   5.867   1.646 -0.2547 -0.0965  0.0094
13388W        W29282   1.110   1.928   0.738  0.3946 -0.2069 -0.0003
13389W        W29283   7.474  14.647  15.851  0.0614  0.1407 -0.2261
13390W        W29284   4.568   0.544   2.995 -0.1210 -0.0853 -0.0071
13391W        W29285   8.615  12.659   4.754 -0.0825 -0.4243  0.3571
13392W        W29286  13.269   8.208  13.250 -0.1156 -0.0803  0.4719
13393W        W29287   5.231   2.631  14.493  0.0279 -0.0161 -0.2051
13394W        W29288   2.438   0.578   4.752  0.1118 -0.0806 -0.0000
13395W        W29289   4.073  14.343  14.280 -0.0837 -0.3450  0.1309
13396W        W29290   3.409   4.914   1.580 -0.0388  0.2254 -0.1858
13397W        W29291   1.265  16.510  15.267  0.0638 -0.1492 -0.0506
13398W        W29292   4.182  12.785   2.941  0.2847  0.1468 -0.3358
13399W        W29293   8.815  12.611   2.172 -0.0961 -0.1059  0.1554
13400W        W29294   6.665   4.365  15.088 -0.2611 -0.1590  0.2465
13401W        W29295  13.704   0.440   0.080  0.0296 -0.3333  0.2934
13402W        W29296  12.780   4.302   2.009 -0.1991  0.1526  0.0364
13403W        W29297  10.606   4.128  11.176 -0.0573  0.2079  0.1323
13404W        W29298   6.086  11.168  13.804 -0.1540 -0.5004  0.0632
13405W        W29299   5.525   7.396   5.191  0.0474 -0.0544  0.1387
13406W        W29300  11.607   1.743  16.099  0.0943  0.1123 -0.0482
13407W        W29301   0.352   2.364  14.810  0.0324 -0.1962 -0.2804
13408W        W29302  17.926   9.277  14.750 -0.1403 -0.5250  0.1530
13409W        W29303   8.540   8.364  14.753  0.0020  0.0871  0.0158
13410W        W29304  17.396   8.799   5.179  0.0245 -0.1727  0.0517
13411W        W29305  10.872   9.805   1.828 -0.1154 -0.0653  0.2530
13412W        W29306   6.463   9.456   4.199  0.2022 -0.0072 -0.0675
13413W        W29307   5.997  12.562   3.861 -0.0993 -0.2328  0.4265
13414W        W29308   0.872  13.281   1.813 -0.2143 -0.1933  0.1348
13415W        W29309  16.253  14.672   5.895 -0.0227  0.4605 -0.1146
13416W        W29310   0.433  17.614   3.975  0.2552  0.0854 -0.0300
13417W        W29311   0.046   5.435  11.906  0.1751  0.1449  0.2890
13418W        W29312  11.009   1.864  14.781  0.0150  0.1181 -0.1204
13419W        W29313   6.463  12.403   3.550 -0.1476 -0.0659  0.0894
13420W        W29314  16.091   8.272   4.960 -0.0313  0.0578 -0.2287
13421W        W29315   9.445   0.420  11.029 -0.0846  0.2666 -0.0301
13422W        W29316  15.391   3.768   6.104  0.2812 -0.0315 -0.3273
13423W        W29317   1.604   0.302   4.441 -0.1413  0.3063  0.1438
13424W        W29318   8.136   3.740   5.499  0.2627 -0.0684 -0.0853
13425W        W29319  14.563  12.756  16.030  0.4060  0.1278  0.1109
13426W        W29320   8.102  15.382   0.924  0.0617  0.0828 -0.1665
13427W        W29321   2.317   1.833  14.201 -0.2683  0.1361  0.1740
13428W        W29322   8.331  16.839   4.136 -0.3608  0.3779  0.1112
13429W        W29323  15.387  15.295   0.534  0.0024 -0.0637 -0.2132
13430W        W29324   2.647   4.857   3.680  0.1085 -0.0421  0.1223
13431W        W29325   1.241   5.947   6.472 -0.0277  0.2460 -0.0925
13432W        W29326  17.379   3.457   1.060  0.0069 -0.3372  0.1018
13433W        W29327   8.239   5.461   2.928  0.4597  0.0474 -0.0800
13434W        W29328  16.322  17.104   3.165  0.1198  0.3725 -0.4350
13435W        W29329   9.977  10.932   3.998 -0.1086  0.0307 -0.2759
13436W        W29330  15.450   0.232   3.835  0.1904 -0.0515 -0.0099
13437W        W29331  10.913   9.590   2.776  0.1210  0.4734 -0.1840
13438W        W29332  12.865   5.745  13.808 -0.1708 -0.2275 -0.0666
13439W        W29333  15.581  13.040   0.397  0.0179 -0.1237  0.0073
13440W        W29334  11.376   6.299   2.341 -0.1856  0.1355  0.1151
13441W        W29335   8.861   7.707  13.050  0.1193  0.2503  0.0801
13442W        W29336   3.571   6.054  13.316 -0.1659  0.0785  0.1618
13443W        W29337  15.246  17.170   2.057 -0.1438 -0.2195  0.2758
13444W        W29338   5.003  16.128   5.262 -0.0506 -0.0509 -0.2214
13445W        W29339   4.170   6.933  15.266 -0.1480  0.0465 -0.1895
13446W        W29340   6.976   0.513   3.439 -0.0569 -0.0952 -0.0178
13447W        W29341   9.296   2.043   3.453 -0.0866  0.1682  0.0602
13448W        W29342   1.403   3.910   1.318  0.2163 -0.2230  0.0046
13449W        W29343   2.286   6.055  14.848 -0.0159 -0.0648 -0.1664
13450W        W29344   4.013   1.849   3.044 -0.3646  0.0144  0.1147
13451W        W29345   6.036   8.074  15.849 -0.1548 -0.2479  0.0559
13452W        W29346  10.470   1.384  13.292  0.2270  0.3329  0.1103
13453W        W29347   7.471   8.124   1.587 -0.0635  0.0694 -0.0700
13454W        W29348   6.107   6.118  15.522 -0.0411  0.3961  0.0400
13455W        W29349   5.851   6.748  13.859  0.0439  0.1960  0.2762
13456W        W29350  13.670  16.823   5.253 -0.0252  0.1875 -0.0231
13457W        W29351   9.971  13.667   5.292 -0.4320 -0.2544  0.0589
13458W        W29352  16.255   5.572  13.693  0.3676 -0.4152  0.0582
13459W        W29353   6.978   9.917   3.207 -0.1533 -0.1437  0.0450
13460W        W29354  15.277   0.494  14.710 -0.6208  0.1384 -0.0093
13461W        W29355   0.100  11.078  13.921  0.2238  0.2999  0.2775
13462W        W29356   9.845  10.979  11.783  0.1219 -0.0093 -0.1805
13463W        W29357   1.839  16.032  11.809  0.1128  0.0341 -0.0009
13464W        W29358  18.319   0.004  11.072  0.2302  0.1079 -0.0285
13465W        W29359  13.258  11.268   3.155 -0.0503  0.0189 -0.0689
13466W        W29360  15.212  12.540   1.120  0.0204 -0.0722  0.2492
13467W        W29361  15.356  17.292   0.224 -0.2676 -0.2793 -0.0214
13468W        W29362  15.249   8.310   5.255  0.1119 -0.0304 -0.1194
13469W        W29363   1.174   1.763   3.816 -0.2694 -0.0284  0.0847
13470W        W29364  13.568   2.735  15.786  0.0596 -0.0038 -0.2472
13471W        W29365  12.381   0.456   1.576 -0.1482 -0.0588  0.1139
13472W        W29366  10.179  12.726   4.174  0.1907  0.2319 -0.0318
13473W        W29367   2.125  12.720   4.701 -0.2145  0.2073  0.0182
13474W        W29368   7.567  18.009  11.679 -0.3604 -0.0611  0.1182
13475W        W29369  10.648   8.550   1.351  0.1188  0.2801 -0.1451
13476W        W29370   6.240   0.959  12.379 -0.0578  0.1715  0.0858
13477W        W29371   0.199   7.853  12.667  0.0717 -0.1706  0.0284
13478W        W29372   9.502   3.233   1.818  0.0379 -0.2430 -0.1332
13479W        W29373   5.362   2.760   5.478 -0.1059  0.1503  0.1933
13480W        W29374  10.806   7.701  11.423 -0.1899  0.1183 -0.1511
13481W        W29375   5.707  17.767   1.324  0.1763  0.0112  0.0807
13482W        W29376  12.182  12.377  13.470 -0.1279  0.0429 -0.2041
13483W        W29377  13.772  14.124  11.927 -0.3444  0.5009 -0.1240
13484W        W29378  17.743   2.281  15.956  0.2489  0.0890 -0.1312
13485W        W29379   5.416  11.115   0.278 -0.0430  0.0398  0.0001
13486W        W29380  11.010   2.918  15.575 -0.1753  0.1690 -0.1281
13487W        W29381  11.333  10.480  13.222 -0.0116  0.0031  0.0273
13488W        W29382   0.909  18.165   0.721  0.1945 -0.2367  0.1614
13489W        W29383  15.947   9.924   2.442  0.1271 -0.0095  0.2826
13490W        W29384   5.593   6.423   4.691  0.0642  0.0445 -0.0826
13491W        W29385   5.371   1.028   3.851 -0.0045 -0.0194 -0.2880
13492W        W29386  15.682   1.917   0.542 -0.0100  0.1625 -0.1319
13493W        W29387   9.343   2.864  15.722  0.1924  0.3860  0.1951
13494W        W29388  10.748  14.654  10.867  0.0862 -0.2653 -0.2661
13495W        W29389  15.258  17.072   4.844  0.2324 -0.1566  0.0124
13496W        W29390   0.118   8.504  12.417 -0.3351 -0.1147 -0.2169
13497W        W29391  17.356   5.038   3.372 -0.0446 -0.3830  0.2149
13498W        W29392   6.118   4.598  15.906  0.0451 -0.1312  0.1511
13499W        W29393   8.386   3.536   4.196 -0.0464 -0.1604 -0.1277
13500W        W29394  17.407  18.185   4.192  0.1106  0.1181  0.0030
13501W        W29395  17.704   8.649   3.814 -0.2016 -0.2718 -0.1681
13502W        W29396  10.996  11.046   2.704 -0.0564  0.1608 -0.0326
13503W        W29397  17.071   5.244  13.621  0.0219  0.1881  0.2883
13504W        W29398  12.130  14.128   1.908 -0.0063  0.1844 -0.0012
13505W        W29399  16.835   2.546  15.381 -0.0459 -0.1054  0.0482
13506W        W29400  11.411  12.566  12.594 -0.2815 -0.2467  0.2278
13507W        W29401  11.824  10.047  14.930 -0.4408 -0.2179 -0.1498
13508W        W29402  10.897  10.432  13.683 -0.4061  0.4169 -0.0192
13509W        W29403   5.639  12.588  13.867  0.0094  0.1465 -0.3961
13510W        W29404  10.892  15.721   4.158 -0.0072  0.2371 -0.1720
13511W        W29405  10.712   7.175  11.679  0.0799  0.2165 -0.1697
13512W        W29406  17.677   6.629  13.607 -0.0784 -0.1635 -0.0798
13513W        W29407  13.654   9.299   5.131 -0.0170 -0.2415  0.3339
13514W        W29408   3.692   6.905   3.325 -0.1334  0.2787  0.2083
13515W        W29409  11.372   5.261   5.482 -0.1654 -0.2177  0.1545
13516W        W29410  16.428  14.373   0.179  0.2122 -0.0596 -0.0469
13517W        W29411  14.817  17.932   3.688  0.1227 -0.2769 -0.0591
13518W        W29412   0.526   5.667  15.173  0.1929  0.0118  0.0184
13519W        W29413  11.061   2.209   3.660  0.2254 -0.1538  0.1799
13520W        W29414   1.679   4.347  11.457 -0.0133 -0.1153 -0.1737
13521W        W29415   3.797  15.591  15.563  0.0027 -0.1407  0.1791
13522W        W29416   7.380   1.476   3.644 -0.0588  0.4969  0.0270
13523W        W29417   2.004  17.722   3.722  0.0216  0.0817  0.1818
13524W        W29418   4.678  16.663  12.960 -0.2556 -0.1404 -0.1091
13525W        W29419  11.671   7.671  11.608  0.1352 -0.1787 -0.0244
13526W        W29420  12.162   7.930  16.036 -0.1158 -0.3064 -0.0008
13527W        W29421   0.495   1.790  13.868 -0.0436  0.2825 -0.3222
13528W        W29422  14.122   2.688   1.218 -0.0026  0.0817  0.2311
13529W        W29423  15.370   0.890  12.926 -0.1512 -0.2903  0.1027
13530W        W29424   6.387   9.663   1.256 -0.0184 -0.3420  0.0151
13531W        W29425   7.418  10.594  10.203 -0.1480 -0.0745  0.2694
13532W        W29426   6.473  12.649  11.841  0.0947  0.0277 -0.1627
13533W        W29427  18.387   4.233   1.363 -0.1243 -0.1087  0.2332
13534W        W29428   5.124  15.888  14.912 -0.1788 -0.1856 -0.0639
13535W        W29429  14.535   1.041   4.628  0.3400  0.1523  0.3437
13536W        W29430  15.650   4.393  14.635  0.4095 -0.0547 -0.2042
13537W        W29431   5.880   0.023   1.896  0.1213 -0.0026 -0.1594
13538W        W29432  17.161  13.875   4.959 -0.0556 -0.2472 -0.0492
13539W        W29433   8.983  16.128   1.552  0.2414 -0.1256  0.0300
13540W        W29434  10.169   5.885   2.971  0.0935 -0.1310 -0.0892
13541W        W29435  11.518  14.175   5.366 -0.2525  0.2869  0.1537
13542W        W29436  12.513   7.049  15.801  0.2675  0.0165 -0.1621
13543W        W29437   7.636  17.793  13.893  0.0878  0.3680 -0.1857
13544W        W29438   6.371  17.511  11.421  0.2895  0.1664  0.2404
13545W        W29439  17.638   5.383   0.253  0.3031 -0.3730 -0.2459
13546W        W29440   9.697   2.497   4.855 -0.4491  0.0713  0.1601
13547W        W29441   0.763   0.488   0.297  0.1964 -0.2283  0.4123
13548W        W29442  14.378   2.316   6.252 -0.2037  0.0578  0.3442
13549W        W29443   4.209  10.616   1.341 -0.2384  0.0291  0.2599
13550W        W29444  14.868  12.288   1.634 -0.1529 -0.1078 -0.1557
13551W        W29445   2.546  11.354  15.259  0.2370  0.0359 -0.4221
13552W        W29446   3.394  13.355   0.234  0.1891  0.0336  0.2011
13553W        W29447   2.070  13.021  13.243 -0.1446 -0.0402  0.0918
13554W        W29448   1.000  16.941   6.117  0.3867 -0.1793 -0.0507
13555W        W29449  12.270   7.703  15.293 -0.2431 -0.2922  0.1749
13556W        W29450   8.239  14.431   0.233 -0.3194  0.0524  0.1271
13557W        W29451   5.672   2.970   3.762  0.1986 -0.1140  0.2990
13558W        W29452  16.137   3.399   0.987 -0.1969  0.2751  0.2657
13559W        W29453   4.873   7.717   4.596  0.3753  0.0005  0.0977
13560W        W29454  13.452  18.309  15.423  0.1726  0.0358  0.3046
13561W        W29455  18.442  10.791   2.189 -0.3534  0.3208  0.0364
13562W        W29456   8.932   3.374  15.404  0.0154  0.1826  0.1689
13563W        W29457  17.140  15.252   0.504 -0.2071 -0.0725 -0.0199
13564W        W29458   5.043  10.371  13.427  0.0877 -0.0768 -0.1888
13565W        W29459   3.209   3.441  15.831  0.1889 -0.2843  0.1052
13566W        W29460   1.235   4.772   4.646 -0.2212 -0.0245 -0.0101
13567W        W29461  14.038   7.804   4.241  0.0213  0.0738  0.2007
13568W        W29462   8.340   3.386   2.650 -0.1587 -0.1362 -0.0241
13569W        W29463   0.494   7.014   5.956 -0.0788  0.2477 -0.0181
13570W        W29464   5.838  14.813  13.167 -0.1838  0.1112 -0.0673
13571W        W29465   8.357  15.121  13.314  0.2801  0.0276  0.3478
13572W        W29466  17.507  18.017  14.500 -0.4417 -0.1607 -0.0181
13573W        W29467  10.200  17.130   3.388  0.3430 -0.1106 -0.0998
13574W        W29468   9.003  10.111  13.069  0.1882 -0.3496 -0.1708
13575W        W29469  10.838  17.810  14.524 -0.1911 -0.0245  0.0630
13576W        W29470  11.672   8.174  12.889  0.1073  0.0992  0.0031
13577W        W29471   9.130   2.409  15.288 -0.1045 -0.0457  0.0887
13578W        W29472  16.712  11.198   3.849  0.0799  0.0365  0.1058
13579W        W29473  10.353  11.629   3.267  0.1951  0.0744 -0.3780
13580W        W29474   1.985  18.345   5.737 -0.0478 -0.1089 -0.1409
13581W        W29475   4.140  18.420  14.068 -0.0973  0.0165  0.1867
13582W        W29476  10.747  17.344  14.672 -0.1791 -0.2221 -0.1337
13583W        W29477   1.919  15.650  14.436 -0.2459 -0.0975 -0.2031
13584W        W29478   6.777   6.404   1.517  0.0164 -0.1790 -0.2376
13585W        W29479  13.594   1.096  12.269 -0.0593 -0.0273 -0.1390
13586W        W29480  16.848  12.081  13.877  0.0979  0.0553  0.1751
13587W        W29481  12.193  10.408   0.795 -0.1402 -0.2534  0.3266
13588W        W29482   0.419  14.644  12.071 -0.1144 -0.0511 -0.1666
13589W        W29483   4.819  14.029   1.084  0.0327  0.0835 -0.1354
13590W        W29484   3.974   0.290   4.718 -0.4416 -0.0187 -0.1321
13591W        W29485   7.390  16.687  14.598 -0.0401 -0.0779 -0.2080
13592W        W29486   0.229  16.773   4.019 -0.2268  0.3050  0.0547
13593W        W29487  12.597  18.018   1.085  0.0579  0.0195 -0.0487
13594W        W29488   9.257   9.455  11.971  0.0317 -0.2928 -0.3680
13595W        W29489  15.221  14.361   4.352 -0.0687  0.2222  0.2105
13596W        W29490   4.942   4.599  15.654  0.0582  0.0658 -0.2622
13597W        W29491  11.913   4.436   4.017 -0.0650 -0.0311 -0.2510
13598W        W29492  11.584   1.799   1.612  0.1257 -0.0381  0.1135
13599W        W29493  10.578   3.301  14.879  0.0948 -0.5186 -0.1117
13600W        W29494   2.082  16.265  10.045  0.0581 -0.1576 -0.1532
13601W        W29495  15.592  12.322  15.657  0.0776 -0.0653 -0.1003
13602W        W29496   5.064  16.699  12.385 -0.0764  0.0033 -0.1040
13603W        W29497   0.156  14.366  13.744 -0.0244 -0.1176 -0.3377
13604W        W29498   6.973  15.158   5.579  0.0552 -0.1372 -0.0752
13605W        W29499  13.888  17.255  15.036 -0.0187  0.1009  0.4469
13606W        W29500  15.753  17.589  13.271  0.1312  0.2571  0.0041
13607W        W29501   6.246   6.024  12.630  0.1656 -0.2191 -0.2640
13608W        W29502   2.711   2.938  14.734  0.2318  0.0267  0.4297
13609W        W29503  11.045  14.725  11.933 -0.0760 -0.1289 -0.4225
13610W        W29504   7.619  15.026  11.542 -0.3346 -0.1686 -0.0766
13611W        W29505   8.117   2.061   3.902  0.2445  0.1731  0.1240
13612W        W29506  14.214   3.843  15.042 -0.0628 -0.1225 -0.0455
13613W        W29507   0.518   3.102   2.221 -0.0319 -0.1887  0.1085
13614W        W29508  18.312  17.438   5.195  0.2528  0.0864 -0.1118
13615W        W29509  12.872   4.303   0.726  0.0435  0.1388 -0.1832
13616W        W29510  12.273   4.916  16.150  0.0787  0.2180  0.1368
13617W        W29511  10.400  15.818  14.326  0.1138  0.2548 -0.0778
13618W        W29512   5.953  18.372  14.784  0.3545 -0.1411 -0.0747
13619W        W29513   7.443  13.814   2.439  0.0893 -0.1419 -0.0003
13620W        W29514  16.373  14.939   1.514  0.0381 -0.2001 -0.2891
13621W        W29515  14.950  12.602   5.633  0.1455 -0.1045  0.0229
13622W        W29516   4.759   2.997   0.386  0.0758  0.1022  0.0660
13623W        W29517  16.370  17.682   5.024  0.3285 -0.3179  0.0846
13624W        W29518   9.822  14.149  12.945  0.0262  0.1446  0.1890
13625W        W29519  11.846  10.366   0.218  0.1628 -0.1456 -0.0273
13626W        W29520  17.605   2.811   4.330 -0.0235 -0.2730  0.1426
13627W        W29521  12.320  17.400   4.153 -0.2793 -0.3026 -0.1767
13628W        W29522  10.085  12.561   0.908  0.0654 -0.1176 -0.0149
13629W        W29523   1.194  11.390  15.260 -0.0559  0.0889  0.0192
13630W        W29524  13.201   1.792  15.291  0.0001 -0.1805  0.3126
13631W        W29525   0.055   6.705  12.192  0.1637  0.0487  0.2663
13632W        W29526   2.149  11.533  15.449  0.1415  0.1277 -0.1542
13633W        W29527  17.079  11.735  11.656  0.0453 -0.1154  0.0673
13634W        W29528  15.874   2.444   4.962 -0.0403  0.2384  0.0137
13635W        W29529   9.675   9.671   4.279 -0.0299 -0.0468  0.1503
13636W        W29530   8.673  15.761   0.225 -0.2351  0.0381  0.1326
13637W        W29531   1.323   6.825  13.913  0.0857  0.0751 -0.0971
13638W        W29532  11.646   7.763   3.039  0.3111 -0.2064  0.0765
13639W        W29533  14.044   7.303   2.896 -0.0918 -0.2435  0.0046
13640W        W29534   2.817   3.292   0.524  0.1548 -0.3382  0.0909
13641W        W29535  15.872   6.916   2.874  0.0675 -0.2074 -0.1518
13642W        W29536   2.089   4.380  13.584  0.1420 -0.0593  0.1890
13643W        W29537  11.482  11.630   4.464  0.0512 -0.0989  0.2698
13644W        W29538   4.707   5.616   2.841  0.1764 -0.0065  0.0620
13645W        W29539   7.751   6.325  10.781 -0.0374 -0.1646  0.3737
13646W        W29540   3.248   7.795   2.115 -0.2218 -0.3311 -0.0308
13647W        W29541   2.784   1.503  12.748 -0.2038 -0.5643 -0.1392
13648W        W29542   7.835   6.742  12.125 -0.3433  0.0281 -0.3991
13649W        W29543   8.571   8.210   1.372 -0.1268  0.0947  0.2216
13650W        W29544  10.610  17.076  10.969 -0.0246 -0.1173  0.0705
13651W        W29545   8.786   0.844  13.916  0.1872 -0.3717  0.1341
13652W        W29546  10.153  13.580   3.805  0.3162  0.0120  0.1183
13653W        W29547   5.927  17.554  12.117  0.0098 -0.0190 -0.2872
13654W        W29548   7.446   7.922   1.058  0.0350 -0.1498  0.0922
13655W        W29549  13.229  12.833   2.514  0.3298  0.0601  0.1181
13656W        W29550  15.087   5.894  14.582 -0.2214 -0.4093 -0.4612
13657W        W29551   6.780  10.911  13.788  0.1156  0.1838 -0.0857
13658W        W29552  16.381   9.886  13.254  0.5519 -0.2230 -0.1649
13659W        W29553   5.542   0.640  11.918 -0.0496 -0.0586 -0.0541
13660W        W29554  11.421   0.798  11.162  0.1503  0.2317 -0.0634
13661W        W29555   8.316  16.921  14.911 -0.0075  0.4128  0.0089
13662W        W29556  18.413  12.412  14.981  0.5337 -0.1174 -0.2391
13663W        W29557  11.183   2.686   2.336 -0.2196  0.2851 -0.3552
13664W        W29558  12.980   9.715  12.119 -0.0892 -0.1558  0.0878
13665W        W29559   1.831   5.310   4.985  0.1198 -0.1069  0.2647
13666W        W29560   4.451  14.031  11.743 -0.1731 -0.3764 -0.1289
13667W        W29561  12.803   3.023  14.050 -0.0192 -0.0462  0.0406
13668W        W29562  17.458   9.103   3.946 -0.3109 -0.2382 -0.1593
13669W        W29563  15.020   6.726   4.050  0.2066 -0.0306  0.1793
13670W        W29564   4.817  17.584   9.973  0.2249 -0.1002 -0.2072
13671W        W29565   0.151   8.475   3.765  0.0881 -0.1229  0.0552
13672W        W29566  15.686   4.652   0.837  0.1612  0.3413  0.3582
13673W        W29567   2.536  16.456  13.423  0.0563  0.0556 -0.0927
13674W        W29568  15.544  17.948   1.387  0.1040 -0.0486 -0.1733
13675W        W29569   0.116   9.751  15.319 -0.0867  0.1167 -0.0961
13676W        W29570   7.483  15.331  10.927  0.1096  0.1268 -0.0784
13677W        W29571   2.195  13.710  12.171  0.0267 -0.1076  0.2281
13678W        W29572  15.112   0.365   0.050 -0.0778 -0.2242  0.1296
13679W        W29573   0.417   4.652  14.223 -0.1172 -0.5222 -0.4424
13680W        W29574  16.186   5.590  15.902 -0.0783  0.3939  0.1788
13681W        W29575   7.861   9.665   3.689  0.2035  0.2356  0.0217
13682W        W29576  14.824   4.430  14.969 -0.0214  0.1147  0.2011
13683W        W29577   9.981   2.361   1.984  0.1023 -0.5222  0.0275
13684W        W29578  13.427   2.482   1.962  0.1348  0.0509 -0.1781
13685W        W29579   2.716  11.284  13.570  0.1398 -0.3509  0.0966
13686W        W29580  12.120  11.761  12.668 -0.1459  0.0463  0.1880
13687W        W29581   6.170  12.156  11.255  0.0565 -0.0165  0.1161
13688W        W29582  13.600   6.988   1.847 -0.2075  0.2902 -0.1274
13689W        W29583   1.073   7.433   0.752 -0.1509  0.0742 -0.1640
13690W        W29584   7.080  17.594  14.776  0.0353  0.0113  0.4112
13691W        W29585  15.518   2.707  14.730  0.2686  0.2112  0.0397
13692W        W29586  14.650   9.723  13.892  0.1756 -0.3186  0.0992
13693W        W29587  15.952  15.879  14.794  0.0157  0.2861 -0.0287
13694W        W29588   2.956  15.005  11.177  0.1988  0.2903  0.0141
13695W        W29589  14.508  14.297   2.430 -0.2383  0.1610 -0.1483
13696W        W29590   1.782  18.253  12.390  0.2072 -0.1001 -0.1793
13697W        W29591  11.804  16.997   5.051 -0.1351 -0.0087  0.0217
13698W        W29592  12.040  13.500  15.901  0.2294  0.0536  0.2738
13699W        W29593  18.053  17.368   2.605  0.1326  0.0396 -0.0656
13700W        W29594   0.840   2.480  15.813 -0.0640 -0.1132 -0.3226
13701W        W29595  12.687   9.660   4.747  0.0134 -0.3140  0.1322
13702W        W29596  14.024   5.049  13.220  0.1355  0.0434 -0.3718
13703W        W29597  11.833   1.083   5.377 -0.0614  0.1166 -0.3314
13704W        W29598   2.981   2.976  15.603  0.2773  0.0175  0.1471
13705W        W29599  13.200   9.073   2.358  0.1234  0.4542 -0.0550
13706W        W29600   4.664  16.337  13.357  0.4383 -0.0021  0.0454
13707W        W29601   8.034   4.598   4.161  0.0450 -0.1675  0.1635
13708W        W29602  12.736  15.799  10.573  0.0878 -0.0553  0.0653
13709W        W29603   9.587   2.050  12.726  0.0707  0.0412  0.1781
13710W        W29604  17.800   2.889  15.282  0.3979  0.0716 -0.0875
13711W        W29605  14.154  17.603   0.246 -0.2269  0.0217 -0.1376
13712W        W29606   5.775  14.247   1.481 -0.2926  0.0332 -0.1428
13713W        W29607  11.849  12.819  10.724 -0.3093  0.0121  0.0467
13714W        W29608   1.216   3.871   0.824  0.2680 -0.2156  0.1321
13715W        W29609  14.219   0.284  13.697  0.0889 -0.0532  0.0840
13716W        W29610  11.051   5.788   0.540  0.2389  0.0118 -0.5602
13717W        W29611  16.922  10.477   4.381 -0.4821 -0.0945 -0.1944
13718W        W29612   2.133  16.670  15.916 -0.2852 -0.3251  0.1237
13719W        W29613   0.659   5.504   4.865  0.2658 -0.1503 -0.0220
13720W        W29614   8.939   5.671   0.709  0.0808 -0.4606  0.3122
13721W        W29615   5.167   8.748   1.952  0.2397  0.3573 -0.2963
13722W        W29616  12.808   8.765  12.455  0.2519  0.0483 -0.1176
13723W        W29617   3.024  13.012  15.123 -0.1296 -0.0564 -0.2082
13724W        W29618  15.306   6.473   1.084  0.1570  0.0040 -0.5108
13725W        W29619  16.837   1.378   3.893  0.1154 -0.2772  0.0303
13726W        W29620  12.080   6.121  11.616 -0.1532  0.0968  0.1291
13727W        W29621  10.488  13.026   3.744  0.1881  0.1689  0.1496
13728W        W29622  14.101   6.011   2.036 -0.1286 -0.0032  0.0429
13729W        W29623  10.457  10.816   4.214 -0.2267  0.1663 -0.2415
13730W        W29624  10.704   6.971  15.831  0.1351  0.3476  0.3156
13731W        W29625  18.314   7.049  16.090 -0.4073  0.0305  0.1925
13732W        W29626  15.772   6.727   0.975 -0.0519  0.0754  0.2651
13733W        W29627   6.094  15.672   1.488 -0.2060 -0.0483  0.0551
13734W        W29628  14.637  15.202   5.238  0.1246 -0.2561 -0.1079
13735W        W29629  15.450   8.501   2.912  0.4079 -0.0300 -0.3430
13736W        W29630  15.877  11.165  15.047 -0.1349  0.2439 -0.0715
13737W        W29631   3.623  15.494   2.127  0.0242 -0.0757 -0.1592
13738W        W29632   3.186   9.902  13.146  0.0033 -0.4974 -0.0803
13739W        W29633   9.428  11.264   0.581 -0.2571 -0.0190 -0.0145
13740W        W29634  10.616   9.954  11.052 -0.0311 -0.1255 -0.2865
13741W        W29635  18.048   5.857  13.157  0.1381 -0.0547  0.1255
13742W        W29636   5.065  13.989   0.021 -0.1037 -0.0233 -0.3152
13743W        W29637   5.430   8.632  13.184  0.3772 -0.0517  0.0850
13744W        W29638   2.554  12.651  11.647  0.0704 -0.0289  0.0444
13745W        W29639   2.412   5.804   5.898 -0.3581  0.0667 -0.0681
13746W        W29640   7.246   4.917  12.383 -0.4625  0.2494 -0.0822
13747W        W29641  11.067  11.926  14.796 -0.0019 -0.2036 -0.0752
13748W        W29642   6.961   3.101  11.863 -0.2791 -0.0870  0.2656
13749W        W29643  11.259   5.706   5.195 -0.1123 -0.0628 -0.3662
13750W        W29644   1.361   0.833  14.215  0.0572  0.0166 -0.1973
13751W        W29645   8.286  15.443  10.490  0.0204  0.0472  0.0172
13752W        W29646  11.764  12.908   3.712  0.1941  0.0910 -0.0666
13753W        W29647   6.476   6.059  14.644 -0.0932 -0.1906  0.1114
13754W        W29648  15.017  14.653   0.048  0.1582 -0.0684  0.3624
13755W        W29649  12.716   7.741   2.878  0.0238  0.0862  0.1283
13756W        W29650   5.442  15.725  12.998  0.3099  0.1267 -0.4322
13757W        W29651   4.693  10.489   1.500 -0.0617  0.0516 -0.0134
13758W        W29652  12.705  11.702   5.366  0.1973 -0.1373  0.0811
13759W        W29653  11.081   6.463   4.177  0.0807 -0.0415 -0.0535
13760W        W29654  13.367   9.395  12.232 -0.0693 -0.0352 -0.1345
13761W        W29655  12.329   6.600  11.800 -0.0744 -0.4185 -0.2320
13762W        W29656  11.691  14.407  14.291  0.0681 -0.2815 -0.3584
13763W        W29657   4.633   1.597  15.419 -0.4973  0.1227  0.0579
13764W        W29658   5.214   7.597  13.570  0.0096  0.1637  0.2771
13765W        W29659  15.151  15.269   2.965 -0.3903  0.3647 -0.1433
13766W        W29660   1.224  14.638   5.266 -0.2348 -0.0492 -0.0615
13767W        W29661   3.394   5.586  13.505 -0.0014  0.1829 -0.0139
13768W        W29662  14.398  16.715  11.937 -0.1662 -0.2039  0.2890
13769W        W29663  16.482   4.804   2.701  0.1855  0.1203  0.0791
13770W        W29664  14.484  12.395  12.471  0.0266  0.0160  0.2944
13771W        W29665  17.782  12.931   2.391 -0.1485  0.1839 -0.2076
13772W        W29666  16.409   2.333   4.197  0.0547  0.0308  0.1700
13773W        W29667   9.979  11.460   3.660  0.1237  0.2530  0.0616
13774W        W29668  15.063  14.776  15.699 -0.0858 -0.3150 -0.0138
13775W        W29669   7.459  18.018   3.405  0.0476 -0.1783  0.2627
13776W        W29670   8.668  11.291   1.638 -0.4294 -0.0109  0.0928
13777W        W29671  16.713   4.315   0.352 -0.0191 -0.2373 -0.0224
13778W        W29672   7.669   6.060   4.113  0.0142 -0.4800  0.0364
13779W        W29673   0.812   7.907   0.095 -0.1494  0.1180  0.1351
13780W        W29674  16.866   8.654  12.562 -0.1210  0.1336  0.1236
13781W        W29675   9.815   9.604  15.681 -0.0028  0.3353 -0.4580
13782W        W29676   6.442   9.623  14.467  0.1241  0.3438 -0.2544
13783W        W29677   1.178   8.919   0.320 -0.2490  0.0764  0.0392
13784W        W29678  11.127   1.247  10.773  0.0300 -0.1226  0.1847
13785W        W29679   0.556   7.904   5.987  0.2388 -0.1714  0.0239
13786W        W29680   8.401  17.229  10.822  0.1640 -0.0845  0.2525
13787W        W29681   6.483  13.107   4.603 -0.1631  0.0806 -0.3912
13788W        W29682   4.430   7.284   3.121 -0.0836 -0.2760 -0.1356
13789W        W29683   7.851  18.305  14.546  0.1913 -0.0133 -0.2953
13790W        W29684  15.638  15.125   4.180  0.1233 -0.0834  0.2623
13791W        W29685  11.762   7.195   2.116 -0.0044  0.0176 -0.2519
13792W        W29686  17.025  16.520   2.802 -0.2438  0.2445 -0.4090
13793W        W29687  10.106   0.918  10.971 -0.0051 -0.1567  0.2246
13794W        W29688   6.349   5.804  13.059 -0.0629 -0.1776  0.1714
13795W        W29689   0.249  11.934  11.523  0.2404  0.2114 -0.3633
13796W        W29690  12.561  16.489   3.939 -0.3105  0.2085 -0.2410
13797W        W29691   7.936   4.668   0.142 -0.0814 -0.3104  0.0727
13798W        W29692  15.357  11.264  11.410 -0.0459 -0.3677  0.0841
13799W        W29693   8.394  17.510  11.253 -0.0934 -0.1692  0.0895
13800W        W29694  16.749   3.350  11.645  0.1791  0.2995  0.0167
13801W        W29695   4.188  12.882   0.375 -0.2928 -0.0844  0.0380
13802W        W29696  13.703   8.780   2.498  0.0164  0.0206  0.1890
13803W        W29697  17.254  15.901  15.372 -0.2511  0.0044  0.0051
13804W        W29698   7.585   7.174   4.068  0.0695 -0.0248  0.0326
13805W        W29699   7.469   2.283   2.998  0.3153  0.3831 -0.1690
13806W        W29700   3.472  17.746  12.337  0.3036  0.3053  0.1532
13807W        W29701  15.987   1.129   3.910  0.2178 -0.0314  0.3116
13808W        W29702   4.945   4.059   0.225  0.1118  0.0900 -0.3744
13809W        W29703   2.116  13.110   2.630 -0.2984  0.0620 -0.2541
13810W        W29704   3.780  10.599   0.482  0.0972 -0.1191  0.1181
13811W        W29705   7.412   8.380  13.864 -0.0886  0.2434  0.7637
13812W        W29706  16.634   1.009  15.569  0.2167  0.0784  0.2155
13813W        W29707  11.884  11.083   0.099  0.4150  0.0623  0.1873
13814W        W29708  15.225  11.559   3.009  0.2323 -0.0887 -0.0438
13815W        W29709  15.609  18.210   5.856  0.0769 -0.0286 -0.0506
13816W        W29710  17.248  15.719   5.087  0.0914  0.3210  0.0037
13817W        W29711  16.895   2.866  15.032 -0.0751  0.1326  0.3953
13818W        W29712   0.548  11.489  11.471  0.2203  0.1616 -0.0302
13819W        W29713  18.307   3.374   0.543 -0.3748 -0.0998 -0.1571
13820W        W29714  14.613   8.563   1.129 -0.0749  0.1284  0.1054
13821W        W29715   9.268  16.677  11.776 -0.0727  0.2415  0.1706
13822W        W29716   4.443  15.577   3.556 -0.2422 -0.0226 -0.1100
13823W        W29717   2.861  16.986  12.826 -0.1172 -0.0254 -0.3285
13824W        W29718   8.135   8.293  13.007  0.3073  0.1613 -0.1114
13825W        W29719  14.408  13.107   1.551 -0.2137 -0.3007 -0.1192
13826W        W29720  17.554  10.416  12.884 -0.0160 -0.0385  0.1199
13827W        W29721  16.987  18.361  12.158  0.1286 -0.1056  0.0086
13828W        W29722  16.473  14.119  15.844 -0.0138  0.0593  0.0198
13829W        W29723  12.541  15.198  13.471 -0.1321  0.1237  0.1361
13830W        W29724   3.454   4.385   2.607 -0.2400  0.1302 -0.1016
13831W        W29725   3.303   6.960   1.885  0.1425  0.3004 -0.2641
13832W        W29726  10.334   2.836  12.325  0.2947 -0.0068  0.1646
13833W        W29727   7.453   2.933   5.619  0.5525 -0.2037  0.0993
13834W        W29728  13.310  16.488  10.880 -0.2504  0.1022  0.2561
13835W        W29729   5.062   1.022   5.200  0.0294  0.0524 -0.1635
13836W        W29730   9.494  14.481   5.097 -0.2953 -0.2679  0.0955
13837W        W29731  15.732   7.701   3.973  0.2408 -0.0696 -0.0370
13838W        W29732   8.147   9.081   2.889  0.0542 -0.1696 -0.2504
13839W        W29733   4.671  10.305  11.983 -0.2003  0.0697 -0.0326
13840W        W29734   2.943   5.652   1.073  0.0990 -0.1009  0.2032
13841W        W29735   3.557   3.474   2.716  0.1675 -0.0475  0.3314
13842W        W29736  13.501   8.457   5.035  0.4317 -0.0661 -0.3217
13843W        W29737  10.963   6.541  15.900 -0.1241  0.2593  0.3634
13844W        W29738   2.744  17.987   5.493 -0.0889  0.0420  0.1194
13845W        W29739   9.702   2.346  13.964 -0.2192  0.2622 -0.1108
13846W        W29740   7.244  13.081   2.583  0.0213 -0.0233 -0.0270
13847W        W29741   5.000  15.601   0.164  0.2117  0.1260  0.0694
13848W        W29742   2.717   1.383   4.197 -0.2413  0.1607 -0.1535
13849W        W29743   6.269  11.668   0.570  0.2180  0.0964 -0.3000
13850W        W29744   2.490   8.777   1.841  0.2406 -0.1037  0.0746
13851W        W29745   5.975  15.117  15.941 -0.0817  0.2692  0.0589
13852W        W29746  17.489  11.337   2.409  0.1952  0.0649 -0.0665
13853W        W29747  11.264  10.871  11.957 -0.0340  0.0049 -0.1799
13854W        W29748   7.632  12.334   0.858 -0.1234  0.1181 -0.1288
13855W        W29749  11.914   6.626  13.140  0.0565 -0.1519  0.0574
13856W        W29750  10.182   4.508  14.096 -0.0485 -0.2260  0.1191
13857W        W29751   7.207  12.696   3.259 -0.1080  0.1675 -0.0853
13858W        W29752   4.892  11.487   4.187 -0.1665 -0.0308  0.0042
13859W        W29753  14.230   9.843  11.568 -0.3965 -0.1200  0.0183
13860W        W29754   9.794   4.576  11.694 -0.1104 -0.1145  0.0464
13861W        W29755  11.157   7.128  14.117 -0.2845 -0.0806 -0.0404
13862W        W29756  10.080   8.963  13.610  0.0173 -0.0604 -0.4815
13863W        W29757   0.163  14.857  15.939  0.0253 -0.2261 -0.2826
13864W        W29758   4.868  17.771   3.120 -0.2811  0.1854  0.0234
13865W        W29759  17.910  18.418  14.066  0.0915  0.0070 -0.3281
13866W        W29760   9.897   9.569   3.301 -0.2222  0.1022 -0.1777
13867W        W29761   7.581   1.400  15.104  0.4068  0.0203 -0.0379
13868W        W29762  18.267  12.033  12.970  0.2236 -0.3295  0.0446
13869W        W29763  17.942   3.488  13.385 -0.0840 -0.0256  0.0872
13870W        W29764  13.902   5.677   0.715 -0.1830  0.2250 -0.1936
13871W        W29765  16.774  10.022   1.991 -0.0467  0.1856  0.1089
13872W        W29766  13.688  18.170  13.918 -0.2029 -0.0213 -0.3051
13873W        W29767  11.006   4.300   5.454  0.1097  0.3845  0.0942
13874W        W29768   6.847  17.394   2.199 -0.1632  0.1120 -0.0729
13875W        W29769  10.499   2.635   3.064 -0.2666 -0.0774  0.2085
13876W        W29770   9.980   9.525   5.490 -0.4494  0.1954  0.1311
13877W        W29771  18.090   0.219   4.772  0.1175  0.3704 -0.0462
13878W        W29772   6.547   5.665   3.628 -0.2063  0.0926  0.0380
13879W        W29773   4.172  10.389  12.500 -0.0409 -0.1378  0.0531
13880W        W29774   6.207   1.771  14.515 -0.3371  0.1337 -0.1040
13881W        W29775  12.788   1.070  14.694  0.1079 -0.0058  0.0800
13882W        W29776  17.683  16.635   2.435 -0.0373  0.0741 -0.1788
13883W        W29777   5.877  14.818   1.179 -0.2194 -0.1931  0.1210
13884W        W29778   5.001   3.155  12.868 -0.1664  0.0427  0.2289
13885W        W29779   8.980   4.232  15.076  0.1577 -0.0821  0.2329
13886W        W29780  12.936  11.168  13.929  0.3593 -0.1012  0.0556
13887W        W29781  13.270  17.227  12.280  0.1669 -0.1501  0.0404
13888W        W29782  17.304   1.393   1.660 -0.1445 -0.0739  0.1230
13889W        W29783  16.110   2.413  13.059  0.2059  0.0017  0.1085
13890W        W29784  17.853   8.043  16.129  0.1487 -0.0737 -0.1797
13891W        W29785   1.285  14.537  15.266  0.0029  0.0473  0.1277
13892W        W29786  16.610   4.126   0.870 -0.2546  0.4351  0.0160
13893W        W29787   2.075   5.940  12.381 -0.0073  0.1462  0.6751
13894W        W29788   8.091   8.536  10.583 -0.0487  0.4487 -0.0947
13895W        W29789   4.898   6.224   5.595  0.2341 -0.1886  0.0396
13896W        W29790   7.110  13.420  14.334 -0.0554 -0.0482  0.0795
13897W        W29791  17.841   0.320   5.335  0.1635  0.0139  0.3137
13898W        W29792  17.508  10.859   2.307 -0.0803  0.0680  0.2187
13899W        W29793  17.159   5.387   0.393 -0.1567 -0.2123 -0.1286
13900W        W29794  15.850  17.045   3.423  0.1744  0.0140 -0.1643
13901W        W29795  13.104  15.849  13.709  0.2519 -0.0291 -0.2030
13902W        W29796   6.977  11.787   1.169 -0.3416 -0.1481  0.1881
13903W        W29797  17.915   6.452   0.998 -0.1675  0.0662 -0.3073
13904W        W29798   2.491   4.195   1.584  0.0785 -0.1941  0.0266
13905W        W29799  17.259  16.931  13.099 -0.2354  0.3369  0.4688
13906W        W29800  16.915   4.393   1.265  0.1020  0.3143 -0.3673
13907W        W29801  10.673   5.803   2.980  0.0373 -0.0752  0.0297
13908W        W29802  17.855  16.236  13.148 -0.2211  0.1261 -0.2085
13909W        W29803  10.147   6.662  14.049  0.1446 -0.3010  0.0129
13910W        W29804   8.946   9.097   4.221  0.0612  0.2879  0.2767
13911W        W29805  10.672  13.111   3.185  0.0868 -0.3193  0.0391
13912W        W29806  10.773  13.934  16.061  0.1055 -0.1670  0.1333
13913W        W29807  16.162   8.892   0.258 -0.3110 -0.1282  0.0317
13914W        W29808  13.493  10.748   4.219 -0.1055 -0.1239  0.0345
13915W        W29809  13.817  16.723   2.215  0.1056  0.0049 -0.0573
13916W        W29810   6.834  10.462   1.739  0.2305  0.1489  0.1265
13917W        W29811   1.217  15.699  15.553  0.2179 -0.2068 -0.0840
13918W        W29812  18.221   7.862  14.753 -0.1295 -0.1158 -0.0907
13919W        W29813   2.556   6.832  13.837  0.0670  0.0684 -0.1964
13920W        W29814   4.528   0.835  15.721  0.0580 -0.0686  0.0116
13921W        W29815  11.691   7.174  14.834  0.0340 -0.1331  0.1803
13922W        W29816  12.193   7.095   0.361 -0.2388  0.0907 -0.1186
13923W        W29817   0.332   7.433   2.963  0.0395 -0.2539  0.0823
13924W        W29818  14.668   2.931   2.177  0.1939  0.0838 -0.1585
13925W        W29819  17.219  16.558   1.689  0.3876  0.0070 -0.1432
13926W        W29820   1.826   6.829   5.427  0.0210  0.1771  0.1054
13927W        W29821   7.308   0.918  15.796  0.0363 -0.1661  0.3616
13928W        W29822  14.151  18.147   1.849  0.0658  0.1892  0.2454
13929W        W29823  17.102  10.209   4.750 -0.2367  0.1440  0.2251
13930W        W29824  15.647  14.905  10.497  0.2449  0.3316  0.1362
13931W        W29825   9.573  14.915  12.952  0.3106 -0.1949 -0.0090
13932W        W29826  15.756   0.539  13.055  0.4260 -0.1610 -0.2821
13933W        W29827   9.675  12.783   4.128 -0.0571 -0.0368  0.0850
13934W        W29828   3.401   7.465  13.109 -0.0615 -0.0287 -0.1731
13935W        W29829   5.532   7.018  15.434 -0.1728  0.1515 -0.0079
13936W        W29830   8.631  10.220  15.331 -0.0972  0.1358 -0.1308
13937W        W29831   4.620   3.464  15.073  0.0515 -0.2340 -0.0239
13938W        W29832  16.937   1.124  13.709  0.2393  0.2199 -0.1254
13939W        W29833   5.226   0.297  11.530 -0.1401 -0.1242  0.0987
13940W        W29834   8.308  11.805   0.780  0.1651 -0.2272 -0.4227
13941W        W29835   7.392   5.759  13.986 -0.4154 -0.3643 -0.2797
13942W        W29836   0.624  11.221  14.628  0.1627 -0.0415  0.3812
13943W        W29837  11.120  13.739   3.765 -0.2714 -0.1892 -0.1351
13944W        W29838   2.869   6.919  15.781 -0.0501 -0.3281 -0.3041
13945W        W29839  17.694   8.871  15.590  0.1850  0.1803  0.0643
13946W        W29840   2.112  18.152   2.440 -0.2533  0.0240  0.0354
13947W        W29841  18.395  17.903  13.091  0.1469 -0.3012  0.1417
13948W        W29842  14.048   8.533   5.739 -0.3721  0.1373  0.3168
13949W        W29843  17.078  14.990  11.080 -0.3575 -0.2062 -0.0800
13950W        W29844   6.318  16.849   1.533  0.0863  0.2478  0.0614
13951W        W29845   6.669   6.188  13.942 -0.0105  0.1991 -0.3399
13952W        W29846   3.704  18.121  14.973  0.2218  0.0044 -0.0004
13953W        W29847   4.921   2.767  11.123  0.2783  0.2550 -0.1451
13954W        W29848  11.788  17.999  13.342  0.4072 -0.1698 -0.0371
13955W        W29849   3.323   0.387   3.357  0.1234  0.1155  0.1456
13956W        W29850  17.194  15.136  12.827 -0.1252 -0.2470  0.3133
13957W        W29851   0.098   8.844  11.405  0.1191 -0.1015  0.0596
13958W        W29852   2.120  17.921  11.259 -0.1121  0.0037 -0.1757
13959W        W29853   0.470  10.614   4.497  0.1312  0.1627  0.1674
13960W        W29854   5.670  18.381   4.022  0.1471  0.0436  0.3236
13961W        W29855   1.594  12.730  13.701 -0.0157 -0.1871  0.0068
13962W        W29856   0.709   3.013   2.988 -0.1737 -0.1700  0.1257
13963W        W29857   3.421  17.324  11.430  0.0968  0.0863 -0.0170
13964W        W29858  10.078   1.230   4.581 -0.1076 -0.0790  0.2026
13965W        W29859  10.355  13.263   0.640 -0.2772  0.2035 -0.1289
13966W        W29860   1.352   6.021  15.060  0.3117  0.0307 -0.3439
13967W        W29861   3.120   3.837  14.534 -0.0524 -0.0073  0.1412
13968W        W29862  17.599   6.683   1.857  0.0181  0.2817  0.0359
13969W        W29863   8.308   1.100  12.312  0.0853  0.0515 -0.4034
13970W        W29864  17.544   7.038  15.295 -0.0323  0.3155  0.1676
13971W        W29865   8.535   8.428  15.397 -0.1560 -0.3122  0.0426
13972W        W29866   6.093   2.515  10.648 -0.0496  0.1812  0.1591
13973W        W29867   4.704   5.398   3.335 -0.2299  0.1352  0.0469
13974W        W29868   6.847   4.748   0.398  0.0231 -0.2212  0.1416
13975W        W29869  14.515   4.407   2.039  0.2122  0.1305  0.1076
13976W        W29870  10.220   9.175   3.999 -0.3780  0.1569 -0.0934
13977W        W29871   2.695   8.886  11.850 -0.2689 -0.1107 -0.0013
13978W        W29872   1.741  10.956   2.681  0.1311  0.0101  0.0762
13979W        W29873   0.890   9.058   3.419  0.4096  0.0763 -0.2759
13980W        W29874  12.097  11.547  10.499 -0.3547  0.0401 -0.2237
13981W        W29875  11.922  12.306   3.792  0.2180  0.0325 -0.2607
13982W        W29876  15.559   0.984  15.557  0.3620 -0.0621  0.0008
13983W        W29877   0.155  18.345  13.241 -0.2232  0.2419 -0.1344
13984W        W29878  14.493   0.282  12.635  0.1053 -0.2919 -0.0113
13985W        W29879  14.267   1.232  13.628 -0.0461 -0.0839  0.0111
13986W        W29880  11.947  14.220   2.798 -0.1604  0.0470  0.2394
13987W        W29881  13.890  13.584  13.627  0.2209 -0.0711 -0.2340
13988W        W29882   0.942   7.582   2.719 -0.1206  0.1726  0.0138
13989W        W29883   8.072   5.489  12.228  0.3598 -0.1889 -0.0868
13990W        W29884   6.523  18.184   1.197  0.2730  0.2297  0.3783
13991W        W29885  15.652  10.370   5.568 -0.0645 -0.1589  0.2281
13992W        W29886   6.343  12.919  15.178 -0.0639  0.1495  0.0418
13993W        W29887   3.970  14.215   1.091 -0.2489 -0.0734 -0.1241
13994W        W29888   5.573  12.585   4.819 -0.1894 -0.2324 -0.0350
13995W        W29889   7.054   7.985  15.662 -0.1011 -0.1415  0.1898
13996W        W29890  13.072  17.864   1.013  0.0133 -0.0585 -0.5223
13997W        W29891  11.571  16.591  11.262  0.2188 -0.2510 -0.2900
13998W        W29892   3.781   3.207   3.165  0.2048 -0.0722 -0.0351
13999W        W29893  15.654   1.561   6.161  0.0163  0.0671  0.2644
14000W        W29894   9.457  16.359   1.431 -0.0817  0.2686  0.1237
14001W        W29895   8.381   6.194   2.408  0.1463 -0.4148 -0.1192
14002W        W29896  12.400  16.193   0.357  0.1664 -0.4474 -0.4468
14003W        W29897   7.879  12.996  14.470 -0.0969  0.0824 -0.1990
14004W        W29898   2.151  13.689  12.808 -0.0236  0.4483  0.0536
14005W        W29899  10.949   3.746  16.040  0.2454  0.0256  0.1266
14006W        W29900  15.864   1.185   2.014  0.5008 -0.1987  0.0136
14007W        W29901  16.746   1.660  15.866 -0.1928  0.3129 -0.0962
14008W        W29902   4.914   8.475  13.031 -0.0268 -0.1748 -0.0306
14009W        W29903   4.126  17.011   6.193  0.0642  0.4440 -0.3280
14010W        W29904  10.025   7.757  11.018 -0.0998 -0.0409 -0.0950
14011W        W29905  11.785   5.120  15.199 -0.0480 -0.0481 -0.0735
14012W        W29906   9.220   2.183  14.113  0.2552  0.3856  0.1238
14013W        W29907   8.484  14.473   2.234  0.0452  0.1853  0.0034
14014W        W29908  11.962  17.405  13.735  0.2001 -0.0861 -0.3684
14015W        W29909  10.220   1.927  11.919 -0.2595  0.1173  0.0014
14016W        W29910  14.484   1.073   0.202 -0.1581 -0.0264 -0.3228
14017W        W29911  12.917   2.221  12.245  0.0369 -0.1410 -0.0355
14018W        W29912  11.898   9.139  11.352 -0.0960  0.1782  0.2103
14019W        W29913   5.089  15.474   3.477  0.0563 -0.1330 -0.0175
14020W        W29914   2.771  11.722   1.649  0.0454  0.1836 -0.0654
14021W        W29915   9.332   3.071   2.726  0.0767 -0.1738 -0.2223
14022W        W29916   8.712   8.684  12.041  0.0168  0.3567  0.0548
14023W        W29917  14.626  14.095  13.438 -0.0910  0.0582  0.1264
14024W        W29918   8.247  15.861   4.151  0.0971  0.0163  0.1290
14025W        W29919  11.087  13.490   1.670 -0.0046  0.0029  0.2137
14026W        W29920  14.865   0.867   3.232 -0.2777  0.1932  0.1523
14027W        W29921  17.499  10.908  12.337 -0.1099  0.2020 -0.3127
14028W        W29922   0.618   0.362   1.586  0.1639  0.0900 -0.3045
14029W        W29923   6.333   6.160   4.677  0.2625  0.2385 -0.1571
14030W        W29924   3.568   0.062   4.898 -0.0256 -0.1707 -0.3649
14031W        W29925  16.370  18.124   0.169 -0.3000 -0.1421 -0.0244
14032W        W29926   6.899  14.881   0.316  0.1144 -0.0562  0.0714
14033W        W29927   8.800   2.637   0.222  0.1166 -0.4958  0.2306
14034W        W29928  14.814  11.860  15.860  0.2809  0.2740 -0.1416
14035W        W29929   9.225  18.353   6.097  0.0127  0.0114  0.1475
14036W        W29930  10.211  17.147   1.373  0.0412 -0.0155 -0.1254
14037W        W29931  17.474  17.950   3.667 -0.0339 -0.2393  0.1104
14038W        W29932  12.153  17.631  13.288 -0.0937  0.1257 -0.2916
14039W        W29933  16.662  17.821  11.500 -0.4405 -0.2314  0.3612
14040W        W29934  16.131  13.545   4.918 -0.1042 -0.1669 -0.0310
14041W        W29935  16.822  15.900  11.142 -0.1600 -0.0286  0.0523
14042W        W29936  11.893   3.865  14.628 -0.1103  0.1202  0.3814
14043W        W29937  10.488   2.070  12.367 -0.0807 -0.3145 -0.5415
14044W        W29938  11.726   2.897   3.285  0.0111 -0.4962 -0.0455
14045W        W29939   1.287   1.045  11.850  0.4155 -0.2040  0.2166
14046W        W29940   5.770   8.847   4.955 -0.2479  0.2744 -0.0564
14047W        W29941   9.388  15.926  14.531 -0.1113 -0.0571  0.1417
14048W        W29942  12.330   9.934   2.357 -0.3833  0.1860  0.1815
14049W        W29943  16.799   8.711  15.039  0.3306  0.1912  0.0742
14050W        W29944  15.015  15.939  15.021  0.1706 -0.1469  0.0996
14051W        W29945  17.708  12.394   0.902 -0.0046  0.0767  0.3130
14052W        W29946   1.545   0.811   0.286 -0.0782  0.2110 -0.4515
14053W        W29947  16.767  18.396   4.216 -0.1132 -0.1936  0.1525
14054W        W29948  17.013  15.787   0.927  0.2637  0.0725  0.0164
14055W        W29949  13.890   6.474   2.819  0.1208 -0.1372 -0.1113
14056W        W29950   3.361   9.618   2.435  0.2184 -0.1005  0.1963
14057W        W29951   0.128   2.594   6.064  0.0234  0.2995 -0.2046
14058W        W29952  16.850  17.267  14.404  0.0185  0.1440  0.0377
14059W        W29953   7.276  10.974  12.929  0.1358 -0.0695  0.0908
14060W        W29954   9.821   3.065   2.835  0.1058 -0.0357  0.2607
14061W        W29955  10.360   1.223  15.183 -0.4155  0.2890 -0.2097
14062W        W29956  16.817   7.356  12.357 -0.0704  0.2934 -0.1199
14063W        W29957  15.059  15.091   0.240 -0.2513  0.0076 -0.2740
14064W        W29958  15.443   8.163  12.503  0.0771 -0.0883  0.1971
14065W        W29959   6.252  10.713   4.104  0.1722  0.1961  0.1679
14066W        W29960   1.122   8.537  14.077  0.1066  0.5382  0.1512
14067W        W29961  14.877  17.794  15.760 -0.1667 -0.1347  0.0035
14068W        W29962  14.684  13.165   3.708 -0.2391  0.2600 -0.4509
14069W        W29963  17.573   3.727   0.680  0.1790 -0.1774 -0.0918
14070W        W29964  11.746  14.290  13.059  0.0148  0.1456  0.0850
14071W        W29965  17.517  11.639  10.336  0.0414  0.0205 -0.1352
14072W        W29966  12.770   5.810   3.626  0.0152 -0.2267  0.0694
14073W        W29967   0.702  10.797   0.193  0.0916 -0.1830 -0.1519
14074W        W29968   1.137  11.042  14.807 -0.2331 -0.0113  0.2380
14075W        W29969   2.191  14.726   1.950 -0.1065 -0.1033 -0.2838
14076W        W29970   0.958   9.699  12.276 -0.0383 -0.2258 -0.1536
14077W        W29971  10.064   8.189   3.218  0.0410 -0.0577 -0.1286
14078W        W29972   2.891   0.551   2.002  0.0614  0.3795  0.0487
14079W        W29973   9.908   8.122  11.359  0.1092  0.4754  0.0122
14080W        W29974   0.763  10.676   4.101 -0.1359 -0.0501 -0.0809
14081W        W29975   0.691  17.912   1.095 -0.1986  0.2006 -0.0342
14082W        W29976  14.253   1.855  11.851 -0.0003 -0.2465  0.0625
14083W        W29977  10.435  12.789   5.189  0.2356 -0.2509  0.2942
14084W        W29978  16.050  15.262   5.817  0.1219  0.1187 -0.0139
14085W        W29979  15.940   1.008   4.485  0.3047  0.1014 -0.2021
14086W        W29980  15.808  14.952  15.185  0.0080  0.0645 -0.1279
14087W        W29981   8.949   6.919   0.728  0.3243  0.1194  0.3416
14088W        W29982   8.733   9.895  13.978  0.1640 -0.1944  0.0125
14089W        W29983   0.276  15.731  14.349 -0.1046  0.0461 -0.1975
14090W        W29984   0.902  16.840  15.155  0.0470 -0.1977  0.2770
14091W        W29985   0.995   6.464   3.331 -0.1390  0.2155 -0.2403
14092W        W29986   8.063  14.093   9.511  0.1484 -0.2465 -0.0415
14093W        W29987  10.351  17.647  15.278  0.0980 -0.1889 -0.0900
14094W        W29988  10.837   5.005   4.101  0.0085  0.0914 -0.0175
14095W        W29989   2.945  17.334   2.981  0.0388  0.1078 -0.0837
14096W        W29990   4.207   5.052  13.835  0.0846 -0.0357 -0.2004
14097W        W29991  18.153   9.275   4.582 -0.2107  0.2244 -0.1018
14098W        W29992   9.948   3.386   3.923  0.3728 -0.0687 -0.1039
14099W        W29993  14.497  18.159  13.213 -0.1834 -0.1254 -0.1889
14100W        W29994  16.892  12.457  15.005  0.3479 -0.4329  0.0636
14101W        W29995   2.215  13.049   1.321 -0.1806  0.0539  0.2099
14102W        W29996  16.992   0.817   1.427 -0.0116 -0.1286  0.0072
14103W        W29997   6.258   0.018   3.244 -0.0620 -0.3671 -0.5275
14104W        W29998   6.868  10.296   4.568  0.3485  0.2472 -0.1158
14105W        W29999   1.249  17.960  11.781  0.2145 -0.1759 -0.0866
14106W        W30000  17.263  12.610   0.728  0.1882  0.1155  0.1829
14107W        W30001   8.424   5.050   1.101  0.0940 -0.3195 -0.0498
14108W        W30002   5.321   2.614   1.468 -0.1233  0.0528 -0.3229
14109W        W30003   9.122   0.435   5.257  0.0473 -0.2445  0.0191
14110W        W30004  14.791   4.199   1.572  0.2369 -0.1661 -0.0348
14111W        W30005  14.212  12.283   3.539 -0.0109 -0.2685  0.0492
14112W        W30006  13.243  15.710   3.254 -0.2257  0.2362 -0.2066
14113W        W30007  18.445  17.179   0.272 -0.0601  0.1870 -0.2728
14114W        W30008   1.821  16.241  15.162  0.0588  0.3916  0.2065
14115W        W30009  18.290  13.960   3.625 -0.0920  0.0765  0.2902
14116W        W30010   4.207  11.978  13.229 -0.1986  0.0257  0.1421
14117W        W30011   2.058  16.250  11.083  0.0912  0.3925 -0.4019
14118W        W30012  18.240  17.670   4.181 -0.0762  0.2322 -0.1114
14119W        W30013   0.364   6.631  15.449  0.0374  0.1458  0.2723
14120W        W30014   2.359   2.857  12.038  0.0589  0.0920  0.0962
14121W        W30015   4.045   5.447   5.484 -0.3234  0.0029  0.1750
14122W        W30016  17.617  14.478   5.507  0.0612  0.1985 -0.1391
14123W        W30017  18.446   2.066   6.057 -0.0049 -0.1657  0.0127
14124W        W30018   6.697   2.914   0.128 -0.0745  0.2160 -0.0375
14125W        W30019  10.924   1.134  11.650 -0.3301 -0.1258  0.0278
14126W        W30020   5.025   2.537  12.731  0.2079  0.0136  0.1865
14127W        W30021  10.819   5.609   4.960  0.0482 -0.2115  0.0977
14128W        W30022  13.246   9.043  11.363  0.1859  0.2630  0.0891
14129W        W30023   7.707   5.224  13.583  0.1129  0.0064  0.2923
14130W        W30024   1.191   6.138  11.330 -0.1274 -0.1257  0.0033
14131W        W30025  12.744  13.053   3.272 -0.1190  0.0092  0.3455
14132W        W30026   9.909  15.179   3.078 -0.1302  0.3295  0.3609
14133W        W30027  11.275  18.294  11.095  0.1442  0.4448 -0.1447
14134W        W30028  12.171   2.093   1.649  0.1730  0.1306  0.3564
14135W        W30029  14.593  14.175   5.565  0.0882 -0.1613 -0.0041
14136W        W30030   8.232  18.403  12.221  0.0154 -0.1119  0.3635
14137W        W30031  16.428  10.801   2.533 -0.1785  0.0726 -0.0603
14138W        W30032  16.789  16.329   3.410  0.1096 -0.1183 -0.2736
14139W        W30033  16.551  13.500   3.102 -0.2695 -0.3181 -0.0418
14140W        W30034   1.486   3.939   2.461  0.1135  0.1484  0.1871
14141W        W30035  15.532  15.051   5.545 -0.0185  0.2102  0.0833
14142W        W30036  13.309   9.572   5.461  0.0981  0.1518 -0.2669
14143W        W30037  14.029   9.604   4.819 -0.1684  0.0573 -0.1489
14144W        W30038   7.927   4.257  13.586  0.3224  0.0497 -0.0727
14145W        W30039   1.794   6.442  14.035 -0.2746  0.2336  0.0278
14146W        W30040  11.051   6.099  15.218  0.1581 -0.1178 -0.3074
14147W        W30041  15.484   0.748  14.223 -0.0839  0.1222 -0.1258
14148W        W30042   4.547   6.212   3.101 -0.0047  0.3273 -0.2437
14149W        W30043  15.948  17.370  10.519 -0.2197  0.0234 -0.0525
14150W        W30044   5.103   2.050   4.456  0.2171 -0.1996 -0.2331
14151W        W30045   9.066   9.560  13.206 -0.1363  0.0146 -0.0670
14152W        W30046   8.480  16.605   0.595 -0.2688 -0.1431  0.0141
14153W        W30047  15.691  12.296   1.114  0.0248 -0.4031  0.0411
14154W        W30048  12.831  13.646  14.410  0.0262 -0.0184 -0.1656
14155W        W30049   0.845  14.419   6.108 -0.0804  0.1212 -0.0875
14156W        W30050  18.272  17.389  13.018  0.0871  0.0627  0.0025
14157W        W30051   7.961   4.158  11.284 -0.3754  0.0367  0.0123
14158W        W30052  17.269  17.580  14.680 -0.2178  0.1737 -0.1386
14159W        W30053  15.719  16.972   1.406  0.0849 -0.0884  0.1068
14160W        W30054   9.248   2.571   4.273  0.4523 -0.0627 -0.0111
14161W        W30055   1.301  15.437   1.494 -0.1117  0.0684  0.2146
14162W        W30056  14.361   7.184  11.433  0.0697  0.0111  0.1827
14163W        W30057  10.523  11.562   3.723 -0.1351  0.2444  0.0763
14164W        W30058   3.343  12.128  13.770 -0.0164 -0.3181 -0.0600
14165W        W30059   5.835   9.963   0.004 -0.0022 -0.0368  0.1110
14166W        W30060  13.041   6.437   3.168 -0.0405  0.0184  0.1031
14167W        W30061   4.164   6.817  14.463  0.1272 -0.0260 -0.1310
14168W        W30062  14.468  15.479  11.498 -0.0976  0.1742 -0.1202
14169W        W30063   9.977   3.051  11.128 -0.4796 -0.2293 -0.1910
14170W        W30064  11.832  14.183  15.206 -0.0435  0.1871  0.0863
14171W        W30065   4.865   2.857  13.227  0.0380  0.0370  0.2766
14172W        W30066  17.267   7.524  13.082  0.2419 -0.1274  0.3620
14173W        W30067   4.569  11.143  11.365  0.2576 -0.2114 -0.4688
14174W        W30068   1.562   7.449  15.021  0.3250 -0.0508 -0.2056
14175W        W30069   9.008  13.929   0.953  0.2391  0.1203 -0.0401
14176W        W30070  18.037  15.148   2.594  0.2766  0.1610 -0.2348
14177W        W30071  18.402  14.818  13.986 -0.0998  0.1637  0.1153
14178W        W30072  13.415  18.099   3.202 -0.2295  0.0125  0.2560
14179W        W30073  14.184   3.711   0.460  0.0331 -0.1280 -0.0396
14180W        W30074   7.922   8.344  15.622 -0.1046 -0.0189 -0.1969
14181W        W30075  13.758   5.479   4.422 -0.0167 -0.3159  0.1877
14182W        W30076  17.396  10.565   1.236 -0.0915 -0.0693 -0.3563
14183W        W30077   9.479   8.111   6.184 -0.2610  0.0465  0.0099
14184W        W30078  16.747   5.217   2.470  0.1397  0.0375 -0.0024
14185W        W30079  10.413  17.659  12.040  0.2227  0.1358 -0.1547
14186W        W30080  15.929  15.173  15.732  0.0037  0.1080 -0.0778
14187W        W30081  10.755  13.925   2.664 -0.0565 -0.0140  0.0185
14188W        W30082   7.920   4.863  11.818 -0.1526  0.0491 -0.1294
14189W        W30083   7.008  13.150   0.116  0.3283 -0.2085 -0.0961
14190W        W30084  17.335   1.495   3.859 -0.0088  0.1077 -0.1182
14191W        W30085   8.398   2.478   1.370 -0.2003 -0.0032 -0.2837
14192W        W30086  10.980   6.888   3.672 -0.2458  0.1517  0.1257
14193W        W30087   1.702   6.860   1.396  0.3592  0.1600  0.0495
14194W        W30088  18.024   6.036  15.223  0.5421  0.0198  0.3191
14195W        W30089  10.917   7.814   4.354  0.1444  0.3408 -0.2163
14196W        W30090   8.081  17.436  13.852 -0.2805  0.1568  0.1480
14197W        W30091   4.545  11.262   4.454  0.1327 -0.0602 -0.0712
14198W        W30092  13.180  15.045   2.682  0.0449  0.1002 -0.1357
14199W        W30093   0.146  10.374  13.364  0.0560 -0.1004 -0.0074
14200W        W30094  10.259   6.889   2.454 -0.2245 -0.1821  0.2983
14201W        W30095   8.581   8.322   5.138  0.0721  0.1292  0.1864
14202W        W30096   1.824   6.990  13.039  0.0102  0.1950 -0.2281
14203W        W30097  14.164   0.151   0.961  0.0401 -0.2557  0.4059
14204W        W30098   8.739  10.448  14.914  0.0809 -0.0217 -0.2559
14205W        W30099   8.017  17.570   0.098  0.0581  0.0533 -0.0055
14206W        W30100   2.454  16.816   0.851 -0.0661  0.0723  0.0554
14207W        W30101  14.936  15.962   5.537 -0.0823  0.2123 -0.2263
14208W        W30102   1.914  13.384   5.056 -0.1045 -0.0500  0.4106
14209W        W30103  15.704  17.416  14.495  0.1663  0.0721 -0.0410
14210W        W30104   5.035   3.126  12.345  0.3028  0.0906 -0.1643
14211W        W30105  17.405   8.003   0.306 -0.1140 -0.1922  0.0824
14212W        W30106  14.097  10.175   1.183  0.3775 -0.3807  0.2794
14213W        W30107   7.395   4.438   0.957  0.2968  0.4222  0.0254
14214W        W30108  17.923   9.998   5.119 -0.0977  0.0608 -0.1341
14215W        W30109  12.289  12.808   0.562 -0.1032  0.0137 -0.0559
14216W        W30110  17.133   6.554   2.173 -0.0105  0.5065 -0.1119
14217W        W30111  13.817   5.243  13.788  0.0446  0.1390 -0.1345
14218W        W30112  14.889   0.265   5.310 -0.0326 -0.0844 -0.1711
14219W        W30113  15.736   5.532  13.867 -0.1127 -0.0718  0.0593
14220W        W30114   2.379   5.970   3.975  0.0819  0.3159  0.1961
14221W        W30115   6.585  16.793  15.138  0.0174 -0.0952  0.1384
14222W        W30116  10.600   3.482   5.065  0.2038  0.0958  0.0280
14223W        W30117   7.445   6.664   3.359  0.1077  0.1604  0.0958
14224W        W30118   5.875   3.915   0.531 -0.0691 -0.0753 -0.1844
14225W        W30119   8.447  13.078  14.566  0.2160  0.1343 -0.1434
14226W        W30120  10.909  14.332  12.226 -0.0704  0.1437 -0.2729
14227W        W30121  10.176  14.321   0.281  0.1636  0.2827 -0.0503
14228W        W30122   0.399   1.349  14.871 -0.0077  0.0093  0.0664
14229W        W30123   6.413   7.453  14.936  0.0285  0.0945 -0.1230
14230W        W30124   0.700   2.533   5.458 -0.1991 -0.0297 -0.2998
14231W        W30125   8.015  15.865   1.230  0.0918  0.2668 -0.0050
14232W        W30126   4.883   1.653  14.683  0.1776 -0.4470 -0.2915
14233W        W30127  13.856   8.089   4.912  0.1352 -0.1120 -0.2996
14234W        W30128   4.678   8.659   1.788 -0.3577  0.1573  0.2115
14235W        W30129   4.460   3.376  15.575 -0.1474  0.4065 -0.0431
14236W        W30130   4.071   9.565  12.924  0.0532 -0.3810  0.0601
14237W        W30131  14.409  14.240   5.121  0.3219  0.0117 -0.2566
14238W        W30132   9.620   1.726   1.188 -0.4547 -0.3976  0.0380
14239W        W30133  15.944  11.022   2.625 -0.0601 -0.1515  0.0299
14240W        W30134   7.060  14.694   2.889 -0.1913 -0.3994  0.0059
14241W        W30135   3.271   4.807  15.727 -0.2499 -0.0584 -0.0764
14242W        W30136  10.575   8.420   0.220  0.0830 -0.2067  0.2114
14243W        W30137  14.407  11.848  12.403 -0.2231 -0.0375  0.0729
14244W        W30138   2.463   9.658   3.505  0.0250  0.2810 -0.0806
14245W        W30139   0.392  12.404   4.536 -0.1609  0.1985  0.1771
14246W        W30140   2.288  13.232   4.672  0.0736 -0.2244 -0.0410
14247W        W30141   3.547  14.037  12.313  0.2417 -0.0193 -0.0134
14248W        W30142  11.590  12.586  11.762 -0.0271 -0.1710 -0.2032
14249W        W30143  16.144   2.038   5.633  0.2207  0.2036 -0.3179
14250W        W30144   3.208   9.174   3.280 -0.0023  0.3287 -0.0656
14251W        W30145  15.241   2.945  16.104  0.0633 -0.0306 -0.0600
14252W        W30146  13.698   4.759  14.003 -0.0067 -0.2422  0.0524
14253W        W30147  15.779  14.767  12.020 -0.1141  0.2377  0.0955
14254W        W30148  15.043   7.157  13.205 -0.2571 -0.0866 -0.1261
14255W        W30149  11.182  15.209  11.910  0.1070 -0.1522  0.0652
14256W        W30150   7.184   0.285   4.982 -0.0554  0.2614 -0.2934
14257W        W30151  10.482   0.016   4.824  0.0218 -0.2407 -0.0867
14258W        W30152   7.300  15.393   4.898  0.0458 -0.1745 -0.2611
14259W        W30153   9.476   8.618   1.522  0.1256  0.2923 -0.0407
14260W        W30154   5.911  14.072  11.262 -0.0221  0.1554  0.2159
14261W        W30155   7.200   3.875   4.571 -0.1778 -0.1213  0.1903
14262W        W30156   7.232  12.523   4.157  0.1524 -0.0117 -0.3011
14263W        W30157  13.081   7.729  13.475  0.0856  0.1923 -0.2608
14264W        W30158  13.752  17.143   0.647  0.0839  0.0600  0.0091
14265W        W30159  11.379  15.863  14.064 -0.0078 -0.0708  0.0967
14266W        W30160  14.898  14.864   3.198 -0.4189 -0.1672  0.1094
14267W        W30161   0.539  17.210  12.947  0.3352  0.0816 -0.0738
14268W        W30162   1.238   7.270  13.526 -0.2087 -0.2333  0.0667
14269W        W30163  12.707  14.738   5.895  0.1294  0.0401  0.1250
14270W        W30164   4.646  11.713   0.750  0.0121 -0.2045 -0.1412
14271W        W30165  11.865   0.100   2.398 -0.1122  0.1982 -0.0283
14272W        W30166  17.556   3.023  12.581  0.0696  0.0229 -0.2119
14273W        W30167   9.504   5.722  16.051 -0.0867  0.1603 -0.4751
14274W        W30168   0.589   1.149  14.290  0.4599  0.1267 -0.0039
14275W        W30169   5.525   7.787   0.065 -0.0458  0.0603  0.1676
14276W        W30170  10.234  15.461   1.263  0.1992  0.0630  0.0738
14277W        W30171  13.827   5.633  14.608  0.0126  0.2117  0.0611
14278W        W30172  14.256   2.807   4.031  0.1167  0.4233  0.3208
14279W        W30173   6.131  11.458   4.296 -0.0362 -0.0417  0.3696
14280W        W30174  17.686   0.575   6.059  0.0993 -0.0729 -0.4261
14281W        W30175   1.829   7.293  11.726 -0.0219  0.0547 -0.1470
14282W        W30176  18.028   6.565   6.029 -0.1444  0.5240 -0.2939
14283W        W30177   2.875  12.136   5.460  0.0982  0.0331 -0.0601
14284W        W30178  13.941  14.601   2.265 -0.1368  0.1299 -0.0375
14285W        W30179   3.502   2.339   3.493  0.1906  0.1819 -0.4634
14286W        W30180  13.562  15.579   4.906  0.1351  0.0277  0.3783
14287W        W30181   3.275   5.655  15.139  0.2286  0.1843  0.0314
14288W        W30182  13.028  14.559  15.883 -0.2136 -0.2526  0.0184
14289W        W30183  13.750   2.852   2.068  0.0246  0.3689  0.0705
14290W        W30184  11.625  15.728  12.230  0.1792 -0.1991  0.0934
14291W        W30185   7.517  16.442  15.676 -0.3240  0.0617 -0.1995
14292W        W30186   4.844   7.638   1.980 -0.1540 -0.0249  0.2893
14293W        W30187   2.000  12.044  12.159  0.1450 -0.1759 -0.2271
14294W        W30188   6.772   0.585   2.941 -0.0914  0.1984 -0.3201
14295W        W30189   4.335   9.262  12.038 -0.1108 -0.3459  0.0215
14296W        W30190   2.322   5.987  11.557  0.0497  0.2143 -0.0194
14297W        W30191  14.289  18.327  12.842 -0.0886  0.1401 -0.1173
14298W        W30192   5.983   9.553  14.255  0.0474  0.0511  0.2001
14299W        W30193   0.144  13.447   3.019  0.0052 -0.1770 -0.0347
14300W        W30194   3.189   1.494   1.047 -0.1059  0.0623  0.1098
14301W        W30195  11.656   2.354   3.562  0.4097  0.1969  0.0721
14302W        W30196   5.265  13.806   0.828  0.4591 -0.3722  0.3132
14303W        W30197  12.100  11.988  10.793 -0.0079  0.1382 -0.0835
14304W        W30198   8.149   7.457  14.285 -0.0874  0.1624  0.0410
14305W        W30199  18.367   8.626   5.039 -0.2523  0.0930  0.0002
14306W        W30200   7.900  12.660  15.371  0.0619 -0.3086 -0.1384
14307W        W30201   6.341  13.727  12.105  0.1886  0.2384  0.1553
14308W        W30202   3.599   0.498  10.899  0.0566 -0.5099  0.2768
14309W        W30203   9.409   4.610  11.452 -0.0671 -0.2199  0.1266
14310W        W30204   3.285  17.347  14.864  0.0862 -0.0448 -0.0126
14311W        W30205  14.448  13.779  10.967  0.2725  0.2698 -0.0049
14312W        W30206   1.581  17.696   0.770  0.0931 -0.2004  0.4186
14313W        W30207   1.553   0.581   0.790 -0.1799 -0.1703 -0.3864
14314W        W30208  17.399  14.735   3.147 -0.0462  0.1644 -0.1205
14315W        W30209   9.705  14.135   0.871 -0.1006  0.1052 -0.0615
14316W        W30210  17.632   3.822   2.973 -0.0289 -0.1307  0.1628
14317W        W30211   8.066  16.687  15.323  0.0912  0.0820 -0.0672
14318W        W30212  12.593   3.735   0.026  0.0745 -0.0651 -0.1066
14319W        W30213   3.396   3.843   1.594 -0.0453  0.0108 -0.1533
14320W        W30214   6.320  17.013  11.559 -0.0028  0.0488 -0.0113
14321W        W30215  13.106   5.965  15.294 -0.0591 -0.1789  0.1909
14322W        W30216   0.762  12.792   0.338 -0.0623  0.0983 -0.3328
14323W        W30217   4.543   3.252  13.136  0.1257  0.0434  0.0751
14324W        W30218   5.453   5.327   5.490  0.0110  0.0806  0.1720
14325W        W30219   5.723  10.716  12.527  0.1713 -0.2523  0.3167
14326W        W30220   0.765  12.684  16.004  0.1207  0.0338 -0.1172
14327W        W30221  16.795   7.076  11.895  0.1616 -0.4251 -0.2800
14328W        W30222   8.876  14.918  13.496 -0.0666  0.6174  0.5778
14329W        W30223  15.553  10.072  14.422 -0.0475 -0.1084 -0.0896
14330W        W30224  18.109  16.596  13.821  0.2979 -0.2143  0.1362
14331W        W30225  12.233   3.615   1.387  0.0824  0.1416  0.0289
14332W        W30226   1.942   1.456  13.527  0.1298 -0.0023  0.1386
14333W        W30227  15.858  10.316  14.739  0.0526  0.0705 -0.0169
14334W        W30228   3.393   4.969   5.173 -0.2046  0.0346 -0.1228
14335W        W30229  12.754  16.920  11.260  0.0763  0.1228  0.1204
14336W        W30230  15.298  12.734   4.661  0.0177 -0.3679 -0.1862
14337W        W30231   3.654  16.694  12.198 -0.1839 -0.0400  0.0806
14338W        W30232  18.080   6.147  16.133  0.3065 -0.1646  0.0777
14339W        W30233  11.995  13.158   4.856 -0.1191 -0.1223 -0.4115
14340W        W30234  16.836   5.771   6.690 -0.0229 -0.3473 -0.1756
14341W        W30235   7.369  12.465  14.312 -0.5524 -0.0833 -0.0893
14342W        W30236   3.415   5.549   5.047 -0.1301 -0.1491  0.0106
14343W        W30237   3.716   0.566   2.660  0.1773  0.1019 -0.0362
14344W        W30238   7.824   7.069  12.778  0.1331 -0.0656 -0.1655
14345W        W30239   7.873   4.982  13.074  0.0512  0.3510  0.3521
14346W        W30240  13.039  14.099  13.679 -0.0650 -0.4519  0.0133
14347W        W30241  17.374  13.338   0.323 -0.2832 -0.0767 -0.0999
14348W        W30242   9.517   6.364  16.042 -0.0195 -0.2046  0.0323
14349W        W30243  17.705  14.327  13.612  0.2947 -0.3197  0.2295
14350W        W30244  13.911   5.365  12.211  0.1272 -0.0259 -0.0974
14351W        W30245   9.213  17.071  14.923 -0.0794  0.3060  0.0408
14352W        W30246  11.138   3.735  14.043  0.3398  0.1878  0.1995
14353W        W30247   3.231   8.615  14.196 -0.1641  0.0645  0.1466
14354W        W30248   7.169  15.292  12.339 -0.0344 -0.1917 -0.0005
14355W        W30249   3.524   7.322   4.295  0.2410  0.1020 -0.2803
14356W        W30250  13.024   2.249   1.089 -0.1616 -0.3053  0.3062
14357W        W30251   0.803  10.530   4.854 -0.2674 -0.0543 -0.0486
14358W        W30252  14.861  17.824  15.166  0.2240 -0.3214  0.3931
14359W        W30253  12.774  14.910  11.591 -0.2536 -0.0112  0.2595
14360W        W30254  17.145   1.700   4.272 -0.2412  0.1942 -0.1999
14361W        W30255  13.719   9.898  13.372 -0.4188 -0.2316 -0.1727
14362W        W30256  18.416   4.907  12.064  0.0529  0.1438  0.0978
14363W        W30257  11.580   1.423   4.119  0.0611  0.0472 -0.3614
14364W        W30258   8.781  11.222   2.444  0.0949 -0.1224 -0.1379
14365W        W30259   3.851   1.462  10.456  0.2386 -0.0521  0.0311
14366W        W30260   4.204  12.096   2.860  0.2978 -0.0777  0.2021
14367W        W30261   5.213   8.004  14.429  0.2255 -0.1345  0.4126
14368W        W30262   9.150   2.849  12.564 -0.1381  0.3879  0.4615
14369W        W30263  10.017   6.664  11.285  0.1416  0.1436 -0.0323
14370W        W30264  14.656   2.689   5.936 -0.1835 -0.0645 -0.0955
14371W        W30265  13.016  10.923   0.276 -0.0830  0.1680 -0.1895
14372W        W30266   0.659  15.614   2.742  0.0107 -0.0476 -0.1901
14373W        W30267  13.725   6.694   0.218  0.2192  0.2098 -0.1168
14374W        W30268  16.488   0.535   2.487  0.3503 -0.1753 -0.0181
14375W        W30269  11.500  11.034   2.520  0.0990  0.0138  0.0961
14376W        W30270   6.465  13.688   3.088  0.0946  0.1530 -0.1570
14377W        W30271   8.001  14.851   4.304 -0.0792  0.1946  0.0544
14378W        W30272   3.035   1.237   3.682 -0.0142  0.0063 -0.1319
14379W        W30273   0.036   4.096   3.430 -0.1524  0.1589  0.1402
14380W        W30274   9.325  13.869  12.558 -0.0811  0.3311  0.2696
14381W        W30275   3.582   0.354  11.748 -0.2355  0.2549  0.0199
14382W        W30276   6.062   9.244   0.086 -0.1093 -0.0271  0.0595
14383W        W30277   8.209   0.221   3.273 -0.0168  0.1147  0.0453
14384W        W30278   9.785   6.284   0.701 -0.0086  0.0068  0.1956
14385W        W30279  15.339   7.504  11.291  0.0183  0.1615 -0.1346
14386W        W30280  13.910   5.849   0.266  0.1297  0.1214 -0.3245
14387W        W30281  11.645   3.851  14.160  0.0297 -0.1695 -0.0609
14388W        W30282  17.502   6.199  12.309 -0.0961 -0.0639  0.3112
14389W        W30283  17.834   5.373  12.686  0.3131 -0.3288 -0.1295
14390W        W30284   6.304   3.621   1.925 -0.4575 -0.0537  0.3287
14391W        W30285  13.828   8.999  12.722 -0.2091 -0.3125 -0.2960
14392W        W30286  12.519   3.388   0.562 -0.0322 -0.3249 -0.2174
14393W        W30287   3.131  16.239   0.542  0.0502 -0.2160  0.1823
14394W        W30288  15.148  12.741  12.929  0.0772 -0.4095  0.1574
14395W        W30289   2.252   0.056   1.282 -0.0405  0.3482 -0.1882
14396W        W30290   8.478   6.233   1.915 -0.0025  0.2757 -0.4036
14397W        W30291  10.537   7.681   4.020  0.2782 -0.0495  0.1187
14398W        W30292   2.012   9.759   1.591  0.0835  0.1885 -0.1287
14399W        W30293   6.761   8.937   5.051  0.3982 -0.1343 -0.0300
14400W        W30294  16.399   5.705   3.318 -0.0533  0.1403  0.1664
14401W        W30295   7.295   2.658   4.330 -0.0003 -0.0258 -0.1925
14402W        W30296   8.343   1.207  11.294  0.1959 -0.4218  0.0023
14403W        W30297   5.357  14.752  11.479  0.2955  0.0022 -0.1842
14404W        W30298  13.052   9.395  11.728 -0.0181 -0.1052 -0.0347
14405W        W30299   0.122  13.565  12.772 -0.1226  0.2255 -0.2951
14406W        W30300  13.665   3.554   2.538 -0.2038 -0.3518 -0.0380
14407W        W30301   3.315   8.650   1.351 -0.2598 -0.2125 -0.1282
14408W        W30302   1.428   2.875   2.266 -0.2223 -0.0006  0.1627
14409W        W30303   1.750   9.674   4.981  0.0652 -0.2517  0.1883
14410W        W30304   4.591  14.066  11.137  0.0911 -0.1398 -0.1463
14411W        W30305   4.587  16.953   5.597 -0.1855  0.0782  0.2841
14412W        W30306   1.067   2.908  15.646 -0.3125  0.0933  0.1005
14413W        W30307   7.446  16.746  12.918 -0.0939 -0.1814  0.1680
14414W        W30308   2.363  15.211   1.829 -0.0786  0.1227  0.5359
14415W        W30309  18.275   8.466   1.436 -0.0396  0.2473 -0.0622
14416W        W30310   7.175  17.677  11.764 -0.0531  0.2250 -0.1788
14417W        W30311   6.124   1.538  11.053  0.2636 -0.1057 -0.1200
14418W        W30312  17.299   9.411  13.197 -0.0016 -0.0051  0.1223
14419W        W30313   9.501   4.935  14.568 -0.1603 -0.1028 -0.1155
14420W        W30314   2.500   4.643  15.377 -0.0065  0.1204 -0.0484
14421W        W30315  14.732  13.800   0.396  0.2025 -0.3037  0.3535
14422W        W30316   6.593   1.313   3.263  0.1789 -0.0979  0.1917
14423W        W30317   9.324   4.577  13.616 -0.1659 -0.1919 -0.0832
14424W        W30318   0.757  11.705  15.534  0.3281  0.0075 -0.0961
14425W        W30319   7.732   7.726  12.590 -0.0600 -0.0476  0.0783
14426W        W30320  14.096  16.514  13.484  0.0258  0.1335  0.0683
14427W        W30321  13.793   9.149   1.227 -0.0537 -0.1416  0.4201
14428W        W30322  13.503   3.754   3.003 -0.0457  0.0480 -0.4709
14429W        W30323   6.823   2.209  15.113 -0.1602  0.0767  0.3165
14430W        W30324   2.968   6.739  12.935 -0.4257 -0.1855 -0.2975
14431W        W30325  15.115   2.173   4.726  0.1016 -0.1103 -0.2242
14432W        W30326  10.627   8.398  15.331  0.1673  0.0888 -0.3374
14433W        W30327  13.388   5.342   6.293 -0.2333 -0.4062 -0.0257
14434W        W30328  16.719  13.944  14.158  0.0949  0.1097 -0.0518
14435W        W30329   2.929  11.541   3.255  0.0433 -0.0279  0.1322
14436W        W30330   6.471   8.199  13.941 -0.0905  0.1168  0.0977
14437W        W30331   5.342   6.596  10.378 -0.0752  0.0465 -0.0437
14438W        W30332   5.507   7.412   6.223 -0.0155  0.0257 -0.3621
14439W        W30333   2.417   2.403  15.022 -0.3011  0.1545 -0.1851
14440W        W30334   7.130  12.657  16.117  0.1428  0.0502 -0.1526
14441W        W30335   7.900   7.855   5.026 -0.0693  0.1732 -0.0907
14442W        W30336   9.088  12.501  12.959 -0.1586  0.0124 -0.0841
14443W        W30337  16.098  10.034   5.524 -0.2716  0.1568  0.0231
14444W        W30338  17.957  11.422   3.308 -0.2135 -0.2346 -0.2389
14445W        W30339  16.418   3.904  14.603  0.1545 -0.0587  0.2953
14446W        W30340   1.361   2.364   0.501 -0.0236 -0.0450 -0.0633
14447W        W30341   8.761  13.794   2.762  0.2878 -0.1159  0.0364
14448W        W30342   3.298  17.088  13.657  0.1304 -0.0398  0.1892
14449W        W30343  14.788  17.448   0.797  0.1639 -0.0052 -0.0781
14450W        W30344   4.019  13.315   1.367  0.0089  0.1927 -0.1436
14451W        W30345   1.060  11.877  15.164 -0.0654 -0.0317  0.1441
14452W        W30346   7.748   1.468   1.699 -0.1928 -0.1393 -0.2898
14453W        W30347   5.679  17.336   3.858  0.0387  0.0316  0.1103
14454W        W30348  15.381  15.514  11.707 -0.0469  0.1519  0.1906
14455W        W30349   0.282   4.744   0.325  0.2096  0.0041  0.1130
14456W        W30350   7.545   4.861  15.978 -0.2593 -0.0497 -0.0933
14457W        W30351  10.835   9.670   4.986  0.4294 -0.3544 -0.0221
14458W        W30352   9.787  10.660  14.615  0.0793 -0.1258 -0.3648
14459W        W30353   4.262  13.553   5.385 -0.1017  0.1428 -0.0233
14460W        W30354  11.483   9.815  14.175 -0.2434  0.1338  0.0174
14461W        W30355   3.010  10.212  12.235 -0.1867  0.0256  0.0862
14462W        W30356   8.717  12.092  12.435 -0.2875 -0.1982  0.1667
14463W        W30357   5.305  17.188   2.441  0.0474  0.0902 -0.1904
14464W        W30358   3.257  11.400   0.370 -0.1847  0.0898 -0.0651
14465W        W30359   5.939   1.868   2.678  0.0597  0.2244 -0.2123
14466W        W30360   5.987   1.164   4.575 -0.3580 -0.0065  0.1943
14467W        W30361   2.621   9.549  15.129 -0.3794 -0.3537 -0.1450
14468W        W30362   4.601   7.892  13.632 -0.3864 -0.0871  0.2850
14469W        W30363   8.666   1.240  13.369  0.2312 -0.2084 -0.0557
14470W        W30364  11.294   4.883  15.254 -0.0947 -0.1349  0.0699
14471W        W30365   7.936  10.597   3.249 -0.4176 -0.1212  0.0858
14472W        W30366  14.209   5.869   1.178 -0.1252  0.3507  0.3166
14473W        W30367   4.480   2.701   1.329  0.0666 -0.1803 -0.1424
14474W        W30368   1.075  17.590  13.730 -0.3003 -0.1463 -0.2607
14475W        W30369  12.922   7.722   4.872  0.0598 -0.1090  0.3036
14476W        W30370   5.749  10.340  12.808  0.0068  0.3011 -0.0462
14477W        W30371   8.512  17.362  14.544 -0.0858 -0.1046  0.3685
14478W        W30372  11.096  18.340   3.075  0.0955  0.3496  0.0614
14479W        W30373   9.424  11.182   4.598  0.0250 -0.1858  0.0746
14480W        W30374   8.348  10.480   5.655  0.4104  0.3858 -0.2867
14481W        W30375   9.832   5.930  13.630 -0.0427 -0.0643 -0.0302
14482W        W30376   1.875  11.992  13.102 -0.2953  0.1364  0.2581
14483W        W30377   3.427   5.701   2.366 -0.0918 -0.1729  0.1058
14484W        W30378   2.508  10.520  14.899  0.0083  0.1981  0.0449
14485W        W30379  16.603   5.443   1.109  0.0805  0.1806  0.1137
14486W        W30380  10.797  13.679  13.291 -0.0231  0.0774  0.0850
14487W        W30381  12.077  11.518  11.003 -0.0701  0.1175  0.0065
14488W        W30382   5.659   4.330   0.752 -0.3429  0.0588  0.0319
14489W        W30383   8.074   1.964   9.818 -0.0265 -0.0442  0.2030
14490W        W30384  15.045  10.033   1.671 -0.1751 -0.1967 -0.3746
14491W        W30385  17.869   3.628   1.129  0.2612 -0.2489 -0.0399
14492W        W30386   2.191   8.604  15.900  0.1980  0.1407 -0.1317
14493W        W30387   7.071  12.046   2.706 -0.2952  0.2959  0.0480
14494W        W30388  16.716  12.828   1.955  0.1684  0.2254  0.3907
14495W        W30389  11.071  11.267  14.351 -0.0574  0.0629  0.1139
14496W        W30390  16.709   7.733   3.232 -0.1813  0.1753  0.0973
14497W        W30391  16.644   7.463   2.807  0.1650 -0.0122  0.0580
14498W        W30392   8.570  13.801  12.066  0.0228  0.2426  0.1148
14499W        W30393   0.705   9.300  14.174 -0.0157  0.0336 -0.0930
14500W        W30394   5.212   8.016   5.006 -0.4490  0.1135 -0.0213
14501W        W30395  11.700   0.613  15.764 -0.1025  0.1411  0.1841
14502W        W30396   2.102  10.905   2.238 -0.0952 -0.0741  0.2892
14503W        W30397  11.538  12.579   3.054  0.1794 -0.0559  0.2177
14504W        W30398   0.305  10.830   3.973 -0.3241  0.3172 -0.1692
14505W        W30399  14.761   5.336  13.965  0.1742 -0.0197 -0.0609
14506W        W30400  11.080  12.128   1.953 -0.3797 -0.1159  0.1165
14507W        W30401  16.526   7.685  12.593 -0.0833  0.0127 -0.0612
14508W        W30402   1.120  12.408   3.066  0.0468  0.0774 -0.0279
14509W        W30403   4.072  12.175   4.034  0.3532  0.2285  0.1165
14510W        W30404   1.536   9.343  13.966 -0.0663  0.4897  0.2056
14511W        W30405  17.785   4.729  14.978 -0.0361  0.1214 -0.0788
14512W        W30406  12.280   8.795  11.364 -0.0375  0.1601  0.0395
14513W        W30407   1.728  17.528  14.478 -0.0546  0.3459 -0.2428
14514W        W30408   0.289  11.443  12.581 -0.1318  0.0212 -0.0747
14515W        W30409  10.890   0.639  12.737  0.2081 -0.2295  0.0899
14516W        W30410   6.859   3.854  14.321  0.0087 -0.3958 -0.1055
14517W        W30411  13.504   6.105   5.708 -0.0686 -0.0748 -0.0029
14518W        W30412   5.739  13.981  13.334  0.2634  0.1760  0.0343
14519W        W30413   8.135   3.290  10.546  0.0672 -0.0080 -0.1599
14520W        W30414   1.045  18.396   2.863 -0.1223 -0.0689 -0.0170
14521W        W30415  13.076   5.287  14.421  0.1526 -0.3179 -0.2143
14522W        W30416  14.568  16.897  12.830 -0.0532  0.0403  0.1063
14523W        W30417  17.554  14.203  16.099  0.1979 -0.2816  0.5688
14524W        W30418  14.455   5.204   6.217  0.3308  0.0189  0.1521
14525W        W30419   6.722   1.285  11.816  0.2500  0.5403  0.3507
14526W        W30420   4.512  14.908  12.865  0.1304  0.0978 -0.1389
14527W        W30421   5.320   8.446   2.338  0.0342  0.1570 -0.4011
14528W        W30422  13.828   1.806   2.899  0.1007 -0.1150 -0.1792
14529W        W30423   3.023   1.277   1.582  0.7090 -0.0772 -0.0028
14530W        W30424   1.620   3.427   4.771  0.0372 -0.0273  0.2182
14531W        W30425   9.616   5.725   4.714  0.3510 -0.3536 -0.3527
14532W        W30426  17.192   5.718   5.437 -0.3227 -0.5235  0.2932
14533W        W30427  18.290  12.175  13.872 -0.1399  0.2133 -0.1948
14534W        W30428  11.237   5.271   3.002  0.2605 -0.0647  0.0505
14535W        W30429  11.178   2.427  15.728 -0.1487  0.0585 -0.0143
14536W        W30430   8.587  17.777   3.068  0.1394 -0.0093  0.2567
14537W        W30431  13.691   7.979   1.902  0.0001 -0.1612  0.0453
14538W        W30432  16.363   3.847   2.313 -0.2200  0.1408 -0.0707
14539W        W30433   3.854   3.079  16.036  0.3582 -0.1721  0.0012
14540W        W30434  18.127   5.017  12.603  0.2942 -0.0197 -0.0068
14541W        W30435   2.100  10.455   3.403 -0.1744  0.1434 -0.2142
14542W        W30436   9.811   2.724  14.838 -0.0353 -0.1019 -0.2152
14543W        W30437  12.813   4.464   4.949 -0.1682  0.1789 -0.2620
14544W        W30438  10.449   5.948  12.260 -0.5441 -0.0474  0.0093
14545W        W30439   7.762  11.575  11.890 -0.0185  0.3285 -0.1851
14546W        W30440  17.995   4.941   1.970 -0.0891  0.0889 -0.3692
14547W        W30441  12.429   2.152   3.635 -0.0320  0.0477 -0.1754
14548W        W30442  13.416  14.215   1.562  0.1889 -0.1298  0.2662
14549W        W30443  11.214   9.130  12.916  0.0693  0.3880  0.1758
14550W        W30444   1.519  14.645  14.468  0.2989 -0.0348 -0.0300
14551W        W30445   3.648  13.113  14.646  0.0450 -0.1806  0.0179
14552W        W30446   1.562  16.219  10.963  0.2203 -0.1718 -0.1006
14553W        W30447  10.782  13.587  11.840 -0.2028 -0.2459 -0.3130
14554W        W30448  13.976  18.428   4.345  0.0133  0.0292  0.0617
14555W        W30449   3.883  11.733   3.797  0.0622 -0.0000 -0.7869
14556W        W30450   7.002   8.208   0.375 -0.1180 -0.0193 -0.2381
14557W        W30451   9.669  18.222   1.915  0.1191  0.2672 -0.0578
14558W        W30452   2.301  10.099  15.835 -0.0554  0.1568  0.1672
14559W        W30453   1.498   4.307   2.792  0.1842 -0.1600 -0.1950
14560W        W30454   3.222  11.910  12.192 -0.0477  0.1909  0.0884
14561W        W30455   4.188   4.657   1.037  0.2043 -0.1211  0.0412
14562W        W30456   2.158   1.025   2.340  0.2878  0.1104 -0.1687
14563W        W30457   3.693  16.396  12.941  0.2285  0.4247 -0.0958
14564W        W30458  11.105   3.066  13.695 -0.3099 -0.4792 -0.1228
14565W        W30459   9.445   4.335   2.114 -0.0114  0.2186 -0.3225
14566W        W30460   6.499  10.412  11.748  0.0560 -0.0725 -0.1090
14567W        W30461   8.859   9.773  15.348  0.0875  0.0262  0.0892
14568W        W30462  11.089  16.756   4.313 -0.2541  0.1053 -0.1286
14569W        W30463   1.129   8.543  14.578  0.2183  0.1859 -0.0676
14570W        W30464   0.136  17.577  14.804  0.0702  0.0972  0.5168
14571W        W30465   4.840   4.935   0.854  0.2305 -0.0133 -0.1219
14572W        W30466   1.035   6.513  13.577  0.1319 -0.0732  0.1216
14573W        W30467   6.318  16.186  13.056 -0.2993 -0.0648 -0.1809
14574W        W30468   8.114   4.264  12.125  0.0335 -0.3023 -0.0719
14575W        W30469  12.090  11.787   3.154  0.0475  0.1294 -0.0794
14576W        W30470  11.971  16.574  14.263  0.1923 -0.0248  0.2073
14577W        W30471  12.975  16.766  14.946  0.1764 -0.1110  0.1104
14578W        W30472  17.127   3.905   0.943 -0.2264  0.1540  0.1853
14579W        W30473   7.672   7.115   0.871 -0.0192 -0.2661  0.2734
14580W        W30474   7.725   8.343  13.450 -0.2242  0.2122  0.1170
14581W        W30475   9.863  18.170  11.128 -0.0335 -0.0036 -0.2750
14582W        W30476  12.920  11.585  11.761  0.0071 -0.0013 -0.3206
14583W        W30477  15.179   3.609   1.333  0.0445  0.0838  0.0896
14584W        W30478   1.746   5.532  12.227  0.2608 -0.0571  0.0784
14585W        W30479  10.804   8.823   0.294 -0.0616 -0.0559 -0.0872
14586W        W30480  11.407   5.773  15.643  0.0940  0.2318 -0.1725
14587W        W30481  10.219   3.046  14.156  0.0630  0.1850 -0.1110
14588W        W30482   1.193   9.625   1.479  0.4293 -0.2251 -0.1090
14589W        W30483   6.346   3.209  15.219  0.1601  0.0537 -0.0118
14590W        W30484  10.888  13.879  15.308 -0.0069  0.2909  0.2017
14591W        W30485   1.626   2.471   3.879 -0.0277 -0.2388  0.0349
14592W        W30486  10.117  10.404   5.468  0.5192  0.0784  0.1113
14593W        W30487  17.177  18.388  14.539  0.4071 -0.2201  0.0077
14594W        W30488  11.859   5.977   2.323  0.3901  0.2690 -0.0093
14595W        W30489  10.179   5.065  15.795 -0.1056 -0.2207  0.2664
14596W        W30490  13.428   7.200  14.720 -0.0250 -0.1367  0.1737
14597W        W30491  18.272   5.879  13.667 -0.0753  0.0989 -0.1836
14598W        W30492  13.775  11.245   4.903  0.0133 -0.1013 -0.0300
14599W        W30493  12.207   9.324  13.044 -0.1901 -0.1051  0.1221
14600W        W30494  15.505  15.546   0.115  0.1139 -0.0412 -0.0192
14601W        W30495  10.952   1.618  13.137  0.3010 -0.3471 -0.3589
14602W        W30496   2.861   6.768   4.065  0.4015 -0.2475  0.1512
14603W        W30497   3.211  16.436  13.083 -0.0276  0.1764 -0.0142
14604W        W30498  15.237   8.774   1.145  0.2786  0.3524 -0.2600
14605W        W30499  12.424   5.323   6.317 -0.0231  0.0612  0.0287
14606W        W30500  13.976   4.685  14.994 -0.0170  0.1687 -0.0184
14607W        W30501  10.646   5.076  16.068 -0.1204  0.4082 -0.1421
14608W        W30502   3.178   0.852  15.012 -0.1254 -0.0335  0.1653
14609W        W30503   1.189   4.794  14.471 -0.1276  0.0809 -0.0282
14610W        W30504  16.084   8.894  14.728  0.0011 -0.0792  0.0246
14611W        W30505  17.489  14.972  15.338 -0.3334  0.1338  0.3688
14612W        W30506  13.135   5.337  13.028 -0.2337 -0.0019  0.1272
14613W        W30507  14.716   1.016  11.800  0.3259  0.0194 -0.1926
14614W        W30508  12.277   8.561  15.896 -0.3801 -0.1833 -0.0373
14615W        W30509  13.761  11.820   0.250  0.0296  0.0471  0.1071
14616W        W30510  16.539   6.796   5.179 -0.0646  0.2632 -0.1611
14617W        W30511  15.005  12.219   4.505 -0.0896  0.0025  0.1005
14618W        W30512   8.880   5.024   1.284  0.2878  0.0601  0.2500
14619W        W30513   8.096   4.224  14.947  0.1091  0.0841  0.1891
14620W        W30514   2.212  16.316  11.576  0.2965 -0.0576 -0.3677
14621W        W30515  14.586   0.748   5.073  0.1286  0.0958  0.1217
14622W        W30516  10.931   8.184  14.992  0.1060 -0.2450 -0.0571
14623W        W30517   6.732  17.030  12.428  0.3143  0.0999  0.1123
14624W        W30518   2.473   8.719   3.352  0.1574 -0.1683  0.2439
14625W        W30519   5.395  15.931  14.016  0.0296  0.2450  0.0857
14626W        W30520  14.692   2.836  14.226 -0.0593  0.0835  0.4099
14627W        W30521   8.420  14.745   5.895 -0.1063 -0.1766  0.0960
14628W        W30522   8.361  14.039   4.191  0.4222 -0.2099  0.3292
14629W        W30523  10.337   6.873  13.642  0.0789 -0.0760 -0.0826
14630W        W30524   0.453  11.347   3.937  0.0989 -0.1338  0.3217
14631W        W30525   3.351  11.562  11.777  0.3746 -0.0996 -0.2660
14632W        W30526   8.120  13.103  14.022 -0.1267 -0.0136  0.1629
14633W        W30527  16.115   2.262  11.217  0.0013  0.0032  0.1571
14634W        W30528  18.374  14.253   1.441 -0.2117 -0.1553  0.2725
14635W        W30529   1.088   6.160   1.004 -0.3269 -0.0369  0.3062
14636W        W30530   8.286  15.620   0.515  0.2362  0.1300 -0.0572
14637W        W30531   6.276   2.736   0.317 -0.2071  0.2876 -0.0934
14638W        W30532   9.570   9.873   3.515 -0.1263 -0.0423  0.3446
14639W        W30533  17.221   6.328   5.124 -0.2057  0.0768 -0.0909
14640W        W30534  16.765   3.482   1.081  0.0149 -0.1170  0.0222
14641W        W30535  12.579   8.912   5.376  0.1484  0.0414 -0.0544
14642W        W30536  16.098   0.875  15.738 -0.1146 -0.0520 -0.2146
14643W        W30537  12.911  16.169  14.174 -0.3064 -0.1058 -0.2051
14644W        W30538   7.199  11.691  14.704  0.2179 -0.0024 -0.3470
14645W        W30539  15.993   2.865   2.298 -0.0405  0.1059  0.0840
14646W        W30540   1.924   4.105   2.582 -0.1311 -0.1652  0.1779
14647W        W30541   9.220   5.787   3.220 -0.2809  0.1815  0.1660
14648W        W30542   2.701  16.488  12.919  0.2308  0.0124  0.1922
14649W        W30543  18.170   5.165   4.345  0.0129  0.0440 -0.1701
14650W        W30544   9.038   6.999   2.631 -0.2497 -0.0042 -0.1455
14651W        W30545  16.275   4.630  12.979  0.3573  0.1113  0.0701
14652W        W30546  11.297   0.821  14.931  0.1973  0.1226 -0.2143
14653W        W30547  13.697   0.370   1.235 -0.2468  0.2328 -0.0157
14654W        W30548   7.440   9.647  13.500 -0.2457 -0.1801 -0.2147
14655W        W30549   7.118  16.157   2.292 -0.0307  0.0879  0.1638
14656W        W30550   5.953   2.196  12.437  0.2904 -0.2466  0.0192
14657W        W30551   1.501   2.716   4.869  0.2633  0.2478 -0.2213
14658W        W30552   2.688   6.489   4.851  0.2105  0.2756  0.3817
14659W        W30553   3.390   1.378   2.331  0.0743 -0.1788  0.1995
14660W        W30554   8.613   9.463  15.738  0.0040  0.1146  0.1358
14661W        W30555  10.088  10.434   5.955  0.3965 -0.2959  0.0585
14662W        W30556  14.153  18.249  15.640 -0.2759 -0.0341 -0.0111
14663W        W30557  10.980  10.245  15.484 -0.0213  0.3118  0.1332
14664W        W30558   5.505  11.720  11.366 -0.0427 -0.0911 -0.0781
14665W        W30559  13.943   1.477   4.420  0.2278 -0.0856 -0.0826
14666W        W30560  17.067  15.590  13.171 -0.1307  0.0348 -0.0852
14667W        W30561   3.838   8.488  12.680  0.0102  0.0305 -0.1424
14668W        W30562   4.274   7.292  11.545 -0.1558  0.1014 -0.0579
14669W        W30563  10.370  12.655  14.979 -0.1144  0.1610  0.0660
14670W        W30564   3.552  12.295  12.562 -0.0410 -0.1174 -0.0261
14671W        W30565   2.418  12.886   4.317 -0.1023 -0.0287  0.1891
14672W        W30566   0.303  17.363  16.143 -0.2688 -0.1796 -0.2068
14673W        W30567  11.444   3.961  12.504  0.1288  0.2629  0.0287
14674W        W30568   3.288   0.582  13.431  0.0023 -0.3118 -0.0902
14675W        W30569  13.486  16.450   2.519 -0.2031  0.2024  0.2619
14676W        W30570  17.314   5.786  12.539 -0.0531 -0.4023 -0.0544
14677W        W30571   4.222   1.529  11.780 -0.3072  0.4373 -0.1971
14678W        W30572  10.764   1.935   4.802  0.2577  0.1625 -0.1685
14679W        W30573   6.060   3.228   1.588 -0.3222 -0.1267 -0.2971
14680W        W30574  17.533  14.973   0.582 -0.1495 -0.2785 -0.0928
14681W        W30575   0.925  17.279   1.809 -0.3022  0.1235 -0.1039
14682W        W30576   5.827  13.072  13.287 -0.0621  0.3600  0.3592
14683W        W30577  11.423   4.024   0.933  0.0075  0.0465  0.2638
14684W        W30578   5.052   5.727  15.700  0.2670 -0.0406  0.0236
14685W        W30579   4.741  10.157  13.084 -0.0910  0.0076 -0.1687
14686W        W30580  12.533   6.991  13.028 -0.2862 -0.1399 -0.3902
14687W        W30581  17.426  12.503  15.020  0.1423  0.3308  0.0553
14688W        W30582  12.745   7.521  11.689  0.3562  0.0189 -0.1289
14689W        W30583  16.214   9.844  15.030  0.2326 -0.0140 -0.1301
14690W        W30584  11.001  11.735   4.598 -0.0285  0.0941 -0.2424
14691W        W30585  10.261   1.614  15.510  0.1670 -0.0829 -0.1379
14692W        W30586   0.113   5.248   0.250 -0.0221 -0.3929  0.0321
14693W        W30587   1.450  13.732   6.268 -0.2111  0.0145 -0.2490
14694W        W30588   4.858  16.313  14.641 -0.0759  0.1460  0.2151
14695W        W30589  18.080   8.254  12.487  0.1806  0.0896 -0.1769
14696W        W30590  16.861   0.495   5.384 -0.2065  0.0334  0.0347
14697W        W30591  17.605   6.239  13.868  0.1776 -0.0375  0.1830
14698W        W30592   0.977   3.821   0.389 -0.2304 -0.2058 -0.1456
14699W        W30593  13.714   3.509   4.568  0.1258 -0.1509  0.1105
14700W        W30594   7.460  13.856  13.633  0.0777 -0.1261 -0.0468
14701W        W30595   6.978   5.634  12.396  0.0408  0.2096 -0.0220
14702W        W30596  11.372  11.476  14.728 -0.3309  0.1362 -0.0249
14703W        W30597  17.188   8.581  15.913 -0.0667 -0.2399  0.2650
14704W        W30598   5.804   7.876  11.632 -0.2100 -0.3302  0.0144
14705W        W30599  15.812  17.068   0.082  0.2866  0.1746  0.2174
14706W        W30600   7.405   5.697  12.155 -0.2211  0.1525  0.0774
14707W        W30601  13.191   9.691  13.470  0.0095  0.0711  0.2778
14708W        W30602   8.163   8.501   5.712  0.0812  0.1536  0.2407
14709W        W30603   5.232   7.456  12.480  0.1579  0.1609 -0.2688
14710W        W30604   7.182   7.046   4.316  0.3474 -0.0611 -0.1535
14711W        W30605   7.665   4.327   5.080 -0.1488 -0.2953 -0.0118
14712W        W30606  12.720  15.518  13.814  0.0396  0.6879  0.1507
14713W        W30607  16.047   5.374   0.291 -0.0247  0.2090 -0.1019
14714W        W30608   6.688  16.724   5.209  0.2747  0.0813  0.1528
14715W        W30609   8.204   3.817   3.859  0.0979 -0.5328  0.1403
14716W        W30610   8.056  14.594   1.992 -0.2945 -0.0653 -0.3334
14717W        W30611   5.044   8.544   1.018  0.1526 -0.1009 -0.0231
14718W        W30612  18.242  16.675   4.200 -0.0032  0.2553 -0.1160
14719W        W30613   2.652   7.279   4.218 -0.1141  0.2280  0.1779
14720W        W30614   6.501   6.936  11.215 -0.2446 -0.0785  0.0261
14721W        W30615   5.961   3.827   3.592 -0.0106 -0.0805 -0.0040
14722W        W30616  13.265  16.763  14.540  0.0706  0.4096 -0.1678
14723W        W30617   4.502   2.157   5.829 -0.1466  0.2179  0.1812
14724W        W30618   8.738  16.970   4.456 -0.0222 -0.0203  0.1666
14725W        W30619   8.304   0.741  11.501 -0.0101  0.1746 -0.1119
14726W        W30620   1.434   2.937  14.225 -0.3153  0.2261 -0.1338
14727W        W30621   3.072   7.366   2.860 -0.1631  0.0707  0.3426
14728W        W30622  13.626  14.943   4.105  0.4429  0.2448 -0.0021
14729W        W30623   8.354  10.756   1.600 -0.3134  0.2980  0.0457
14730W        W30624  17.731   3.691  15.839 -0.0105 -0.1511  0.1969
14731W        W30625  14.324  16.246   5.020 -0.2744  0.2556  0.0543
14732W        W30626   5.842   7.157   2.675 -0.1389 -0.0858 -0.0712
14733W        W30627   6.344   0.783  13.244  0.0226  0.2989  0.0845
14734W        W30628  17.419  14.375   2.329 -0.2155  0.1990 -0.0320
14735W        W30629  14.535   7.137   1.259 -0.0088  0.0665  0.1939
14736W        W30630   9.680  11.536   2.434 -0.2767 -0.0092 -0.0678
14737W        W30631   5.355  15.426  16.008 -0.2029 -0.0599 -0.1629
14738W        W30632   2.957   7.491  11.866  0.0559  0.2456 -0.0571
14739W        W30633   7.093   9.151   3.881 -0.1062 -0.0712 -0.2453
14740W        W30634  15.656  16.742   6.462  0.3024 -0.1683  0.0883
14741W        W30635  17.541  16.063   3.214  0.1560 -0.1352 -0.0117
14742W        W30636  13.456  13.858  11.127 -0.2225  0.0966  0.0198
14743W        W30637   4.598  11.602   5.669  0.1499  0.0271 -0.0374
14744W        W30638   0.908   9.809   5.010  0.0087 -0.0202  0.0313
14745W        W30639  13.002   2.171  12.792 -0.1453  0.3085 -0.3489
14746W        W30640  12.701  12.656   5.070  0.1887 -0.2402 -0.0285
14747W        W30641   4.171   7.187   1.627 -0.0477 -0.0761  0.0936
14748W        W30642   5.904  10.110  15.100 -0.4675  0.1842  0.1472
14749W        W30643  13.099  12.877   1.626 -0.0749 -0.0583 -0.0599
14750W        W30644  17.625   9.731   0.996 -0.1228 -0.2592  0.2266
14751W        W30645  14.968  17.540   0.335  0.1128 -0.1966 -0.1068
14752W        W30646   4.818  14.073   0.555 -0.2484 -0.1530 -0.1521
14753W        W30647  18.184  17.995  12.251  0.0945  0.0026  0.1780
14754W        W30648   6.959   7.004  11.913  0.1226 -0.1467 -0.1052
14755W        W30649   9.274  17.512  11.088 -0.0379  0.1220 -0.3796
14756W        W30650  17.824   0.752   1.016  0.2666  0.2975 -0.0340
14757W        W30651  17.166  17.536  14.071 -0.0115 -0.3907  0.1212
14758W        W30652   9.446  16.685  13.193  0.2134 -0.4747  0.0808
14759W        W30653  15.983   9.477  12.733  0.1508 -0.1589  0.0315
14760W        W30654  13.332  14.704   0.162  0.0986  0.2337  0.3399
14761W        W30655  16.275  12.177   2.428 -0.0190  0.1487  0.1193
14762W        W30656   7.914  11.971  12.961  0.2320  0.1102  0.2996
14763W        W30657  18.038  13.250   3.333 -0.0446 -0.2387  0.0544
14764W        W30658  14.159  13.537   1.732 -0.0814 -0.1339 -0.1303
14765W        W30659   7.903  10.853   4.084 -0.1211  0.0138  0.1086
14766W        W30660   5.231   2.262   2.020 -0.1658 -0.1573 -0.0363
14767W        W30661  13.124  18.176  10.946  0.2263  0.0266 -0.2550
14768W        W30662   7.724  15.212  14.682 -0.1029  0.0940 -0.0807
14769W        W30663  11.536  17.957   4.732 -0.1324 -0.1631  0.0935
14770W        W30664  17.056  10.319  11.680 -0.0957 -0.2499  0.3005
14771W        W30665  17.170   4.583  12.479 -0.2120  0.4244 -0.1717
14772W        W30666   6.060  10.326   0.309  0.1602 -0.1087  0.3877
14773W        W30667  12.961  17.625   2.318  0.3645  0.0353  0.0816
14774W        W30668   9.706  14.038   5.096 -0.4227  0.0096  0.0271
14775W        W30669   8.817   1.140  15.741 -0.1156 -0.0332 -0.0488
14776W        W30670  12.523  16.046  14.584  0.2295 -0.0382 -0.2145
14777W        W30671   1.202   6.106   5.473  0.1075  0.0627 -0.2717
14778W        W30672   2.103  12.178  10.089  0.0796 -0.1720  0.0669
14779W        W30673  10.665  16.291  12.952 -0.0305  0.2824 -0.3268
14780W        W30674  10.790  12.434  11.891  0.0955 -0.1265 -0.1496
14781W        W30675   6.408   5.496   0.054  0.5543  0.2270  0.0308
14782W        W30676  16.648   8.278   5.210 -0.1455 -0.1158 -0.1607
14783W        W30677  12.501  11.561  10.778 -0.2822  0.0866  0.2154
14784W        W30678  13.958   7.288  12.497  0.0573  0.1132  0.0177
14785W        W30679   0.057   1.520   1.232  0.2195  0.2572  0.3518
14786W        W30680   0.879  10.099  12.629 -0.0306  0.2726  0.0837
14787W        W30681  12.764   9.740  10.539 -0.2523  0.1377  0.3745
14788W        W30682   3.359  11.111   0.785 -0.0558  0.0899 -0.1370
14789W        W30683  10.253   9.877   1.322 -0.3461  0.1773 -0.1331
14790W        W30684   5.934  13.692   3.811  0.1124 -0.0875  0.0791
14791W        W30685   3.218   1.129   3.160 -0.1546 -0.3815 -0.0186
14792W        W30686   6.988   9.301  15.649  0.0865  0.1848 -0.1153
14793W        W30687   9.844   3.181  14.459  0.0583 -0.0747  0.0729
14794W        W30688   9.488   5.978   5.999  0.0555  0.1712 -0.1026
14795W        W30689  12.684  13.421  12.436 -0.0475  0.1543  0.2058
14796W        W30690   7.266   6.137  14.549  0.1370 -0.2704  0.2378
14797W        W30691  12.549  14.724  10.911 -0.3777  0.2694 -0.1022
14798W        W30692   3.014   8.087  12.519  0.0641  0.2886 -0.4383
14799W        W30693  18.090  18.353  15.084 -0.2077  0.0436 -0.0881
14800W        W30694  15.729  13.680   0.188 -0.2926  0.0208 -0.1703
14801W        W30695   8.386   7.161  11.024  0.0073  0.0621 -0.1448
14802W        W30696  14.840  16.457  14.318  0.0637 -0.2910  0.0614
14803W        W30697  15.314  11.120   0.016 -0.0891  0.1496 -0.0546
14804W        W30698  17.396  16.436  13.199  0.1619  0.3092 -0.0568
14805W        W30699   2.534  12.478   5.250 -0.1639 -0.1055  0.0397
14806W        W30700  13.120   4.046   6.218 -0.1344 -0.2369  0.2829
14807W        W30701  16.870  15.874  13.514  0.2167  0.1728  0.0702
14808W        W30702  17.117   3.204  12.037 -0.2946  0.1268  0.0868
14809W        W30703   4.932   5.207  15.605 -0.2210 -0.1157  0.2053
14810W        W30704  11.942   8.591  13.667 -0.0344  0.1105 -0.0694
14811W        W30705   2.497   9.915  12.234 -0.1014  0.4298  0.1651
14812W        W30706  14.278  17.128  12.242  0.1874 -0.1576  0.2390
14813W        W30707  13.431  13.321   5.036 -0.2483 -0.0219 -0.1434
14814W        W30708  17.720   7.904  11.855 -0.0046  0.3280  0.0569
14815W        W30709   5.552  10.358   0.153  0.2333  0.0735  0.3706
14816W        W30710   6.889   9.667  11.262 -0.2167  0.0192  0.0357
14817W        W30711   0.780  13.993   3.378 -0.2542  0.2809 -0.3370
14818W        W30712   4.318  18.254  15.710  0.1483  0.0396 -0.0852
14819W        W30713   3.732   5.658  11.524  0.3390 -0.1258  0.1760
14820W        W30714   0.868  14.099   2.012  0.0683 -0.0141 -0.0140
14821W        W30715   7.985   7.013  13.969  0.0167 -0.2892  0.2485
14822W        W30716  10.515   4.269   2.840 -0.0887  0.2599  0.0143
14823W        W30717  14.865  13.682   1.050 -0.0045 -0.2020 -0.3682
14824W        W30718   2.916   0.251   2.953 -0.2615 -0.1712 -0.0659
14825W        W30719   6.019  12.504   5.077  0.0967  0.4650 -0.3872
14826W        W30720   4.431   6.469   1.979  0.0333  0.0184 -0.0889
14827W        W30721  15.729  12.482   3.191  0.0162  0.0597  0.0919
14828W        W30722  14.168  16.563  15.839  0.0101 -0.1737  0.0846
14829W        W30723  10.126  17.977  16.118  0.0683 -0.0700  0.2331
14830W        W30724   3.452   5.472  13.022  0.2569 -0.0430 -0.1084
14831W        W30725  15.966   2.976   4.697  0.1178  0.4483  0.0511
14832W        W30726   7.963   8.097   1.238 -0.0343  0.0905  0.4579
14833W        W30727   8.802  11.932  16.032  0.0158  0.0101  0.1985
14834W        W30728  13.300  10.991   5.105  0.0279 -0.0113  0.1571
14835W        W30729  17.974  15.386  11.809  0.4985  0.3482 -0.0823
14836W        W30730   7.676  17.896  12.682 -0.0982  0.0186  0.0343
14837W        W30731   1.801   3.114   1.317  0.1244  0.2154 -0.0841
14838W        W30732   7.383   8.377  15.403  0.4729 -0.2603  0.0512
14839W        W30733  15.346  11.827   5.086  0.1810  0.2807 -0.2448
14840W        W30734  16.771   4.296  14.196  0.2341  0.4256  0.0976
14841W        W30735   7.418  12.963   1.756 -0.3650 -0.1077 -0.1369
14842W        W30736  17.057  14.638   1.228 -0.1820  0.2355 -0.0856
14843W        W30737  14.325   4.364  14.911  0.0944  0.0217  0.0671
14844W        W30738  16.121   1.495  13.217  0.2685  0.0348 -0.2208
14845W        W30739   0.477  15.303   0.062  0.0165  0.1296  0.2432
14846W        W30740   0.016   1.676   5.227  0.0887 -0.1376 -0.1041
14847W        W30741   5.135  11.057   4.154 -0.1835 -0.0473  0.1334
14848W        W30742   7.490  10.610  12.659  0.2050 -0.1024 -0.3853
14849W        W30743  12.119   4.714  15.253  0.1292 -0.0391 -0.2698
14850W        W30744  12.473   1.253   0.257 -0.2136  0.2144 -0.1266
14851W        W30745   2.364  11.699  12.148  0.0945  0.1950  0.4930
14852W        W30746   3.311   7.878   3.352  0.0983 -0.2364 -0.1583
14853W        W30747   4.043   1.457   3.361  0.2170  0.0591 -0.1994
14854W        W30748   3.705   0.951  15.906 -0.0261  0.2518  0.3285
14855W        W30749  11.760   8.265   3.454  0.1388  0.3980  0.0144
14856W        W30750   6.223   1.904   5.983 -0.0161 -0.0605  0.0606
14857W        W30751  10.593   8.077  11.934  0.0233 -0.1028  0.1416
14858W        W30752   3.755  17.475  14.957 -0.0111  0.1193  0.1929
14859W        W30753   8.209   6.208   0.081  0.0965 -0.3663 -0.1497
14860W        W30754  17.053  16.009   2.996 -0.4541  0.3253 -0.1341
14861W        W30755   0.157  12.015   1.616 -0.1403 -0.0049  0.0289
14862W        W30756  12.919   7.127  14.125  0.0760 -0.0505 -0.0884
14863W        W30757  17.854   8.493   0.248 -0.3384  0.1194  0.1406
14864W        W30758  17.914   4.039   4.787  0.1632  0.3765  0.2670
14865W        W30759   5.619  15.482   3.575  0.0993  0.0934  0.3537
14866W        W30760   0.775   0.477   2.047 -0.0421  0.0068  0.2622
14867W        W30761   8.607  14.672  13.073  0.0143  0.1371 -0.3067
14868W        W30762   5.328  11.741   2.013  0.0597 -0.0525  0.1171
14869W        W30763  16.503  17.316  11.573 -0.1729 -0.0314 -0.4024
14870W        W30764   8.289   3.482  11.772  0.1176 -0.0563 -0.2004
14871W        W30765   6.612  10.837  15.741 -0.2833  0.1760 -0.1759
14872W        W30766  15.824   3.742  11.394 -0.0115  0.2257 -0.5976
14873W        W30767  17.857  14.425  14.775  0.0019 -0.3842 -0.0276
14874W        W30768   1.479   5.188   4.596  0.1435  0.1977  0.1152
14875W        W30769   6.381  11.166  14.355  0.1546 -0.1021  0.1362
14876W        W30770   8.222  11.716   4.377 -0.0423 -0.2009 -0.1876
14877W        W30771  12.257   2.592   6.136 -0.0829 -0.2337  0.2709
14878W        W30772   6.567  14.869  10.827  0.0094  0.0123 -0.1742
14879W        W30773   9.129  10.547   4.092 -0.2301 -0.0050 -0.2243
14880W        W30774   6.004   3.293  12.510  0.1777  0.3304  0.3790
14881W        W30775   6.716  11.190   1.139  0.1064  0.1687 -0.0186
14882W        W30776  17.121  11.511   0.035 -0.2224 -0.2145 -0.0878
14883W        W30777   2.430   3.440   2.601 -0.2749 -0.2935 -0.1900
14884W        W30778  18.078   5.871   0.586  0.2231 -0.1407 -0.0921
14885W        W30779  10.833  10.415   1.124 -0.0889  0.0102  0.2686
14886W        W30780   0.641  13.490   3.228 -0.1983  0.2913 -0.1907
14887W        W30781   9.265   3.886   3.984  0.2234  0.2251 -0.0302
14888W        W30782  12.117   2.792  12.495 -0.0798  0.1102 -0.0643
14889W        W30783   5.035   3.601  11.615 -0.2431 -0.3081  0.3862
14890W        W30784  16.104  13.410   4.445 -0.0372  0.1456 -0.0045
14891W        W30785   2.427  13.991   6.013 -0.1957  0.1475  0.0025
14892W        W30786  12.884   3.059  13.007 -0.0420 -0.0453  0.1139
14893W        W30787   5.156   8.379  15.826 -0.0445  0.1376  0.1725
14894W        W30788  14.102   6.841   4.264 -0.3947 -0.2406  0.0932
14895W        W30789  11.839  11.766   3.572  0.0384  0.1009  0.1322
14896W        W30790   1.106  18.199   5.011 -0.1404 -0.2126 -0.0492
14897W        W30791  17.790   7.093  14.411  0.3114 -0.2526  0.0723
14898W        W30792  11.198  14.897   4.302 -0.0376 -0.0255 -0.0891
14899W        W30793  13.832  12.542   1.117  0.0529  0.1621  0.0166
14900W        W30794   4.443  12.609  11.558 -0.0290  0.1435 -0.1222
14901W        W30795   5.892  13.432  11.942  0.1087  0.1710  0.1608
14902W        W30796   8.393   8.942   0.767 -0.0162 -0.0086 -0.2664
14903W        W30797   9.108  11.752   1.238 -0.1157  0.3144  0.3046
14904W        W30798  14.901  17.721   5.313 -0.4396  0.1597 -0.0737
14905W        W30799   1.545   5.454   1.998  0.1137  0.0026  0.1418
14906W        W30800   4.619   6.415   0.288  0.2273 -0.1790 -0.0724
14907W        W30801   2.419   2.993   2.205  0.0224  0.4311 -0.1326
14908W        W30802   5.468   6.046   3.174  0.0549 -0.3558  0.1700
14909W        W30803  13.527  15.186  15.223  0.2367 -0.1269 -0.1875
14910W        W30804   4.947   6.682  11.612 -0.0365  0.0392 -0.0926
14911W        W30805   5.899   9.586  14.766 -0.2266  0.2295 -0.1075
14912W        W30806  17.831   7.966   5.527 -0.3844  0.1105 -0.0746
14913W        W30807   4.588   8.496  15.657  0.0251 -0.1106 -0.1464
14914W        W30808   7.129   4.775   1.948  0.0975 -0.3022  0.0944
14915W        W30809  13.206   4.651   2.319 -0.1382 -0.1947 -0.0809
14916W        W30810  17.413  16.944  11.721  0.4907  0.3640 -0.0556
14917W        W30811   8.080   6.226  15.003 -0.2190 -0.0536 -0.1524
14918W        W30812   6.796  14.527   1.800 -0.1092  0.0172  0.1982
14919W        W30813   7.762   6.251  11.564  0.2669 -0.0687 -0.2895
14920W        W30814   6.126  13.722   2.286  0.0456 -0.0064  0.1515
14921W        W30815   1.030   5.954   4.194 -0.3751 -0.1881 -0.1288
14922W        W30816   2.484  14.745  13.667 -0.0531  0.1877 -0.1092
14923W        W30817  10.720   8.529  12.888  0.3545 -0.1107 -0.0739
14924W        W30818   6.587   0.970  14.999  0.1818  0.2109 -0.3746
14925W        W30819   3.214   2.489   3.060  0.3119  0.1300  0.2632
14926W        W30820   1.432   8.422   1.566 -0.1499  0.1139  0.2913
14927W        W30821  12.256   8.725   4.508  0.1702  0.0401 -0.0070
14928W        W30822   9.935  10.385   4.936 -0.2304  0.1297  0.0852
14929W        W30823  14.686  14.315  10.815  0.2429 -0.0248 -0.2889
14930W        W30824   4.775  15.946   3.445 -0.4407  0.0539 -0.1603
14931W        W30825   8.236  17.713  15.216 -0.0683 -0.1718  0.2077
14932W        W30826  13.651   7.699  13.187  0.2877 -0.0660 -0.2228
14933W        W30827  11.440  17.460   5.253  0.0701  0.0391  0.2517
14934W        W30828   2.490   4.601  11.800  0.4912 -0.3386 -0.0345
14935W        W30829  12.858  15.863  12.133 -0.0141 -0.0939  0.1504
14936W        W30830  17.517   9.457  12.717 -0.0985  0.1527 -0.1404
14937W        W30831  13.595  15.755   2.220 -0.3041 -0.2758 -0.0356
14938W        W30832   7.328   8.330  15.983 -0.0826  0.2787 -0.2415
14939W        W30833   2.937   7.800   3.758 -0.1555  0.1012  0.0154
14940W        W30834  13.076   2.849   5.912  0.2638  0.1805 -0.1372
14941W        W30835   8.082   8.681   1.116  0.4875 -0.0031 -0.1384
14942W        W30836   4.494  11.660  11.135 -0.0341  0.1977  0.3107
14943W        W30837  13.846  17.680   0.695 -0.0978 -0.1902 -0.1277
14944W        W30838   0.570   8.868   1.985  0.0463  0.0115  0.1443
14945W        W30839   0.003   8.191   1.028 -0.1915  0.2157 -0.1050
14946W        W30840  12.216  15.388   5.323 -0.2311  0.0515 -0.2562
14947W        W30841  10.641   0.363  15.785 -0.1277  0.0813  0.0194
14948W        W30842  15.831   6.334  13.431  0.1357  0.1699 -0.3562
14949W        W30843   3.638   9.347   2.729 -0.0525  0.0713  0.1757
14950W        W30844  12.069   2.703   5.217 -0.3136  0.0104  0.0191
14951W        W30845   2.966  10.737  14.880  0.3893  0.0157 -0.1453
14952W        W30846  14.550   8.778   2.919  0.1294 -0.1135 -0.2649
14953W        W30847  16.303   1.922   6.142 -0.1709  0.2207 -0.0742
14954W        W30848   5.211   8.647   5.107  0.2580  0.3472 -0.0479
14955W        W30849   5.982   2.840   3.298 -0.0464  0.0565  0.2517
14956W        W30850  16.352   3.237  13.288  0.0578 -0.1949  0.1803
14957W        W30851  11.357   6.848   4.057 -0.0466  0.1633 -0.2323
14958W        W30852   3.847   2.667  14.946  0.0931 -0.2703  0.1339
14959W        W30853   2.559   5.657  12.806 -0.2043  0.0853  0.3734
14960W        W30854  13.219  17.199  15.137  0.0654  0.0015 -0.0364
14961W        W30855   0.073  16.608  11.987  0.0449  0.2535  0.2562
14962W        W30856  17.012   7.736  12.629  0.5365 -0.0346 -0.0444
14963W        W30857  16.032  18.374  15.936  0.2472 -0.2022  0.1102
14964W        W30858   7.956   6.590   1.949  0.3127 -0.2153  0.1106
14965W        W30859  15.812   4.799  15.095  0.0555 -0.0687  0.1295
14966W        W30860   3.016   0.601  14.636  0.2901 -0.1741 -0.1212
14967W        W30861   8.210  10.684  11.145 -0.0879  0.1940 -0.2312
14968W        W30862   8.367  11.999   2.134  0.4139 -0.0254  0.2565
14969W        W30863   3.293  17.966  15.959 -0.1367 -0.3585 -0.1503
14970W        W30864   0.030   5.417  15.916 -0.1495  0.1140  0.1358
14971W        W30865  14.776   5.404   4.581  0.1168  0.2905  0.1965
14972W        W30866   7.235  16.016   0.797 -0.1667  0.0575 -0.0376
14973W        W30867  17.226   9.914  15.783 -0.1374 -0.1447 -0.2590
14974W        W30868  13.926  11.143  16.124  0.0447  0.2162  0.1011
14975W        W30869   2.502  17.298  11.664 -0.0256 -0.3414 -0.1322
14976W        W30870  15.287  15.957  15.537  0.2784 -0.0173 -0.3043
14977W        W30871  12.444  16.272   4.409 -0.4430 -0.0558  0.3282
14978W        W30872   1.155   2.864  11.677 -0.1757 -0.0249 -0.1577
14979W        W30873   7.807  15.610   5.032  0.1321  0.1892 -0.2953
14980W        W30874  12.847   0.568  10.475 -0.2915 -0.1513 -0.2844
14981W        W30875   9.820   0.627  15.326  0.2139 -0.0776  0.0281
14982W        W30876   2.099  18.149  15.185  0.0900 -0.1344  0.3484
14983W        W30877   3.434  14.154  11.606 -0.0724  0.1261  0.2617
14984W        W30878  11.962  10.909   1.277 -0.1143  0.0224 -0.1593
14985W        W30879   1.572  12.689   3.832  0.1422 -0.1610 -0.3797
14986W        W30880  16.264  17.722  16.057 -0.0447  0.2890 -0.0526
14987W        W30881  11.825   8.766   4.748  0.3209  0.0229 -0.2976
14988W        W30882   5.554   9.382  11.396 -0.0952  0.0618 -0.1219
14989W        W30883  11.233   2.905   5.719 -0.0797 -0.0809 -0.1464
14990W        W30884  15.613  17.811  13.698 -0.2189  0.2978 -0.0478
14991W        W30885   2.767  11.141  10.463 -0.0255  0.2132 -0.1564
14992W        W30886  13.437   1.065   5.393 -0.0944  0.0212 -0.0642
14993W        W30887  11.010  10.814   3.441  0.2921  0.1626  0.1279
14994W        W30888   5.423  17.450   4.253 -0.3318 -0.0521 -0.0856
14995W        W30889  14.482   5.201   4.220 -0.1260 -0.1220 -0.1030
14996W        W30890   0.001  12.247   0.418 -0.4914 -0.2176 -0.0063
14997W        W30891  17.457  18.428   1.019  0.4221  0.2192  0.0337
14998W        W30892   0.004   1.117  11.471  0.2166 -0.1650 -0.0273
14999W        W30893   7.569  17.958   2.499  0.3340 -0.1733  0.2813
15000W        W30894  15.661  14.981   3.287  0.0810 -0.1192 -0.0962
15001W        W30895   0.330   6.543   1.367 -0.0837  0.1838  0.1986
15002W        W30896   0.469   3.401  15.932  0.0246  0.0299  0.5836
15003W        W30897   7.664   8.300   5.773  0.0180 -0.0381 -0.0434
15004W        W30898  10.550   6.854   1.927 -0.1407 -0.2264 -0.1914
15005W        W30899  16.607   8.269   0.781  0.1564 -0.3172  0.0282
15006W        W30900   7.940   4.589   2.911  0.0584 -0.0324  0.3245
15007W        W30901  16.945   7.167  11.355 -0.3371 -0.0729 -0.1194
15008W        W30902   9.447   5.227  13.267  0.0217  0.0460  0.0338
15009W        W30903  14.446  11.566   4.135 -0.3772 -0.2486 -0.0278
15010W        W30904  12.275  13.907   4.505 -0.0716  0.0794 -0.1609
15011W        W30905  13.945   9.101   4.732  0.2984 -0.0986 -0.1784
15012W        W30906  10.875   2.395   5.022 -0.3820  0.1374  0.0319
15013W        W30907  13.142   2.056  14.846 -0.0269  0.2369  0.0033
15014W        W30908   8.220  17.939  16.037 -0.0295 -0.0250  0.0161
15015W        W30909  15.444   4.856   5.223 -0.0643  0.1073  0.0202
15016W        W30910   4.357   8.049  12.471  0.1838 -0.0552  0.2281
15017W        W30911  11.088  12.831   4.504  0.3003  0.1209 -0.0114
15018W        W30912   8.896   0.759  16.136  0.2616 -0.1741 -0.0909
15019W        W30913   8.702   2.960   5.456  0.0486 -0.0037 -0.1375
15020W        W30914   4.848  18.462  11.935 -0.1017  0.4006 -0.0704
15021W        W30915  10.830   5.751  13.528  0.1056 -0.1303 -0.0762
15022W        W30916  18.020   5.689  11.727  0.0991  0.0346 -0.1615
15023W        W30917   5.585  15.078  12.207 -0.0538  0.0664 -0.1347
15024W        W30918   2.721  12.659  11.149 -0.3885  0.4154  0.0048
15025W        W30919   2.506   0.488   3.206  0.1236  0.0027  0.0205
15026W        W30920  16.941   5.675   0.761  0.2844 -0.0433  0.3073
15027W        W30921   6.451   8.919   1.584  0.0578  0.0058  0.0366
15028W        W30922  14.183   6.802   1.881  0.2468  0.0103  0.2185
15029W        W30923  18.328   9.595   2.837  0.3285 -0.0762 -0.0366
15030W        W30924  16.804  14.860   0.289 -0.0179  0.3078 -0.0551
15031W        W30925   8.055  16.547   5.262 -0.0121  0.1497 -0.2565
15032W        W30926  12.822  17.542   1.813 -0.2057 -0.2731  0.0453
15033W        W30927  12.025  12.551  13.903 -0.0119 -0.2114  0.1262
15034W        W30928  14.880   1.119   1.206 -0.1044  0.1385 -0.3695
15035W        W30929   3.980   3.057  14.558  0.1751  0.1275 -0.3054
15036W        W30930  11.472   0.752   6.035  0.1389  0.2819  0.0147
15037W        W30931   8.162   7.782  13.881  0.1358 -0.2381  0.0422
15038W        W30932   1.490  14.548   3.705 -0.1054  0.0111  0.0257
15039W        W30933  16.182   3.473  12.590 -0.2123  0.0792 -0.1201
15040W        W30934   9.345   4.319   4.264  0.0084  0.7753  0.3667
15041W        W30935  10.414  15.799  12.989 -0.0800  0.2959 -0.2108
15042W        W30936   9.146   3.013   3.479 -0.0597 -0.1310 -0.0526
15043W        W30937   5.305   4.536   0.158 -0.0907  0.0113 -0.1079
15044W        W30938   2.233  15.993  13.689 -0.0797  0.1983  0.3436
15045W        W30939   8.594   5.847  12.932  0.1067  0.0134 -0.0604
15046W        W30940  11.556   8.767  15.544  0.0780  0.2548 -0.0569
15047W        W30941   4.065   4.541   5.720 -0.3885  0.1144 -0.2263
15048W        W30942  11.869  13.891  13.430  0.2719 -0.1118  0.1448
15049W        W30943  14.729  10.584  16.037  0.1144 -0.0404 -0.1623
15050W        W30944  17.318   1.915   1.576 -0.0193  0.0147 -0.2106
15051W        W30945  18.039   1.255   4.132  0.3107  0.0757  0.2097
15052W        W30946  16.096   0.647   0.186 -0.4622 -0.0438  0.4070
15053W        W30947   2.498  16.685  15.141 -0.3096 -0.0691  0.0741
15054W        W30948   9.564  16.363   2.446  0.2579 -0.4656 -0.3127
15055W        W30949   9.759  17.307   0.606  0.1117  0.1068  0.1405
15056W        W30950  16.575  12.475  12.979 -0.2254  0.3261  0.4673
15057W        W30951   4.554   9.028   5.765  0.2794 -0.1785  0.2151
15058W        W30952  10.677   6.115   0.592  0.1086  0.0522  0.1429
15059W        W30953  13.230   7.073   4.014  0.3537  0.1011  0.3000
15060W        W30954   9.787  16.792   0.499  0.0092  0.3411 -0.2340
15061W        W30955  10.516   7.132  13.212  0.3127  0.1316 -0.0003
15062W        W30956  17.691  12.232  15.475  0.0300  0.0189  0.1422
15063W        W30957   1.287  14.994  12.089  0.0225 -0.1016  0.2575
15064W        W30958  13.432   0.262  14.430  0.0309 -0.0931  0.1387
15065W        W30959   3.805   5.835   6.423  0.1399  0.0282 -0.1173
15066W        W30960  15.442   5.977  13.731  0.1009 -0.1973  0.0787
15067W        W30961   6.724   6.126   4.395  0.4008  0.1131 -0.2620
15068W        W30962  18.025  16.943   0.187 -0.1156 -0.1443  0.3013
15069W        W30963  10.351  10.944   0.185 -0.1595 -0.1465 -0.0903
15070W        W30964  11.982   9.690  11.102  0.2337 -0.0009  0.0809
15071W        W30965  16.655   3.303   3.548 -0.0121  0.0847 -0.4758
15072W        W30966  12.684   4.866  12.183 -0.2944  0.0164  0.3203
15073W        W30967   1.751   2.394   1.994  0.0259  0.0340 -0.2568
15074W        W30968   5.383  11.660  16.113 -0.4109  0.1258  0.3273
15075W        W30969   7.373   2.009   4.496  0.3636 -0.0509 -0.0654
15076W        W30970  16.582   9.131  14.149  0.1992 -0.3618 -0.0710
15077W        W30971  18.056  10.903  14.586 -0.0566 -0.0290  0.2629
15078W        W30972  12.470   0.790   2.649  0.0288  0.1064 -0.3180
15079W        W30973   4.086  16.743   4.135  0.2484  0.2152  0.1724
15080W        W30974  14.083  13.107  13.438  0.4232  0.2637  0.0247
15081W        W30975   3.063   7.627   4.199 -0.0904 -0.2887  0.0504
15082W        W30976   6.766  14.593  13.843 -0.1374  0.1066  0.0074
15083W        W30977  18.087   8.537   2.342 -0.3077  0.1620 -0.0987
15084W        W30978   5.964   8.370  13.859  0.1092  0.0927  0.1958
15085W        W30979   3.637  18.163  12.657  0.0221 -0.1415  0.0469
15086W        W30980  17.505  11.409   0.950  0.1818  0.1722  0.0273
15087W        W30981  15.354  16.053   5.066  0.1343  0.1045 -0.1889
15088W        W30982  16.613  17.300   2.816 -0.0352  0.0253 -0.0839
15089W        W30983  14.122   0.702   4.787  0.1992 -0.0266  0.0132
15090W        W30984  12.850  11.947  15.585 -0.2092 -0.0459 -0.0359
15091W        W30985   9.613   6.815  15.589 -0.1692  0.1810 -0.1087
15092W        W30986  11.477  18.411  13.170 -0.3167 -0.1095 -0.1730
15093W        W30987   9.825  16.103   1.696  0.4191 -0.2467  0.0243
15094W        W30988   7.305  15.764  12.233 -0.2587 -0.1266  0.1426
15095W        W30989   7.080  10.252   2.702 -0.2185 -0.2034  0.1932
15096W        W30990  17.965  11.673   5.143  0.0152  0.0784 -0.1681
15097W        W30991  10.836  11.858  13.799 -0.1983 -0.0315 -0.2190
15098W        W30992   8.481  14.087  12.950  0.1433  0.0726  0.1810
15099W        W30993   8.419   7.999  15.052 -0.3014  0.1426  0.2669
15100W        W30994  11.544   9.298  10.948 -0.0358 -0.0358  0.2742
15101W        W30995  13.678  13.877   5.726 -0.0437 -0.0854  0.0615
15102W        W30996  13.655   8.491  16.126 -0.1523  0.2157  0.1039
15103W        W30997  11.727  10.325   0.737 -0.0895 -0.3278  0.0868
15104W        W30998   4.030  10.664   5.850 -0.1291 -0.1430  0.1665
15105W        W30999   9.212  11.791  13.488  0.0422 -0.1494 -0.0610
15106W        W31000   9.588   9.618   1.948 -0.5211  0.0143  0.1119
15107W        W31001  10.598  10.151   3.794 -0.0451  0.0108 -0.0016
15108W        W31002   4.927   6.658   3.618 -0.0660  0.1607  0.0225
15109W        W31003  15.750   9.234   3.994  0.1570 -0.2689 -0.1144
15110W        W31004   2.487  10.622   0.844  0.0928  0.1216  0.0315
15111W        W31005   5.952  11.658  10.560  0.1559 -0.0140  0.1055
15112W        W31006   3.898  10.646   1.842  0.1031 -0.0276 -0.2316
15113W        W31007   7.127  16.841   4.965 -0.1578  0.1765  0.1075
15114W        W31008   3.839  10.199   2.089  0.4463  0.2014  0.2088
15115W        W31009  12.877  11.599  14.119 -0.2064  0.1814  0.0479
15116W        W31010  15.946   1.567   0.852  0.3563  0.0432 -0.0109
15117W        W31011  16.489   7.991   0.010 -0.0380  0.3834 -0.0484
15118W        W31012  17.814  14.693   3.564  0.1427 -0.0267  0.0090
15119W        W31013  10.509  16.366   4.469 -0.0220 -0.1104  0.0124
15120W        W31014   2.226   6.309  12.689 -0.1444  0.0765 -0.0885
15121W        W31015  15.691   5.691   0.427  0.0399  0.1598 -0.2414
15122W        W31016   5.223   4.341   0.967  0.3110 -0.0968 -0.0444
15123W        W31017  13.359  15.206  10.031 -0.2484  0.1150 -0.0720
15124W        W31018   4.204   2.391  13.574  0.2758  0.0161 -0.2613
15125W        W31019  17.035   7.383   4.444  0.3006  0.1496  0.0204
15126W        W31020  12.208  16.338  13.812 -0.2791 -0.0317 -0.0301
15127W        W31021  17.179   1.185  15.698  0.0388  0.2616  0.1733
15128W        W31022  11.649   9.251  13.107 -0.0314  0.0634  0.0179
15129W        W31023   4.372  12.015   4.991 -0.1734 -0.1812 -0.3866
15130W        W31024   1.161   9.023  13.040  0.0902 -0.0221 -0.1603
15131W        W31025  15.715   5.668  16.071  0.1594 -0.0381 -0.1542
15132W        W31026   7.640   1.171   3.973 -0.1562 -0.0951  0.0429
15133W        W31027   9.217  10.152   5.789 -0.1442 -0.2191 -0.0119
15134W        W31028   8.717   7.545   3.314 -0.2513  0.1549 -0.2317
15135W        W31029  11.755  12.064  11.626 -0.3420 -0.1373 -0.1111
15136W        W31030   1.224   4.423  14.771 -0.1282  0.2140  0.1157
15137W        W31031   6.623  14.287  14.218 -0.0459  0.2197 -0.2394
15138W        W31032   9.785   8.347  15.562  0.1979  0.0442  0.1930
15139W        W31033   1.710  14.567   4.999  0.3221 -0.0673 -0.0589
15140W        W31034   3.839   1.457  14.980 -0.1193  0.1170 -0.0184
15141W        W31035  12.113  16.523   4.110 -0.0777  0.2048 -0.2715
15142W        W31036  13.931   0.595  13.013 -0.4025  0.0451  0.1882
15143W        W31037  12.447  14.350  14.205 -0.2418 -0.1423  0.0161
15144W        W31038  14.506   3.353  14.777  0.1064 -0.2109 -0.0913
15145W        W31039  12.975  18.438  15.449 -0.3753  0.4615 -0.0643
15146W        W31040   2.191   6.818   5.756 -0.0880  0.0678 -0.2459
15147W        W31041  10.198  15.041  10.633 -0.1862  0.3266  0.2447
15148W        W31042   6.785  10.030   0.058  0.0996  0.0708 -0.1581
15149W        W31043   4.799   5.097  12.511  0.0178 -0.1665 -0.2883
15150W        W31044   0.278  17.053   2.409  0.1777  0.0558 -0.1604
15151W        W31045  10.321   0.067  15.480 -0.1517  0.1704 -0.0662
15152W        W31046  17.435   0.910  12.098 -0.0968 -0.0484 -0.0752
15153W        W31047  12.972  17.871  14.207  0.2126  0.0881  0.0023
15154W        W31048   2.278   3.810  15.301 -0.0061 -0.0255  0.2374
15155W        W31049   9.389   1.999  11.820 -0.0720  0.3137  0.0493
15156W        W31050  16.351   1.004  11.766  0.1894  0.5248 -0.2933
15157W        W31051   4.980   2.393  12.259 -0.0205 -0.2052 -0.0031
15158W        W31052   1.243  11.533   1.501 -0.2762 -0.0576  0.0503
15159W        W31053  14.472   2.557  13.125 -0.1332 -0.1546 -0.3193
15160W        W31054   4.684  13.359  12.743  0.3556 -0.0179 -0.1936
15161W        W31055   2.160   3.945   4.306  0.2546 -0.3831  0.0471
15162W        W31056   5.464  12.891  12.952  0.1772  0.0324  0.1529
15163W        W31057   0.396   1.254  13.813 -0.2959 -0.2913  0.2667
15164W        W31058   8.139  16.085   5.459 -0.0551  0.2080  0.1539
15165W        W31059   4.369  10.190   2.670  0.2143  0.0883 -0.0922
15166W        W31060  13.515  11.373   0.394 -0.0064 -0.0683  0.1932
15167W        W31061   7.047   0.950   0.057 -0.0530  0.0220 -0.2124
15168W        W31062  10.170   1.706  16.020 -0.2090 -0.0276 -0.0517
15169W        W31063   5.536   1.653  15.292  0.1407 -0.1792 -0.0835
15170W        W31064  14.269  10.986   3.061 -0.0495  0.0551 -0.0607
15171W        W31065   0.029   0.949   4.946 -0.2189 -0.2012  0.0746
15172W        W31066   6.507  14.598   2.176  0.3279 -0.2052  0.0272
15173W        W31067   1.448   6.507  15.924  0.4610  0.2407 -0.3248
15174W        W31068   5.051   5.552   3.629 -0.1278 -0.2245 -0.0945
15175W        W31069   1.438   3.786   1.862  0.0574 -0.1756 -0.2795
15176W        W31070   2.362  16.427   1.625 -0.1624 -0.0493  0.1325
15177W        W31071   6.343   2.265   4.463 -0.0082  0.0365 -0.0809
15178W        W31072   0.986  18.115   3.830 -0.0426 -0.2078 -0.2722
15179W        W31073  16.950  10.383   3.283  0.1422  0.2531 -0.2958
15180W        W31074  12.959   1.370  13.984  0.1874 -0.0527 -0.1656
15181W        W31075   8.010   6.927   4.731  0.0465  0.1867 -0.3861
15182W        W31076  11.296   0.096  16.103  0.0768  0.1318 -0.2319
15183W        W31077   3.561   8.995  14.132 -0.0093  0.1988 -0.3802
15184W        W31078   4.996   2.289  10.638 -0.2043 -0.1779  0.1323
15185W        W31079   2.537  14.127  12.219 -0.0758 -0.0751  0.0899
15186W        W31080   7.660   8.216  12.505  0.1667  0.1578 -0.1480
15187W        W31081  16.215   5.341   5.550 -0.1469  0.1718 -0.1637
15188W        W31082   7.469  12.215   2.373 -0.1983  0.0244  0.0893
15189W        W31083   0.253  10.611  15.072  0.1495  0.2254 -0.0380
15190W        W31084   1.406  10.773   2.241 -0.2885 -0.2850  0.3989
15191W        W31085   0.555  17.790  14.415  0.0838  0.0812  0.2922
15192W        W31086  13.240  12.043   3.652  0.3156  0.1479  0.1639
15193W        W31087   9.566  15.868  15.666 -0.0960  0.1022 -0.1608
15194W        W31088   8.570   7.390   0.803  0.0332  0.0889 -0.1441
15195W        W31089  17.943  12.998  12.237  0.1139 -0.3377  0.1668
15196W        W31090   7.568   8.567   1.078 -0.3942  0.1694  0.0516
15197W        W31091  12.953   2.607   2.073 -0.2584 -0.1314 -0.0123
15198W        W31092  14.506  18.076  11.881 -0.2041  0.1761 -0.0790
15199W        W31093   2.754  18.243   2.836  0.2632 -0.0749 -0.2228
15200W        W31094  12.168   5.575   4.036 -0.3072 -0.0634  0.0970
15201W        W31095  16.980   0.167  12.625  0.0519  0.2590  0.0690
15202W        W31096  14.938  14.052   2.197 -0.0784 -0.1010  0.1911
15203W        W31097   0.281   5.450  14.363  0.2154  0.0161  0.3344
15204W        W31098   2.099  10.551  11.244  0.1575 -0.2383 -0.0504
15205W        W31099   9.226   4.207  10.897  0.1401  0.0151  0.1410
15206W        W31100  12.100   0.388   2.070 -0.3700  0.2302  0.1855
15207W        W31101  18.228  15.663   5.813  0.0769 -0.1246 -0.0431
15208W        W31102   1.335   3.208  13.481  0.0323  0.1580  0.0425
15209W        W31103   6.890  17.002   3.211  0.1174  0.0283  0.2463
15210W        W31104   2.412  15.743   0.134  0.2808 -0.3868 -0.4480
15211W        W31105  18.036  13.912   0.578 -0.0430  0.3297  0.0077
15212W        W31106  17.286  17.831   4.577  0.1407 -0.1285 -0.4587
15213W        W31107   5.802  12.199  10.922  0.1584  0.3498 -0.0810
15214W        W31108   7.413  10.084  12.690 -0.3843  0.1301  0.1723
15215W        W31109  10.774   0.335  12.199 -0.1821 -0.2084 -0.1171
15216W        W31110   4.187   4.553   2.273  0.1555  0.2690 -0.0166
15217W        W31111   1.667  15.238  13.408 -0.3778 -0.3461  0.1475
15218W        W31112   6.021   1.646   3.597  0.5184 -0.1514 -0.2196
15219W        W31113  15.796   5.340   0.731 -0.1369  0.0165 -0.4487
15220W        W31114   6.473  14.989   1.823 -0.0161 -0.2201 -0.1862
15221W        W31115   8.738  17.986  12.159 -0.0125 -0.0818 -0.2219
15222W        W31116   5.113   5.031  11.689  0.0130 -0.0075  0.0873
15223W        W31117   3.371   8.966   0.429  0.1355  0.0458 -0.2197
15224W        W31118  14.713   8.369   2.530  0.2462 -0.2456  0.3191
15225W        W31119   4.842  15.397   1.097 -0.2171 -0.2573 -0.1953
15226W        W31120  18.162  18.253   0.025  0.0395 -0.2335 -0.0439
15227W        W31121  13.955  11.200  14.980  0.0978  0.0036 -0.1648
15228W        W31122   5.234   8.548  12.660  0.0343 -0.1875 -0.1775
15229W        W31123   9.678   1.831  13.589 -0.1288 -0.0632  0.0424
15230W        W31124   0.501  11.600  10.684 -0.1696 -0.0892  0.0056
15231W        W31125   7.590   5.306  15.426  0.3319 -0.0459 -0.4564
15232W        W31126   0.078   0.246  12.963  0.3398 -0.1256  0.1094
15233W        W31127  15.381  13.639   3.786  0.3207 -0.0062  0.0463
15234W        W31128   8.770  13.477  13.056 -0.0791  0.2829 -0.1371
15235W        W31129  17.450   8.525  13.735 -0.0077  0.0463 -0.0036
15236W        W31130   4.685   5.231  13.633 -0.0172  0.1327  0.1748
15237W        W31131  14.382  11.380   2.006 -0.0052  0.4795  0.0757
15238W        W31132  17.962   7.590  13.626  0.0652  0.0511 -0.1993
15239W        W31133   0.956   0.442   4.274 -0.0643  0.1793 -0.0039
15240W        W31134  13.187  16.197  13.255  0.2011 -0.3882  0.0573
15241W        W31135   6.742   9.402  12.911  0.0230 -0.1302 -0.1853
15242W        W31136   5.395   1.004  15.367  0.0896  0.1728  0.1102
15243W        W31137  11.573  14.653   3.579 -0.1396 -0.1463 -0.1575
15244W        W31138   4.064  18.386   3.357 -0.1269  0.2632  0.0096
15245W        W31139   5.366   9.985  15.953 -0.3231 -0.0866  0.1317
15246W        W31140  12.258   5.181  15.731  0.0721 -0.2238  0.1896
15247W        W31141  12.498  16.886  15.081 -0.0537  0.1058 -0.1900
15248W        W31142   1.597  17.178  13.094  0.1152  0.0864  0.0274
15249W        W31143  12.168   2.568   3.496  0.0351  0.1423  0.2598
15250W        W31144   2.959   9.820   1.665  0.1061 -0.2555  0.3658
15251W        W31145   6.845   2.501   0.402 -0.1963 -0.1682 -0.0963
15252W        W31146   8.445  16.284   5.025 -0.0847 -0.1100  0.4104
15253W        W31147   2.543   4.065   1.024 -0.0840  0.1230  0.1087
15254W        W31148  17.096  12.511   4.442 -0.0357 -0.0059  0.0248
15255W        W31149   7.462  12.683   1.303  0.2852 -0.3021 -0.0135
15256W        W31150  12.305   8.921   0.097 -0.0999 -0.0038  0.0817
15257W        W31151  17.732   3.804   3.473 -0.1900 -0.1156 -0.0823
15258W        W31152  11.667  16.244   2.572  0.2201 -0.0465  0.0066
15259W        W31153  16.903  10.519   5.901  0.1980  0.0918 -0.2009
15260W        W31154   9.644   3.921  10.985 -0.0153 -0.0258 -0.1305
15261W        W31155  14.188   3.628  13.189  0.1143  0.0911 -0.1191
15262W        W31156   3.673   9.789  10.780 -0.4029 -0.0832  0.1224
15263W        W31157  16.080  16.997  13.980 -0.1005  0.0336  0.0598
15264W        W31158  18.083   7.597   5.791  0.0070 -0.2020 -0.3006
15265W        W31159   6.232   8.700   2.095 -0.0611  0.0145 -0.0395
15266W        W31160   1.912  16.440   2.564  0.3455  0.2985  0.0312
15267W        W31161   2.401   1.787  11.372 -0.1619 -0.0673 -0.0646
15268W        W31162  15.955   2.691   5.847 -0.2060  0.0781  0.0921
15269W        W31163  11.075  11.391  11.228 -0.2877 -0.1742  0.4289
15270W        W31164   8.283  14.492  11.539 -0.1801 -0.0260 -0.2922
15271W        W31165  13.398   2.632   0.180 -0.1043 -0.0761  0.3768
15272W        W31166  16.054  17.595  11.543  0.4245 -0.1279 -0.0631
15273W        W31167  13.187  12.837   3.982 -0.1146  0.1301 -0.0241
15274W        W31168   6.900  13.405  10.886 -0.0261 -0.1873  0.0816
15275W        W31169  12.590   3.430   2.886  0.1205 -0.0500 -0.0129
15276W        W31170  16.749   8.792   2.063  0.1483  0.1395  0.0107
15277W        W31171  18.277   6.666   5.553 -0.1613  0.0626  0.1286
15278W        W31172   8.245   0.171   4.450  0.0483  0.0330 -0.0872
15279W        W31173  16.625   4.691   1.615 -0.1624  0.0974  0.1000
15280W        W31174  17.518   6.245   1.282 -0.0937 -0.0593 -0.1139
15281W        W31175   1.656   6.235   2.593 -0.0494 -0.1246 -0.1726
15282W        W31176   9.711   5.013  10.784 -0.3022  0.0502 -0.2277
15283W        W31177  14.801   4.062  11.488 -0.1663  0.0809  0.1512
15284W        W31178  16.386  14.008   3.118  0.2246  0.2873  0.0399
15285W        W31179   2.492   7.225  12.955 -0.0305 -0.0575 -0.0904
15286W        W31180   4.173   5.869  15.627  0.2076  0.0526 -0.0129
15287W        W31181   0.237   8.874  15.416  0.0549  0.0815  0.2065
15288W        W31182  15.454  12.887  12.581 -0.0691 -0.1288  0.1127
15289W        W31183  15.329  10.467  13.418 -0.0254 -0.1673  0.1420
15290W        W31184   5.530   7.897   3.727 -0.0795 -0.1891 -0.4504
15291W        W31185  17.499   8.107  14.911  0.1633 -0.2170 -0.0577
15292W        W31186   2.899   3.318  14.959 -0.1317 -0.2140 -0.2407
15293W        W31187   4.597   2.713  12.100 -0.2003 -0.0099 -0.0358
15294W        W31188  16.664   9.733   4.359  0.1250  0.1492  0.0859
15295W        W31189   2.355  17.797   4.117  0.2839 -0.0788  0.3541
15296W        W31190   3.603   7.070   2.383  0.0016 -0.1762  0.0783
15297W        W31191  10.928  11.617  15.542  0.1310  0.0564  0.2222
15298W        W31192   4.611   9.524  10.415  0.0217 -0.1202  0.0519
15299W        W31193   3.393  16.386  15.159  0.0487  0.0203  0.0327
15300W        W31194  12.129   3.942   2.269 -0.1222 -0.1084 -0.3492
15301W        W31195  13.977   7.173   3.949  0.3148 -0.1801  0.2506
15302W        W31196   8.531   0.826   5.124 -0.0196  0.2155  0.0018
15303W        W31197   0.293  13.802   3.577 -0.1280 -0.1929 -0.1727
15304W        W31198  15.448   7.719  13.090 -0.2288  0.0983  0.1691
15305W        W31199  16.877  13.702  15.741  0.2816 -0.0034 -0.1271
15306W        W31200   9.304   1.789   4.956  0.0608  0.1144  0.1204
15307W        W31201   5.782   8.685  14.725 -0.2337  0.0449  0.0385
15308W        W31202   3.946  17.474  13.737 -0.0372  0.0829  0.2981
15309W        W31203   1.919  11.178  14.494 -0.0584 -0.1800  0.0206
15310W        W31204  12.629  12.007  12.126 -0.0824  0.1086 -0.0868
15311W        W31205  11.765  16.299   2.050  0.1002  0.0819  0.0727
15312W        W31206   8.753  10.410   1.841  0.1416  0.0618  0.0579
15313W        W31207  14.549  12.640  11.890  0.2618  0.2842 -0.0693
15314W        W31208   7.831   9.188   3.766  0.0859  0.1399 -0.1767
15315W        W31209   2.689   3.472  15.775  0.3243 -0.0908  0.1313
15316W        W31210   5.322   6.113  13.532 -0.1054  0.0860  0.2143
15317W        W31211   7.573   9.154   4.175 -0.1098 -0.2657  0.1017
15318W        W31212  12.480   9.905   5.208 -0.0084  0.1105 -0.0459
15319W        W31213   3.388  12.455   1.704  0.2625  0.2765  0.1762
15320W        W31214  10.990   4.273   2.561  0.0697  0.1408 -0.1633
15321W        W31215  12.849  10.914  11.884 -0.3643  0.1842  0.0994
15322W        W31216  10.992  10.981  12.388  0.1007 -0.1711  0.1752
15323W        W31217   7.581   3.832  14.393 -0.1743 -0.1193 -0.0139
15324W        W31218  13.840   6.621   0.927 -0.1002 -0.1807  0.1282
15325W        W31219  12.272  13.665  13.756  0.1066 -0.2232  0.0795
15326W        W31220  13.889   9.924   3.112 -0.0780  0.0751  0.0314
15327W        W31221  16.575  17.451   5.838 -0.0562 -0.2813  0.0437
15328W        W31222   3.950   1.429   4.355 -0.0084 -0.2095  0.1166
15329W        W31223   2.018  18.301  13.705 -0.1142 -0.3077 -0.1423
15330W        W31224   7.675   0.434   5.134 -0.1558  0.0413 -0.1624
15331W        W31225   3.105   5.553   5.482 -0.2146  0.4166 -0.2536
15332W        W31226   4.915  15.379  12.080  0.2572  0.0154 -0.1332
15333W        W31227  10.165  11.064  12.755 -0.2798  0.0974 -0.1037
15334W        W31228   6.380   2.429  14.236  0.1410  0.1706 -0.1556
15335W        W31229   1.163   3.439  14.852  0.2294  0.3154  0.2852
15336W        W31230  11.357  10.863  15.532  0.4120 -0.1221 -0.2442
15337W        W31231   3.314  17.624   4.474  0.2459  0.0541  0.0951
15338W        W31232   1.382   1.208  12.444  0.2182 -0.2094 -0.0544
15339W        W31233  10.254  16.461   0.429 -0.0717  0.0160  0.2630
15340W        W31234  17.499  15.618  12.855  0.5909 -0.3404  0.3219
15341W        W31235  12.954   0.539   2.864  0.1100 -0.1790  0.1555
15342W        W31236   8.481  10.334  11.425  0.2095 -0.0790  0.0881
15343W        W31237  17.931   3.182  11.735  0.0174 -0.1714  0.2712
15344W        W31238  17.745   4.939   4.875 -0.0625  0.1127  0.1858
15345W        W31239   1.264   7.945   5.529 -0.1276 -0.2167 -0.0091
15346W        W31240  12.227  14.351   1.452 -0.2517  0.0596 -0.0991
15347W        W31241  18.008  12.975   1.518  0.0629 -0.0249 -0.1516
15348W        W31242   6.354   0.893  14.125 -0.2368  0.0483  0.1856
15349W        W31243   2.477   2.721  13.409  0.2588 -0.0459  0.0428
15350W        W31244   6.458  17.974   0.727  0.1235  0.0740 -0.2904
15351W        W31245   3.393  13.348  15.020 -0.0565 -0.0241  0.2521
15352W        W31246  17.607   7.075  13.309 -0.0007  0.0411 -0.0969
15353W        W31247  16.106  15.856   4.519 -0.0467  0.0853  0.0605
15354W        W31248   3.240   8.457  12.861 -0.0205  0.2829 -0.1040
15355W        W31249   6.219   0.541  11.940  0.0720 -0.3041 -0.0033
15356W        W31250   4.762  18.249  15.380 -0.1318  0.2239  0.1094
15357W        W31251  11.989  10.208  10.790 -0.0984 -0.2703 -0.0095
15358W        W31252   9.820  10.327  12.861  0.2326  0.0310  0.1409
15359W        W31253  15.170   5.286   3.173 -0.1503  0.2749 -0.1532
15360W        W31254   4.258   7.399  13.643 -0.0099 -0.0342  0.1933
15361W        W31255   4.734   8.932  14.600  0.4353 -0.0050 -0.2424
15362W        W31256  13.161  14.565   2.746  0.0357  0.0076 -0.1823
15363W        W31257  13.591   4.218   5.281  0.3405 -0.4128  0.0798
15364W        W31258  14.058  17.738   1.543  0.2922 -0.1433 -0.2479
15365W        W31259  15.707   5.895  11.852  0.3215  0.0671  0.2643
15366W        W31260  13.395  16.399  14.206 -0.1851  0.3291 -0.1736
15367W        W31261   8.461   5.519   1.008 -0.1427 -0.2000  0.0963
15368W        W31262   6.268   3.357   0.152  0.1783 -0.0485  0.1392
15369W        W31263   0.354   4.503   1.547 -0.0435 -0.2988  0.1437
15370W        W31264   1.590  15.106  11.727  0.2021 -0.3408 -0.1785
15371W        W31265  11.009  15.395   3.693 -0.0602  0.0526  0.2315
15372W        W31266   0.597   5.194   0.578  0.0679 -0.1210  0.3434
15373W        W31267  14.447  12.049   4.701  0.1665 -0.4217  0.0141
15374W        W31268  17.425   1.103  12.581 -0.0188  0.2534 -0.5041
15375W        W31269   7.373   9.337  12.290  0.1012 -0.1854 -0.0715
15376W        W31270   8.114  15.938  14.105  0.2937 -0.0984  0.2855
15377W        W31271  12.679  15.271   0.350  0.2836 -0.0900 -0.1330
15378W        W31272   1.262  15.845   1.165  0.1046 -0.3837 -0.3867
15379W        W31273  15.063  17.541   3.452 -0.2346  0.0064 -0.1265
15380W        W31274   6.478  14.241  15.692 -0.0710 -0.1528  0.1923
15381W        W31275   5.961  16.732  15.994 -0.1628 -0.0797  0.0974
15382W        W31276   7.443   4.397  13.728  0.6409  0.1263  0.0196
15383W        W31277  12.880   9.387   2.177  0.3839  0.1655  0.3394
15384W        W31278   1.534   6.956  15.038  0.0826 -0.0521 -0.2627
15385W        W31279   9.063   6.063   2.784 -0.1675  0.2285 -0.1752
15386W        W31280   2.029   1.299  11.596  0.0351 -0.0655  0.0323
15387W        W31281   3.944   9.167   5.058 -0.0507  0.4573 -0.2673
15388W        W31282   8.628   4.347  14.081 -0.1584  0.0769  0.0458
15389W        W31283  12.348   0.378   4.152  0.4019 -0.3879 -0.1318
15390W        W31284  13.920  14.311  13.041  0.3823  0.0139 -0.2185
15391W        W31285  17.059   9.166  14.925  0.1467 -0.1119 -0.0578
15392W        W31286  14.587   5.036  14.353 -0.2084 -0.0707  0.0419
15393W        W31287  14.237  16.102   3.039 -0.0562  0.0697  0.0301
15394W        W31288  14.001  11.729   3.447  0.2265 -0.1798 -0.1731
15395W        W31289  13.811   2.610  15.306  0.0549  0.1106  0.3793
15396W        W31290   1.649  13.402   3.287  0.4458 -0.0739  0.1962
15397W        W31291  15.075   3.744  15.094  0.1245 -0.2636 -0.3370
15398W        W31292   7.649   4.060  12.233 -0.1276  0.1556  0.0288
15399W        W31293   1.019  12.132  12.486  0.1395  0.1998  0.1334
15400W        W31294   4.013  13.030  12.228  0.1605 -0.2098  0.3085
15401W        W31295   7.153   6.915   2.903 -0.2242  0.0739  0.1190
15402W        W31296   3.155   1.379  11.704  0.2214 -0.0595 -0.2970
15403W        W31297  11.880  17.646   1.677 -0.0315  0.0393 -0.0508
15404W        W31298   0.392   8.009   1.949  0.2733 -0.0873  0.0660
15405W        W31299   6.267   8.410   1.685  0.0435  0.0436 -0.0946
15406W        W31300   3.499   1.500  14.600  0.0063 -0.4319 -0.1131
15407W        W31301   3.928  12.366   3.235 -0.0770 -0.4499 -0.1454
15408W        W31302  17.242   2.323   5.498  0.1211 -0.0344 -0.0072
15409W        W31303  15.110   4.197   6.220 -0.1414 -0.0891  0.1371
15410W        W31304   1.072   4.963  12.880  0.1654  0.1451  0.1145
15411W        W31305  10.517  11.276  15.632  0.1321  0.1041  0.1000
15412W        W31306   1.993   4.966  13.681 -0.4161 -0.0130 -0.1395
15413W        W31307   3.393  16.352   4.757 -0.3075 -0.0214  0.0248
15414W        W31308  11.920  15.579   4.662 -0.0573 -0.0921 -0.0329
15415W        W31309  14.511   1.113  15.849 -0.0641 -0.0176 -0.0428
15416W        W31310   3.160   2.499  12.740  0.1388 -0.0822 -0.0143
15417W        W31311   4.615  10.741  11.039  0.3112 -0.2611  0.0427
15418W        W31312  14.338   6.088   1.636 -0.0649 -0.1142  0.1074
15419W        W31313  14.009  17.935  12.004  0.0295 -0.1550  0.4935
15420W        W31314   3.300   9.582  14.086 -0.3585 -0.1831  0.2315
15421W        W31315  11.402   8.401   4.705  0.2902 -0.0783 -0.0744
15422W        W31316  16.242  10.441   3.373 -0.2610 -0.0473 -0.1812
15423W        W31317  14.090   2.512  14.733  0.2072 -0.0675 -0.0940
15424W        W31318   7.093  13.821   1.380  0.0829  0.1764 -0.0547
15425W        W31319  12.766   1.868  14.011  0.1160  0.0637 -0.0555
15426W        W31320   5.962   0.812   5.035  0.1439 -0.2343 -0.2571
15427W        W31321   8.520  15.172   1.676 -0.0141  0.0327 -0.1654
15428W        W31322   1.097   7.156  11.308  0.0171 -0.1971 -0.2374
15429W        W31323   2.337   4.661   5.538  0.3296 -0.0232 -0.0564
15430W        W31324  13.999  12.266   0.377  0.0353 -0.0904  0.1318
15431W        W31325   6.960   5.554  14.734 -0.0612  0.1174  0.0988
15432W        W31326  15.049  11.527  12.363 -0.2838 -0.0587  0.3086
15433W        W31327  10.237   2.167   1.508  0.2383 -0.2694 -0.2300
15434W        W31328   4.729  13.939   2.975 -0.2615  0.0709  0.3077
15435W        W31329  16.010   5.375   1.526  0.0600  0.1902  0.0580
15436W        W31330  16.924   6.067  15.905  0.1161  0.0008 -0.4639
15437W        W31331  11.317   5.454   2.115 -0.1775 -0.0716 -0.0152
15438W        W31332   1.291   7.013   5.474  0.0340 -0.0141 -0.1293
15439W        W31333   7.963   6.085   9.774 -0.1972 -0.0720  0.1821
15440W        W31334  18.232  16.901   3.764  0.1200  0.3855  0.0847
15441W        W31335   1.697   0.551  16.056 -0.0720 -0.2139 -0.2583
15442W        W31336  10.354   0.537  14.082 -0.2908  0.2054  0.3466
15443W        W31337  14.397   9.498   1.971  0.1328  0.0081 -0.2112
15444W        W31338   6.648   9.716  10.388 -0.1957 -0.1408 -0.2906
15445W        W31339   6.197  15.901  14.660  0.1327 -0.1007 -0.3863
15446W        W31340  12.821   3.726  14.839 -0.1727 -0.2771 -0.0011
15447W        W31341  14.097   9.281  13.178  0.0773 -0.1258 -0.2506
15448W        W31342   7.422   4.689   2.761 -0.3004  0.1911 -0.1296
15449W        W31343  10.075  17.675  12.970  0.4270  0.1694 -0.2907
15450W        W31344   9.543   7.015   3.960  0.1767 -0.1502  0.1123
15451W        W31345  12.013  14.314  15.678 -0.0458 -0.1696 -0.0109
15452W        W31346   4.100   6.503   3.281 -0.4514 -0.2701 -0.0421
15453W        W31347  17.796   1.348  11.645 -0.0136  0.0096  0.2698
15454W        W31348  14.747  15.305  12.533  0.0177  0.1192 -0.1315
15455W        W31349  14.656  14.596   4.071 -0.1330 -0.2031  0.0346
15456W        W31350  18.131   9.624  14.424 -0.1679  0.2536 -0.1575
15457W        W31351   9.328  11.606   3.178 -0.1871 -0.0724  0.0907
15458W        W31352   5.416   6.271   2.187  0.1610 -0.0044 -0.0855
15459W        W31353  15.865   2.678  13.438 -0.2724 -0.1201 -0.0398
15460W        W31354   5.288  14.315   5.604 -0.2758  0.2634  0.0410
15461W        W31355  17.960   5.651  13.949 -0.2528  0.0293  0.0292
15462W        W31356  12.507   0.066  14.146  0.0150 -0.0685 -0.0893
15463W        W31357   6.206   5.285  13.876  0.0198 -0.1197  0.2658
15464W        W31358   7.111   5.195   1.090  0.2852  0.1642 -0.0246
15465W        W31359  17.964  13.525   3.726 -0.2035  0.1259 -0.2624
15466W        W31360   7.694   5.592   2.692  0.4669  0.1059 -0.0080
15467W        W31361  16.643  15.828  16.093  0.3419 -0.0663 -0.2488
15468W        W31362  11.950  16.794  15.973  0.1410 -0.0641  0.1061
15469W        W31363   4.771   9.249  15.491 -0.1422 -0.3087 -0.1330
15470W        W31364   0.357  13.536  14.796 -0.0950 -0.0759  0.2790
15471W        W31365   7.436   5.198   3.517 -0.0373  0.0709 -0.0794
15472W        W31366   0.764  13.163   0.819  0.1109 -0.3429  0.0410
15473W        W31367   1.710   1.891   3.831  0.1367 -0.0021  0.1733
15474W        W31368   8.803   1.399  11.935  0.1079 -0.2693 -0.0254
15475W        W31369  14.943  16.685   1.268  0.2113 -0.3457 -0.1056
15476W        W31370   4.430   2.879   4.323 -0.1455 -0.1297 -0.1079
15477W        W31371   8.034  14.838   4.996  0.1387 -0.0881  0.1077
15478W        W31372   7.141   9.790  13.063 -0.3229  0.0971 -0.3100
15479W        W31373  11.019   3.404   3.912 -0.3653  0.1747 -0.0919
15480W        W31374   1.328  15.317  15.187 -0.0370 -0.1351 -0.1189
15481W        W31375   3.665  17.845   4.221  0.0981  0.2651 -0.0369
15482W        W31376   4.100   3.727  15.828  0.0359 -0.0184 -0.2919
15483W        W31377  16.280   7.835   4.040  0.1172 -0.1583  0.1378
15484W        W31378   0.919  13.203  11.459  0.2579  0.1006  0.0205
15485W        W31379  16.139  15.181   3.409 -0.1667  0.2561  0.1170
15486W        W31380   5.924  15.803  13.344  0.1747  0.1680  0.0691
15487W        W31381   3.782   8.559  11.168 -0.1186 -0.1070  0.0516
15488W        W31382   8.037   6.742   2.479  0.3174 -0.0510  0.1629
15489W        W31383   5.046   0.796  14.986  0.0118 -0.3189  0.0122
15490W        W31384  16.985   3.088   4.326  0.0031 -0.1243 -0.0016
15491W        W31385  14.766   8.861   6.088 -0.0257  0.0388 -0.0400
15492W        W31386   0.547  13.883   1.018  0.0502  0.0284  0.0232
15493W        W31387  12.045   8.432   3.894 -0.0342 -0.3506  0.1754
15494W        W31388   0.767   6.227  12.402 -0.0027 -0.4035 -0.1138
15495W        W31389   5.060   1.660  15.153  0.4154  0.0078  0.2161
15496W        W31390   6.046  16.452   1.745  0.0750  0.1885 -0.3438
15497W        W31391   0.489  13.565   2.679  0.3092  0.1507  0.1331
15498W        W31392  17.135   3.215   5.915 -0.3131 -0.0159  0.0785
15499W        W31393  11.648   6.668   3.519 -0.1112  0.0791 -0.0161
15500W        W31394   0.746   0.860   4.114 -0.0772  0.1730 -0.1455
15501W        W31395  12.719   1.426   4.869  0.3161 -0.1021 -0.0800
15502W        W31396   4.987  15.931  11.925  0.0187 -0.0431  0.1126
15503W        W31397  13.628   3.643  13.228 -0.3553  0.3704 -0.1554
15504W        W31398   7.381  14.404  12.444 -0.3688 -0.3076 -0.0763
15505W        W31399  14.014  15.886  13.905 -0.1505  0.1511 -0.0284
15506W        W31400   2.302   1.162  13.699 -0.0666  0.2602  0.0561
15507W        W31401   4.239   2.968  14.995 -0.0717 -0.4183 -0.1720
15508W        W31402   2.322  14.546  14.423  0.0563 -0.3060  0.1659
15509W        W31403  13.271   6.194  15.829  0.1983  0.2821  0.0099
15510W        W31404  13.917   7.332  14.112  0.1929  0.0307 -0.1042
15511W        W31405   1.033   9.368  15.466 -0.1537  0.0797 -0.3019
15512W        W31406   9.968  11.835  10.980  0.0574 -0.2236 -0.3162
15513W        W31407  14.381   5.919   3.495 -0.2496  0.1511 -0.1511
15514W        W31408   8.976  17.527  14.582  0.0510  0.3583  0.1317
15515W        W31409  11.424   2.426   0.994  0.2148 -0.1471 -0.3275
15516W        W31410   2.203  12.326   3.010  0.1147  0.2588 -0.2089
15517W        W31411   9.856   5.080   3.940 -0.2163 -0.1070  0.0567
15518W        W31412   0.000   7.314   5.593 -0.0395 -0.0104  0.1486
15519W        W31413   6.060  15.255  12.028  0.0690 -0.2118 -0.0145
15520W        W31414  12.592   2.050   5.187 -0.1102  0.1520 -0.2328
15521W        W31415   4.160  16.072  15.145  0.2907  0.3003  0.1538
15522W        W31416   5.833   5.758   3.392 -0.1171  0.3085 -0.1079
15523W        W31417   5.818  15.206   4.437  0.4219  0.0003  0.0307
15524W        W31418  13.317   2.874  14.266  0.0365 -0.1610  0.0022
15525W        W31419   6.365  16.729   3.093  0.2729  0.2090  0.0693
15526W        W31420  11.450  15.879   0.882  0.3298 -0.0054 -0.0207
15527W        W31421  15.917   6.630  14.599 -0.4692  0.3607  0.0434
15528W        W31422   8.780  11.788   3.960  0.0019  0.0628 -0.1880
15529W        W31423  10.583   5.488   0.680 -0.2168  0.0761 -0.0082
15530W        W31424   1.953   5.191  11.937  0.1775 -0.3644 -0.0616
15531W        W31425   3.274   8.275   4.554  0.0614  0.1182  0.3738
15532W        W31426  15.790   4.760  15.645 -0.0869  0.1033 -0.1589
15533W        W31427  17.790  12.134  14.145  0.0113 -0.0413 -0.1078
15534W        W31428  14.501   2.740  14.704 -0.0863  0.3408 -0.1197
15535W        W31429   8.702  14.297   1.110  0.1761 -0.3639  0.0065
15536W        W31430  17.935   8.825   3.188 -0.0133 -0.0085 -0.2305
15537W        W31431   3.181   2.425   4.412  0.3580 -0.1044  0.0339
15538W        W31432  12.732  10.957   3.639 -0.0836 -0.0407  0.0120
15539W        W31433   6.039  16.942   1.094  0.0206  0.0697  0.0407
15540W        W31434   6.813   1.343  13.568 -0.0871 -0.0880  0.2987
15541W        W31435   4.417   5.477   2.449  0.0572 -0.2840 -0.1589
15542W        W31436   9.707  10.824  15.100 -0.1644  0.2470 -0.0836
15543W        W31437  17.099   6.823  15.484  0.1066 -0.0373  0.0990
15544W        W31438   3.160   2.719   1.125  0.1068  0.0488  0.1079
15545W        W31439   3.457   0.555   4.770 -0.0980 -0.1741 -0.0405
15546W        W31440   2.396  17.397  12.614 -0.1199 -0.2477 -0.1219
15547W        W31441   7.924   9.351  13.095  0.0734 -0.3646 -0.1897
15548W        W31442   8.207   6.281  12.858 -0.3375  0.1971 -0.1415
15549W        W31443  16.171  11.539   4.134  0.0567 -0.5577  0.1013
15550W        W31444   0.004   8.169   3.357 -0.2020  0.2019  0.1420
15551W        W31445  16.100  17.761   1.287  0.3228 -0.2363  0.3585
15552W        W31446  12.193   0.154  12.837 -0.1342 -0.1870 -0.0119
15553W        W31447  16.689   8.776   6.508  0.3872  0.0139 -0.0040
15554W        W31448  11.878   1.440   3.379  0.1760  0.0466  0.0010
15555W        W31449   6.037   6.019  10.807  0.3574  0.0126  0.0154
15556W        W31450   4.709   8.166   4.848 -0.0358 -0.3788  0.0545
15557W        W31451   4.430  16.095   5.383 -0.2479  0.2670 -0.0659
15558W        W31452  15.491  11.397  15.265 -0.1986 -0.0581 -0.1140
15559W        W31453   6.175  13.904   3.429 -0.3529  0.0204  0.4243
15560W        W31454  11.255   8.006  11.484 -0.3589  0.0412  0.0710
15561W        W31455   5.970   7.359   3.832 -0.0114  0.3675  0.1500
15562W        W31456  10.668  12.678   2.585 -0.1852  0.2093  0.0410
15563W        W31457   8.753   0.842  12.884 -0.0713  0.0822  0.1173
15564W        W31458  17.253  16.485   3.313  0.1149  0.0837 -0.1850
15565W        W31459   3.872   8.010  12.549  0.0705  0.0926  0.0036
15566W        W31460   1.963  14.990  10.961  0.1683  0.2291  0.0540
15567W        W31461   4.352   1.468  10.385  0.1621 -0.0079 -0.4853
15568W        W31462  12.032  14.546   4.287  0.1906  0.0942 -0.0589
15569W        W31463  10.751  13.212   2.007 -0.0691  0.1901  0.0654
15570W        W31464   1.833   4.027  13.373 -0.3874  0.4832 -0.2347
15571W        W31465  11.902   5.142   5.496 -0.1543  0.3104  0.2107
15572W        W31466   2.260   5.487   1.094  0.2448 -0.2206  0.3961
15573W        W31467   4.596   7.950   0.268  0.1594 -0.1568  0.0115
15574W        W31468   5.388  11.010  12.884  0.0621 -0.3891  0.2483
15575W        W31469  11.833   4.636   4.814  0.0051 -0.0836  0.1256
15576W        W31470   6.008   3.632   2.603  0.2279 -0.0210  0.4980
15577W        W31471   9.437   2.322   1.749  0.0023 -0.1654 -0.0191
15578W        W31472  11.684  16.308  13.971  0.1544  0.0786  0.1378
15579W        W31473   9.281  16.541   2.833  0.0417 -0.4142  0.2784
15580W        W31474   6.578   9.300   3.749 -0.0003  0.1057  0.4411
15581W        W31475  17.460  11.468   5.546 -0.0578 -0.0431 -0.0656
15582W        W31476   2.513   5.082  11.994 -0.1867  0.0631  0.1392
15583W        W31477  12.762  17.981   1.524 -0.0798 -0.1892 -0.1700
15584W        W31478   7.514   1.351  14.287  0.2230  0.0421 -0.0749
15585W        W31479  15.136  17.636   3.948  0.2103  0.2169 -0.1878
15586W        W31480  11.081   7.795  10.981 -0.1481  0.2540 -0.3737
15587W        W31481   7.694  17.890   1.231  0.1020  0.2106 -0.0978
15588W        W31482   1.253   6.995   2.157 -0.0181 -0.1080  0.1321
15589W        W31483   2.717   6.921  14.443  0.2332  0.0221 -0.0309
15590W        W31484   9.916  12.605  14.677  0.2802  0.0768  0.0484
15591W        W31485  14.818   8.255   5.505 -0.0572 -0.2661  0.0198
15592W        W31486   2.982  12.163  14.930 -0.0217  0.1295 -0.1735
15593W        W31487   3.433  16.663   0.646 -0.4921  0.2819 -0.1270
15594W        W31488   1.511  17.684   0.220  0.0196 -0.1595  0.2938
15595W        W31489  15.615  16.467   4.978  0.0801  0.0068 -0.0101
15596W        W31490   0.633  10.951   3.088  0.0987 -0.0129 -0.0868
15597W        W31491   7.626   0.415  15.945  0.1056 -0.0217 -0.0268
15598W        W31492  12.131   8.116   5.146 -0.1099  0.2136 -0.2258
15599W        W31493  14.525   2.839   5.478 -0.4327  0.0369 -0.3764
15600W        W31494   5.942  10.826   5.137  0.1735 -0.0459  0.0536
15601W        W31495   8.733   7.819   1.057 -0.2344 -0.3043 -0.3986
15602W        W31496  10.439  13.177  15.019  0.0659 -0.0097  0.3198
15603W        W31497   2.948  18.122  11.680  0.1564 -0.1653  0.0681
15604W        W31498   2.600  10.710  14.371  0.2333 -0.0092 -0.1397
15605W        W31499   5.993  14.231   5.384 -0.0114 -0.3128  0.1603
15606W        W31500   2.950   9.402  14.608 -0.0344 -0.0926  0.1378
15607W        W31501   7.035   1.061   3.298  0.2354 -0.0717 -0.0716
15608W        W31502   4.414  12.255  13.699 -0.0190  0.0848  0.4065
15609W        W31503  14.644   2.360   4.919 -0.0039 -0.3969  0.3541
15610W        W31504   0.568   2.754   0.770  0.1017  0.2161  0.0695
15611W        W31505   4.672   0.071   4.980  0.0275  0.1504 -0.2303
15612W        W31506  14.891   4.660  14.521  0.1810 -0.3374  0.1349
15613W        W31507   4.567   1.242   5.702 -0.0195 -0.2318  0.0915
15614W        W31508  14.948  15.410   1.253 -0.1516  0.1618  0.1551
15615W        W31509  14.883  15.768   3.805  0.4011  0.0824 -0.0611
15616W        W31510  16.863   6.040   5.634  0.3076  0.1893 -0.0654
15617W        W31511  11.710   8.002   4.494  0.0320  0.0227 -0.1915
15618W        W31512   5.798  14.992  11.632  0.0804 -0.3394  0.1130
15619W        W31513   6.720   7.564   2.568 -0.1750 -0.0262 -0.0558
15620W        W31514   6.610   0.216   3.707  0.1057 -0.1470 -0.0082
15621W        W31515  15.439   8.655  12.674  0.0349 -0.1262  0.1085
15622W        W31516  14.180  12.593  11.554  0.1673  0.0518  0.3677
15623W        W31517  12.730   3.573   4.814  0.0088  0.3552  0.0710
15624W        W31518   5.664   3.304   5.410 -0.1077 -0.3777 -0.2134
15625W        W31519  15.814  15.392   0.942  0.1334 -0.0007  0.2446
15626W        W31520   1.597   0.406  11.871 -0.0996  0.3164 -0.1676
15627W        W31521  11.160   3.283  12.164  0.4651  0.0682  0.2014
15628W        W31522   9.388  12.960   3.683  0.0589 -0.1944  0.0223
15629W        W31523   9.457   7.853  11.786 -0.0267  0.0872  0.2111
15630W        W31524  12.863  15.926  13.017  0.1975  0.3021  0.2801
15631W        W31525   7.941  16.621  11.312  0.2143  0.2167  0.3464
15632W        W31526   3.364  10.285   4.919  0.0244 -0.1834 -0.2056
15633W        W31527  10.011   5.791  11.986 -0.1674 -0.1063  0.0748
15634W        W31528   5.450  13.328   4.047 -0.3502  0.2378  0.2936
15635W        W31529   0.096  14.605  11.619  0.3195 -0.0945  0.3983
15636W        W31530  17.072  11.579  13.020  0.0629 -0.1549 -0.2815
15637W        W31531  18.193  10.759  15.074 -0.1213 -0.0107 -0.0897
15638W        W31532  17.592  11.578  11.659 -0.1096  0.1408  0.0657
15639W        W31533  18.211  15.390   5.387 -0.1643 -0.1762  0.0915
15640W        W31534  13.527  12.227  12.641 -0.1390  0.1440 -0.1343
15641W        W31535  11.205  13.386   1.069 -0.4745  0.0559 -0.2328
15642W        W31536   9.754   3.792   5.381 -0.3461 -0.1006  0.3920
15643W        W31537   1.763  13.612   1.811  0.0998 -0.1289  0.1890
15644W        W31538  11.417   1.624   4.799  0.2455  0.4199  0.2380
15645W        W31539   4.436  13.644   2.628 -0.2177 -0.1637  0.0833
15646W        W31540   5.120  15.362  15.577 -0.1489 -0.2875  0.0695
15647W        W31541   9.538  11.324   1.137 -0.0661  0.1268 -0.1826
15648W        W31542  14.677   4.653   4.232  0.2600  0.0085 -0.1452
15649W        W31543  17.056   7.235  13.409  0.3402  0.1386  0.1059
15650W        W31544   6.321  13.382  13.549 -0.1072  0.1332  0.1188
15651W        W31545   0.569   3.467  13.198 -0.0783 -0.4051  0.1174
15652W        W31546   0.833  17.997  13.803  0.0404 -0.0417 -0.3518
15653W        W31547  15.151  16.205   6.012 -0.1238 -0.4433  0.0303
15654W        W31548   7.129   3.678  13.576 -0.0330 -0.0653 -0.3430
15655W        W31549   3.351   0.949  10.891  0.0026  0.2016 -0.0492
15656W        W31550   9.077  12.634  15.593  0.2390  0.3107  0.1196
15657W        W31551   7.696   1.082   3.502  0.2461 -0.0962  0.4357
15658W        W31552  13.541  12.852  14.200 -0.2583 -0.1072 -0.0108
15659W        W31553   1.813   0.086   0.916  0.1714  0.1152 -0.0417
15660W        W31554  16.653   6.446   1.942 -0.1954 -0.3173  0.2128
15661W        W31555  11.619   5.176   4.589 -0.0993  0.0858 -0.2965
15662W        W31556  16.030   1.272  12.177  0.4448 -0.0068  0.0928
15663W        W31557   9.875   8.359  13.363 -0.0370 -0.0259 -0.2650
15664W        W31558   2.401   6.631   0.793 -0.2079 -0.0216  0.0626
15665W        W31559  12.865   7.697   5.925  0.1350  0.1836  0.3895
15666W        W31560   3.340   8.687   3.263  0.1914  0.1293 -0.0284
15667W        W31561  13.257   1.532  16.147 -0.1461 -0.1540  0.1732
15668W        W31562  18.277  11.431  15.464  0.1119  0.0988 -0.3010
15669W        W31563  12.173   7.763   4.745 -0.0161  0.1318 -0.4348
15670W        W31564   4.589  15.230   1.934  0.1812  0.1404  0.2188
15671W        W31565   0.865   5.247   1.481  0.1996  0.1409 -0.0436
15672W        W31566   1.308   1.468   1.017 -0.1075  0.0174  0.0234
15673W        W31567   6.732  13.731  12.510  0.0697  0.3600 -0.4226
15674W        W31568   5.807  10.751   2.050  0.2416  0.3671 -0.1569
15675W        W31569  13.043  13.821  15.203 -0.0953  0.1518 -0.0349
15676W        W31570   9.754   0.383   0.084 -0.0335  0.1470 -0.2253
15677W        W31571  13.174  13.078   2.974  0.0215 -0.1734  0.1435
15678W        W31572  13.474  10.674   2.445 -0.1908 -0.1827  0.1119
15679W        W31573   3.829   5.387   0.743 -0.1003  0.0945  0.0343
15680W        W31574   8.063  17.388  12.238 -0.1802 -0.1026  0.1714
15681W        W31575   5.798  18.330   1.219  0.2867 -0.3489  0.2594
15682W        W31576  13.361   6.785  11.975  0.1434  0.3820  0.1609
15683W        W31577  15.341  13.164  11.477  0.1796 -0.0479 -0.0330
15684W        W31578  14.756   9.872   0.383  0.3203  0.2232 -0.1679
15685W        W31579   9.803   0.416   4.076 -0.2412  0.0642 -0.0493
15686W        W31580   2.116   0.249  15.582 -0.1461  0.0966  0.1309
15687W        W31581  14.292  11.068  12.105  0.1021 -0.0497  0.1611
15688W        W31582  12.346  12.897   3.591 -0.0282 -0.1042  0.2325
15689W        W31583  11.150   4.993  11.553  0.0132  0.0842 -0.0841
15690W        W31584   0.636  13.599   0.629 -0.0876  0.0532 -0.2649
15691W        W31585  13.945   7.432  13.455  0.0500  0.0996  0.3606
15692W        W31586  17.690  11.715   1.603  0.1199 -0.1365 -0.2239
15693W        W31587   1.379  14.371   0.565 -0.1979  0.2131 -0.2286
15694W        W31588   1.947   8.825  15.402  0.1346 -0.0585 -0.0729
15695W        W31589  12.590   3.812  15.611  0.0220 -0.0159  0.0268
15696W        W31590  10.224   2.150  12.943 -0.1396 -0.0125  0.0321
15697W        W31591   2.629  16.992   0.322  0.3093  0.0393 -0.0521
15698W        W31592  17.775   5.963   3.891 -0.1798 -0.0551 -0.0221
15699W        W31593   2.803  17.783  16.129 -0.0956 -0.1451  0.1703
15700W        W31594  11.449   1.915   3.802  0.1036  0.2520  0.1211
15701W        W31595  10.169   8.726   5.131  0.1201 -0.1791  0.2159
15702W        W31596  17.255   3.642   4.475 -0.1476  0.0164  0.0008
15703W        W31597   4.368   1.909  12.810  0.3452 -0.2237  0.0258
15704W        W31598  17.709   0.800   4.452 -0.1645 -0.0273 -0.2843
15705W        W31599  10.468   8.493   3.057  0.2191 -0.0899 -0.1044
15706W        W31600  17.312  16.689   0.797  0.1634  0.0343  0.1972
15707W        W31601   0.635  15.767  13.888 -0.1571  0.3144 -0.0820
15708W        W31602  11.019  13.395  10.872  0.0755 -0.0394 -0.1136
15709W        W31603   2.403   0.855   0.247  0.0593  0.0603 -0.1057
15710W        W31604   7.046   1.315   1.245  0.0273 -0.0235  0.3853
15711W        W31605  17.286  10.817   4.293  0.2506 -0.3227 -0.1874
15712W        W31606   9.874  15.857  12.829 -0.2944 -0.0119  0.1657
15713W        W31607  11.985  18.429  14.980  0.0276  0.1372 -0.3910
15714W        W31608   5.625   8.083   0.566 -0.0398  0.0119  0.0507
15715W        W31609   6.188  18.050   2.979 -0.1461 -0.1535  0.2408
15716W        W31610   5.919  15.052   3.602 -0.4026 -0.0751 -0.0276
15717W        W31611  15.873   4.963  13.064  0.1943 -0.0151  0.1417
15718W        W31612   9.779  17.346   1.975  0.2882 -0.1408 -0.1220
15719W        W31613   1.712   3.942  14.334 -0.0418 -0.1935 -0.1417
15720W        W31614  17.032   4.532   4.453  0.1450  0.2651 -0.0739
15721W        W31615  17.760   3.305   1.465  0.1917  0.1250 -0.1652
15722W        W31616   8.063  12.027  11.922 -0.2682  0.1411  0.1198
15723W        W31617   7.664  10.784  13.795 -0.2375 -0.0789  0.2122
15724W        W31618   7.374   0.734  12.076 -0.0236  0.1725  0.2800
15725W        W31619   5.758  12.755  11.016  0.0787  0.0261 -0.0316
15726W        W31620  14.402  13.523  11.758 -0.1873  0.1774  0.0531
15727W        W31621  10.866  12.564  12.598 -0.0306 -0.0837  0.0548
15728W        W31622  14.290  11.291   2.673  0.1152  0.4867 -0.1098
15729W        W31623   7.333   3.042  15.352  0.0180  0.1285 -0.1691
15730W        W31624   3.965   5.914   5.200  0.3082  0.1106 -0.1677
15731W        W31625   4.598   3.559  11.078 -0.0476  0.2284 -0.2216
15732W        W31626  14.008   7.910  14.317 -0.0217 -0.0293 -0.0981
15733W        W31627   2.176   5.248   3.245 -0.1896 -0.1407  0.2577
15734W        W31628  10.252   9.608  15.451 -0.2591 -0.0589  0.1049
15735W        W31629  14.945   0.917   0.001  0.0447 -0.2110  0.0314
15736W        W31630   9.151  11.675  12.380  0.5624  0.3992  0.0084
15737W        W31631   2.030   0.770  12.679 -0.0117  0.3400 -0.0287
15738W        W31632  16.026  10.518   2.644  0.0093  0.1397  0.0151
15739W        W31633  13.293   6.421   2.739  0.2075  0.3970 -0.0182
15740W        W31634  12.008  14.978   1.459  0.1841  0.2108  0.2156
15741W        W31635  10.384  13.182  10.761  0.0584  0.0025 -0.0367
15742W        W31636  18.106   4.627   0.686 -0.3024  0.3935  0.0983
15743W        W31637  10.660  14.503   0.165  0.2187  0.0683  0.0427
15744W        W31638  11.350  11.994  13.784 -0.2791 -0.2010  0.2254
15745W        W31639  12.357  16.823   4.920  0.1450  0.0554 -0.0703
15746W        W31640  17.556   3.509   4.971 -0.2051  0.2876  0.3483
15747W        W31641  13.127   2.998   3.028  0.1484 -0.1981  0.1885
15748W        W31642   6.126   3.670  11.429 -0.2257  0.1087  0.0169
15749W        W31643   4.008  16.308   4.889  0.0918 -0.2371 -0.0096
15750W        W31644  14.292  15.579  12.489 -0.0310  0.0391 -0.0669
15751W        W31645   1.227  17.344  14.318 -0.0421 -0.2525  0.0661
15752W        W31646   8.357   5.701   1.581  0.1220 -0.0666 -0.0085
15753W        W31647   6.528  13.088  11.273  0.0519 -0.2327 -0.1268
15754W        W31648   2.536   6.723  11.727 -0.2743 -0.0646 -0.0507
15755W        W31649   9.815   4.410   4.018 -0.2112 -0.2616 -0.0200
15756W        W31650   4.046   6.318   1.152 -0.0175  0.0952  0.0756
15757W        W31651   4.328  11.134  13.384 -0.2168 -0.1076 -0.2311
15758W        W31652  13.818   6.289  13.937 -0.0774  0.0988  0.0119
15759W        W31653   9.459   3.644  15.660 -0.1059  0.1888 -0.2199
15760W        W31654   7.560   8.392  14.332 -0.0030  0.1690 -0.0320
15761W        W31655  15.207   3.666  14.618 -0.4108  0.1264  0.2570
15762W        W31656   9.129  18.237   2.294 -0.1517 -0.2301  0.0536
15763W        W31657   5.067  16.303  12.849  0.1792  0.2618 -0.0674
15764W        W31658  15.294  17.344   4.403  0.0723  0.2097 -0.1475
15765W        W31659   3.462  11.353   5.364 -0.0564  0.1765 -0.2652
15766W        W31660  15.111  14.109  13.166  0.0604 -0.0162  0.0949
15767W        W31661   5.584   8.814  14.185 -0.0450  0.2580 -0.3074
15768W        W31662  17.098   0.843   0.682 -0.1217 -0.1169  0.0607
15769W        W31663   3.419   7.625   2.621 -0.2528  0.0760 -0.0668
15770W        W31664  12.891   0.585   1.450  0.0365  0.2015  0.2333
15771W        W31665  11.147  11.255   4.327 -0.0002  0.0388 -0.4074
15772W        W31666  17.543   6.700   6.106 -0.1837  0.1957  0.1118
15773W        W31667  12.793  13.947   2.256  0.1377  0.0667 -0.2622
15774W        W31668   6.447  15.595   3.421 -0.2203  0.0186 -0.2290
15775W        W31669   1.077  13.584   0.914  0.0157  0.1224 -0.0905
15776W        W31670   2.695   2.720  11.601 -0.2669  0.2320 -0.1826
15777W        W31671  15.791   1.520   2.418  0.1711 -0.3207  0.0971
15778W        W31672  15.019   5.148   6.005  0.0828  0.0588 -0.0025
15779W        W31673   8.817  14.781   4.642  0.2504  0.1893 -0.0424
15780W        W31674  15.538   2.295  12.153  0.1773  0.0246  0.1467
15781W        W31675   0.102   6.277   2.751  0.1339 -0.0814 -0.0473
15782W        W31676  10.773  18.054  13.638  0.0098 -0.2048 -0.1398
15783W        W31677   1.474  13.596  11.587 -0.5534 -0.1570  0.1372
15784W        W31678   8.858  15.046   5.533 -0.0539 -0.2346  0.2828
15785W        W31679   4.716   3.634  14.326 -0.2812  0.4307  0.3937
15786W        W31680  14.546   1.654  15.902 -0.1320  0.0682  0.0672
15787W        W31681   3.989  15.703  10.977  0.0308 -0.1522  0.1109
15788W        W31682  16.121  12.941   3.048  0.1651  0.1922  0.3275
15789W        W31683  15.622  11.243  14.240 -0.1502 -0.1252 -0.0244
15790W        W31684   9.046   2.632   4.704  0.0939 -0.0342  0.0624
15791W        W31685  12.330   7.211   3.277  0.0284  0.1180  0.1611
15792W        W31686  11.972   9.866   3.492  0.1212 -0.0606 -0.2231
15793W        W31687   4.143  14.510  12.711 -0.1243 -0.2000 -0.0167
15794W        W31688   7.453   1.282  11.915  0.2821  0.0386 -0.2046
15795W        W31689   9.869   3.175  12.029 -0.0471 -0.0539  0.0480
15796W        W31690   4.527   6.216  11.535  0.1305  0.0139  0.0632
15797W        W31691   4.916   7.304   3.126  0.2936 -0.1871  0.0343
15798W        W31692   2.432  17.938  10.908  0.4339 -0.1205 -0.1792
15799W        W31693   4.421   0.882   5.982 -0.2190 -0.2576 -0.1045
15800W        W31694  12.840   6.701   5.135 -0.4476 -0.0196 -0.1393
15801W        W31695  10.816  18.311   1.423  0.0540  0.2203  0.0390
15802W        W31696   6.715   6.299   5.564 -0.0685 -0.1229 -0.0074
15803W        W31697   0.660  18.401  11.630 -0.1458 -0.0883  0.0515
15804W        W31698   3.956   7.040   0.666 -0.1674 -0.0544  0.1395
15805W        W31699  16.523  18.087   0.735  0.1595 -0.0593 -0.3492
15806W        W31700   7.272   0.752  13.084 -0.0317  0.2369 -0.1344
15807W        W31701  17.463   5.656   2.135 -0.0935 -0.1552  0.1258
15808W        W31702  14.837   6.960  12.532 -0.1099  0.0506 -0.0004
15809W        W31703   8.383  15.316   0.133 -0.1343  0.0740  0.0268
15810W        W31704   2.501  11.696  11.623  0.0526  0.0303 -0.0510
15811W        W31705   5.847   0.212  11.263 -0.1689 -0.1713  0.1000
15812W        W31706   5.115  10.941   2.958 -0.1613  0.1426 -0.2097
15813W        W31707   3.781  12.786   1.892 -0.1474  0.0782 -0.0004
15814W        W31708   6.049   8.272  11.327 -0.0526 -0.3030  0.0253
15815W        W31709  18.192   0.650   3.072 -0.1618  0.0235 -0.3478
15816W        W31710   6.909  10.992  10.892  0.2126 -0.1512  0.0589
15817W        W31711  14.301   5.872  15.517  0.1933  0.1989 -0.2079
15818W        W31712   7.734  17.654  12.039  0.0036  0.1282  0.2086
15819W        W31713  15.559   3.111   0.833 -0.0486 -0.0818 -0.0186
15820W        W31714   7.399  10.199   4.644  0.2259  0.2406 -0.1356
15821W        W31715   9.264   7.852   2.330  0.1759 -0.0131  0.0348
15822W        W31716  16.114   0.905   3.254 -0.1348 -0.0831  0.1311
15823W        W31717   1.552  13.659  15.326  0.1698 -0.0162 -0.1345
15824W        W31718   8.187   7.007  12.400 -0.0957 -0.2221  0.1586
15825W        W31719   5.137   0.890   3.009 -0.0730  0.2920 -0.0069
15826W        W31720  15.875   3.694  12.311  0.1652 -0.0653 -0.0125
15827W        W31721  14.986  15.155  14.480 -0.1439  0.2281  0.1133
15828W        W31722   6.023   4.974  15.108 -0.0057 -0.2607  0.0590
15829W        W31723  13.425   4.534  13.280  0.0092  0.0267 -0.1582
15830W        W31724   9.705   3.011   1.439 -0.4796  0.2891 -0.0119
15831W        W31725   6.497   3.723  10.675 -0.0729 -0.0408  0.0840
15832W        W31726   3.849  15.696   3.156  0.0324 -0.1010  0.1443
15833W        W31727  12.662  10.681   5.466  0.3550 -0.1756 -0.1789
15834W        W31728  17.216   1.388   0.563 -0.0536  0.5686 -0.0861
15835W        W31729   0.651   4.653  12.783 -0.2906  0.1314 -0.0171
15836W        W31730   1.947  13.833  13.317 -0.1496 -0.0609 -0.2507
15837W        W31731   0.769   0.757  12.990  0.1120 -0.2075  0.1723
15838W        W31732   3.524   4.032  11.610 -0.1201 -0.0708 -0.0934
15839W        W31733  15.221  17.511  13.524 -0.2488 -0.1508  0.0293
15840W        W31734  14.333   5.132  15.664  0.0341  0.1954 -0.0647
15841W        W31735  12.714   9.986   0.269  0.1082  0.1065  0.1522
15842W        W31736   6.570   6.221   0.378 -0.2362 -0.0587 -0.1855
15843W        W31737  17.083   1.930   5.279 -0.0260  0.1174 -0.1707
15844W        W31738   9.700   6.479   5.172 -0.0866 -0.0184  0.2229
15845W        W31739   3.734  16.642   5.144  0.2582 -0.2874 -0.0154
15846W        W31740  12.543   4.100   4.686 -0.1203 -0.2109 -0.3729
15847W        W31741   5.667   6.861   0.908  0.0166  0.0320  0.1373
15848W        W31742  16.363   0.336  13.745  0.0348  0.1571  0.2236
15849W        W31743   4.195  18.308  14.618 -0.0465 -0.1325 -0.0339
15850W        W31744  11.076  16.256  13.853 -0.2317 -0.0518  0.2109
15851W        W31745  17.475  17.167   4.101 -0.0571 -0.0658  0.2301
15852W        W31746   0.366  16.822   0.224 -0.0277 -0.0139 -0.0441
15853W        W31747   4.707   4.466   3.670 -0.0817  0.2134 -0.1881
15854W        W31748  13.250  13.505  12.098 -0.0284  0.0702 -0.0054
15855W        W31749   3.297  10.769  13.387  0.0818  0.0275  0.0588
15856W        W31750   9.227  18.073   5.614 -0.0867  0.3229 -0.4110
15857W        W31751  12.375  17.645   2.068  0.1186  0.2149  0.0141
15858W        W31752  13.379   1.282  11.366  0.1241  0.0436  0.1485
15859W        W31753   3.402   2.333   4.011  0.2346 -0.2540  0.3566
15860W        W31754   5.683  11.630   4.762 -0.1487  0.2829  0.1343
15861W        W31755   7.203  12.618   0.745  0.1075 -0.0509 -0.0441
15862W        W31756   0.696   8.696   5.650 -0.2844  0.1961  0.3508
15863W        W31757  10.969   8.683   3.918 -0.2437  0.3365 -0.0589
15864W        W31758  11.561   2.678   0.562 -0.2817 -0.3707  0.0079
15865W        W31759  11.041  12.045   0.988 -0.3211 -0.2507  0.3514
15866W        W31760   2.108  17.988  12.668  0.1138  0.2836  0.0361
15867W        W31761  10.643   7.673  13.659 -0.0846  0.1535  0.0498
15868W        W31762  10.131   7.056  10.344  0.0967  0.2072 -0.3075
15869W        W31763   5.855   2.684  12.402 -0.0696  0.3620  0.0847
15870W        W31764   5.441   9.067  12.639 -0.0334 -0.0094  0.0975
15871W        W31765   3.930   2.914   4.354  0.3659  0.3695 -0.0330
15872W        W31766  16.543  14.169  11.132 -0.2571 -0.0333 -0.2833
15873W        W31767  15.389  16.667  10.251  0.1456 -0.0525 -0.0895
15874W        W31768   0.394   7.042   6.434  0.2100  0.2173 -0.1820
15875W        W31769   4.688   0.165   1.084  0.0924  0.1174  0.2378
15876W        W31770   2.163  15.240   3.177 -0.0871 -0.0027 -0.1342
15877W        W31771  12.260  14.647  13.367  0.1332 -0.0482 -0.1336
15878W        W31772   5.389  11.428  14.762  0.1130 -0.0486 -0.2513
15879W        W31773   4.205  12.598   4.292 -0.3584 -0.2434 -0.2207
15880W        W31774  10.747   6.569  10.983  0.0006 -0.0478 -0.1946
15881W        W31775  15.906  13.591  13.426 -0.1632  0.1055  0.0419
15882W        W31776   3.895   9.829   3.416  0.0838 -0.1295 -0.0040
15883W        W31777   1.631  18.133  15.416  0.2651 -0.2770  0.2274
15884W        W31778   0.969  14.879   3.171 -0.2134 -0.2052 -0.1463
15885W        W31779   2.791  14.043   0.451 -0.0796 -0.2843  0.2763
15886W        W31780   6.006   2.256   1.493  0.0626 -0.0602  0.1536
15887W        W31781   2.171  11.252  12.343 -0.1478 -0.1802  0.1337
15888W        W31782  11.397  10.316   5.529 -0.2357 -0.2140  0.0830
15889W        W31783  17.944   4.139   4.250 -0.2362 -0.2028 -0.2926
15890W        W31784  14.556  17.282   0.204 -0.0490  0.2256  0.2208
15891W        W31785   4.778   7.222  11.645 -0.0426  0.1669 -0.1848
15892W        W31786   1.291  10.573  14.810  0.1100  0.1064 -0.1379
15893W        W31787   7.432   5.723   3.733 -0.2573 -0.1633  0.0757
15894W        W31788  10.277  11.971   3.599  0.2027 -0.0857 -0.2344
15895W        W31789   7.749   8.655  15.271 -0.0419 -0.0304 -0.1178
15896W        W31790   7.589   2.260   1.288 -0.0618  0.1131  0.0410
15897W        W31791   3.251  18.324   2.686  0.0060  0.1231  0.3067
15898W        W31792   5.952  18.331   0.513  0.1130 -0.1284  0.0277
15899W        W31793   4.984   7.979  11.258  0.1259  0.4628 -0.1517
15900W        W31794   9.383   4.317   0.061 -0.2799 -0.1078  0.3309
15901W        W31795   3.497  14.178   2.521 -0.1179 -0.2512  0.0211
15902W        W31796   0.556  13.693  13.207 -0.0363  0.0815 -0.0688
15903W        W31797  14.782   3.445   3.477 -0.2726  0.1881  0.1535
15904W        W31798  11.195   3.976   5.061  0.3660 -0.0340 -0.1148
15905W        W31799   1.529  14.060  13.459  0.2233  0.2044 -0.2831
15906W        W31800   1.640   6.866  15.593  0.0584  0.1418  0.1658
15907W        W31801   1.462   0.521   2.306  0.0416 -0.1154 -0.2844
15908W        W31802  13.188  15.737  11.807 -0.2391 -0.1175 -0.1301
15909W        W31803  13.051   6.581  15.978 -0.0556  0.1992 -0.3679
15910W        W31804  18.333  16.233  11.736  0.3126  0.1797 -0.1742
15911W        W31805   9.832  14.705  10.517  0.1595 -0.1853 -0.0202
15912W        W31806   7.208  17.839   1.103  0.1709  0.0131 -0.2479
15913W        W31807   9.628  16.701   4.521  0.3886  0.2963 -0.3023
15914W        W31808   0.752  14.049   0.089  0.0799  0.2685  0.1162
15915W        W31809   2.905  17.838  13.302  0.1040  0.0856 -0.1354
15916W        W31810   7.628   2.577   6.138 -0.0207 -0.0617 -0.2182
15917W        W31811  12.025   6.791   0.822 -0.1980  0.1523  0.0629
15918W        W31812   1.865  18.176   3.569 -0.0813 -0.1569 -0.0586
15919W        W31813   8.397   2.998  10.926  0.4781 -0.0370  0.0965
15920W        W31814   9.146   2.071   2.473  0.1761  0.2515 -0.1617
15921W        W31815   4.602   9.439  13.649  0.2594  0.0810  0.1311
15922W        W31816   7.739   7.392   3.588  0.1299 -0.1509  0.3492
15923W        W31817   8.694  18.420  13.515  0.0594 -0.0273 -0.0792
15924W        W31818  17.132  14.139   0.812  0.4486 -0.0627  0.0437
15925W        W31819   5.137   6.788   3.137  0.2914  0.1300  0.1402
15926W        W31820  15.960   2.568  12.051  0.0825  0.4640  0.0363
15927W        W31821   3.106   1.042   4.813 -0.2661  0.2198 -0.0152
15928W        W31822   1.946   9.626  13.916  0.2806  0.2473 -0.1272
15929W        W31823  17.125  16.398   3.821 -0.2468 -0.2893 -0.0360
15930W        W31824   6.945  17.561  11.262  0.1072  0.1286 -0.0245
15931W        W31825   7.758  15.774   0.716  0.0827  0.2071 -0.2341
15932W        W31826   1.308   9.920  10.491  0.0828  0.0766 -0.2907
15933W        W31827  15.196  16.087   1.998 -0.2704 -0.1810 -0.2390
15934W        W31828   7.600   9.878  11.502 -0.0348  0.0251 -0.1856
15935W        W31829   4.613  16.580  13.849  0.2728  0.0083 -0.1095
15936W        W31830   2.487  17.330   0.009 -0.0505 -0.0312 -0.1704
15937W        W31831   8.373  16.585  13.838  0.0287  0.1268 -0.1025
15938W        W31832  17.696   3.220  13.061 -0.2797 -0.0869 -0.2129
15939W        W31833   7.153  11.474  12.707  0.2163  0.1716 -0.3614
15940W        W31834   0.368   8.277   2.925 -0.0213 -0.1521  0.1154
15941W        W31835   8.321   8.720   4.947  0.1005  0.0690  0.4326
15942W        W31836   9.868   9.769   0.154 -0.2829 -0.2956  0.1459
15943W        W31837   2.151   8.903  11.726  0.4141  0.1736 -0.0273
15944W        W31838   0.627   5.170  12.675 -0.1371  0.1254  0.0555
15945W        W31839  13.388   7.110  15.787  0.1061 -0.0225 -0.1396
15946W        W31840  15.463  15.372   1.407 -0.2562  0.1914  0.0660
15947W        W31841  11.102   2.167  13.963  0.0893  0.2524  0.1457
15948W        W31842   7.358  15.484   5.384  0.1642  0.2131 -0.2058
15949W        W31843   2.058   0.409  11.687  0.1173 -0.0353 -0.2881
15950W        W31844   4.997   6.735   0.474  0.2374 -0.0440 -0.0944
15951W        W31845  13.099   1.802  12.430 -0.2228  0.1529  0.1128
15952W        W31846   0.070  10.372   4.655 -0.1800  0.3917 -0.0256
15953W        W31847  17.752  17.481   1.451 -0.2527  0.5613 -0.1463
15954W        W31848   0.035  13.920   0.724 -0.1082  0.1247 -0.2089
15955W        W31849   5.151  12.482   2.529 -0.1519  0.3457 -0.3449
15956W        W31850  15.318  13.506  12.146 -0.1900  0.0534 -0.1747
15957W        W31851   2.823   5.257   0.259 -0.1391  0.2996 -0.1860
15958W        W31852   6.030   3.146   4.615  0.0058 -0.0887  0.0336
15959W        W31853  11.214  17.392   2.048 -0.1324 -0.0342  0.1289
15960W        W31854  14.418  15.437  15.240  0.1766 -0.1636  0.1788
15961W        W31855   8.019  10.943  14.137 -0.1775  0.0910  0.0048
15962W        W31856   8.734   3.675  11.537 -0.0985 -0.1148  0.0996
15963W        W31857  14.871  10.280   4.060 -0.2200  0.2792  0.2332
15964W        W31858   1.505  13.327   4.742  0.1561 -0.3531  0.1001
15965W        W31859  18.070  18.344   2.489  0.0670  0.0425 -0.0172
15966W        W31860  15.247  16.448  14.633  0.0853  0.3038 -0.0699
15967W        W31861   9.859  14.122  12.376 -0.0181  0.2429 -0.0513
15968W        W31862  15.050   5.818   3.130 -0.3172  0.1482  0.0916
15969W        W31863   7.764   7.787   0.732  0.0304 -0.0559 -0.0144
15970W        W31864  17.640   1.002   1.568 -0.1439 -0.0816  0.2233
15971W        W31865   6.950   2.162  11.992 -0.1682 -0.0180 -0.0103
15972W        W31866  17.418  11.811  10.817 -0.1654 -0.1398 -0.2829
15973W        W31867   8.174   1.722   0.172  0.1849 -0.1628  0.3365
15974W        W31868  14.150   9.750  14.722 -0.0462 -0.1022 -0.0595
15975W        W31869   8.222   7.392   5.150 -0.1796  0.1892 -0.0340
15976W        W31870  14.648  10.804   2.777 -0.1029  0.2224 -0.3410
15977W        W31871   5.937   9.111  13.975  0.0863 -0.0867 -0.1715
15978W        W31872  10.406   8.193   1.141  0.0421 -0.1447  0.2832
15979W        W31873   8.585   7.969   4.027  0.1403 -0.3707  0.1586
15980W        W31874  13.779  12.882  11.432  0.0419 -0.3015  0.2099
15981W        W31875  10.568   4.614  11.173 -0.0044 -0.1578 -0.0886
15982W        W31876  14.246   5.611   2.448  0.2488 -0.0972  0.1387
15983W        W31877  10.398  17.728   4.614 -0.1652  0.1252  0.1702
15984W        W31878   3.833   2.359   4.872  0.2101  0.3187  0.1075
15985W        W31879   9.366  12.082   2.407 -0.0198 -0.0234 -0.0888
15986W        W31880  13.814   1.647   3.414 -0.0217  0.0154  0.1593
15987W        W31881  13.563   4.424  12.269 -0.2358 -0.1692  0.1337
15988W        W31882   6.887  10.569  16.047  0.2787 -0.0908 -0.2375
15989W        W31883   2.599  14.539   3.719 -0.0462 -0.1139 -0.5284
15990W        W31884  15.879  16.834   0.946 -0.1081  0.3396 -0.0782
15991W        W31885   1.523   4.769   0.760  0.3617  0.1082  0.3742
15992W        W31886  17.616   7.792  12.567  0.1324 -0.2034 -0.2779
15993W        W31887   4.984  10.116   4.610  0.2160  0.1609  0.1806
15994W        W31888   3.333   7.790  14.301 -0.0013 -0.2058  0.2197
15995W        W31889   7.728  12.952   2.580 -0.0618 -0.0822  0.0915
15996W        W31890  17.106   0.342  14.255 -0.1062  0.0462  0.2150
15997W        W31891   0.080  17.625  15.735  0.3085  0.0313 -0.1294
15998W        W31892   8.708   3.131   4.310 -0.1223  0.1910  0.3120
15999W        W31893  15.302   1.158   5.294  0.2975 -0.2284  0.0327
16000W        W31894  16.968  10.997   0.317  0.1001 -0.0325  0.0948
16001W        W31895   6.061  12.804   1.587 -0.2085  0.2288 -0.1397
16002W        W31896  17.104   4.052   6.103  0.2352 -0.1905 -0.1955
16003W        W31897   6.949   6.761  12.753 -0.0814  0.1579 -0.1058
16004W        W31898   7.241  17.136  11.471  0.1653 -0.2738  0.0058
16005W        W31899   8.460  12.873  11.119 -0.1333  0.0666  0.1047
16006W        W31900   5.884  11.221  13.345  0.0897 -0.1120 -0.3243
16007W        W31901  11.832   8.884   0.202  0.1421 -0.2067 -0.1332
16008W        W31902  13.421  17.692  13.901  0.3113 -0.0632 -0.0412
16009W        W31903  13.999   9.488  15.147  0.1971 -0.0549  0.1528
16010W        W31904  17.215  10.938  16.070  0.1803 -0.0532 -0.0872
16011W        W31905   7.589  15.067   1.056  0.0226 -0.0144 -0.0122
16012W        W31906   6.273  17.124   0.039  0.0919 -0.1091  0.0017
16013W        W31907  17.630   2.267   0.468  0.0377 -0.0236  0.1753
16014W        W31908   6.518   7.255  14.408 -0.2814  0.0368 -0.1993
16015W        W31909   0.855  10.529  13.992 -0.1160 -0.0824 -0.0116
16016W        W31910   4.629   4.875   2.163  0.1282  0.0837 -0.0674
16017W        W31911  14.278   6.878  15.327  0.0220 -0.0509 -0.2250
16018W        W31912  10.629   4.658   1.749  0.1109  0.1238  0.0058
16019W        W31913   2.905   8.370  11.176  0.0428  0.0680  0.0200
16020W        W31914  17.538  17.327   4.608  0.0843  0.0076 -0.0379
16021W        W31915   2.866  11.688  13.183 -0.2162 -0.1619  0.0172
16022W        W31916   2.141   6.598  13.637  0.3563 -0.1258 -0.0747
16023W        W31917  14.903   0.868   2.117 -0.2252 -0.0011 -0.2448
16024W        W31918   1.973   7.257  14.668  0.1123  0.1639 -0.2126
16025W        W31919  11.128  14.238  14.965 -0.4571  0.2610  0.4264
16026W        W31920   9.573   4.666   3.660 -0.3099  0.0122  0.1470
16027W        W31921  12.988  18.131   4.164  0.0350 -0.1143  0.0256
16028W        W31922   2.537   4.087  11.603 -0.2060  0.0534  0.3051
16029W        W31923   0.459   9.487   5.780 -0.0363 -0.0371 -0.0938
16030W        W31924   2.496   6.462  14.609  0.0187 -0.0193 -0.0301
16031W        W31925   0.316  11.913   0.701  0.1094 -0.2861  0.0319
16032W        W31926   5.991  14.443   3.416  0.0884  0.2344  0.0657
16033W        W31927  10.476   7.583  11.831 -0.3835 -0.1959 -0.0353
16034W        W31928  11.034  16.663   5.231  0.1216  0.2113 -0.1762
16035W        W31929   6.107  12.003   2.283 -0.0559 -0.2406  0.0081
16036W        W31930   4.696  12.456  12.761 -0.0402  0.2896  0.3605
16037W        W31931   7.514   9.789  15.924 -0.2595  0.1718 -0.0093
16038W        W31932  15.845   7.807  13.345  0.0785 -0.0530  0.1695
16039W        W31933  11.633   2.466  13.980  0.2074 -0.2507 -0.1554
16040W        W31934   0.868  13.217  15.576  0.2930 -0.0541  0.0208
16041W        W31935   5.529   4.521   3.152 -0.0000  0.2728 -0.0059
16042W        W31936   1.117  10.866  13.032  0.2162 -0.2799 -0.0245
16043W        W31937   6.361   4.345   5.358  0.0732 -0.1897  0.4043
16044W        W31938   7.624  10.647  14.278  0.1097 -0.0335 -0.3150
16045W        W31939   2.398   7.783  14.327 -0.1659 -0.1568  0.1360
16046W        W31940   8.456   2.169   1.816  0.0642 -0.0440  0.0834
16047W        W31941  15.554   7.860  11.775 -0.1835  0.1577  0.1205
16048W        W31942   8.303   2.306  14.631 -0.2076  0.2375 -0.2054
16049W        W31943  15.199  13.540   2.308  0.3186  0.0497  0.1267
16050W        W31944  13.661  16.567   4.012 -0.0201 -0.2894 -0.1351
16051W        W31945   2.372  18.301  14.174 -0.0991  0.2163  0.0870
16052W        W31946   9.756   7.599  11.450  0.0572 -0.2482  0.0362
16053W        W31947   1.351  11.977   2.466 -0.0209 -0.0290  0.0246
16054W        W31948  16.218   6.587   1.834  0.0025  0.0430  0.1691
16055W        W31949   1.795   8.308  16.030 -0.1967  0.3804  0.0978
16056W        W31950  11.707   0.920   4.286 -0.0257 -0.2728  0.0714
16057W        W31951  14.732  17.366  15.508 -0.1447  0.2033  0.0873
16058W        W31952  17.452   4.885  14.543 -0.3934  0.1780 -0.1250
16059W        W31953   9.569   9.629   5.140 -0.1522 -0.2113 -0.2776
16060W        W31954  14.068  11.441   1.099 -0.1997  0.1546 -0.2095
16061W        W31955  15.423  12.734   3.824  0.0957  0.1331  0.1117
16062W        W31956   3.312  15.304   3.251  0.2581  0.0024  0.2297
16063W        W31957  16.700   0.054   3.751 -0.1429 -0.1098 -0.0201
16064W        W31958   1.824   2.380   4.680 -0.2191  0.0397 -0.0840
16065W        W31959   0.467   6.224   0.356  0.0769 -0.1275  0.1165
16066W        W31960  12.986   4.820  13.086  0.2677 -0.2057 -0.1003
16067W        W31961   6.278  11.844  13.099  0.1526 -0.2145  0.0947
16068W        W31962   2.809   7.375   0.494 -0.3251  0.0231  0.0629
16069W        W31963  11.995  13.241   0.565 -0.0674  0.0207 -0.3139
16070W        W31964   8.509   7.801   5.935  0.1434 -0.1576 -0.1936
16071W        W31965   3.523   6.417  14.671  0.0175  0.0306  0.2443
16072W        W31966   1.074   9.166   3.908  0.0868 -0.0772  0.2464
16073W        W31967   8.089  10.723   5.314  0.2764 -0.1797 -0.2114
16074W        W31968  14.832  10.066   5.184  0.1002  0.0129 -0.0670
16075W        W31969  18.134   8.340   3.030 -0.0360  0.0892  0.0863
16076W        W31970  12.551  17.208   2.128 -0.0647  0.1467 -0.1983
16077W        W31971   4.805   3.005   2.052  0.1033 -0.0684 -0.0334
16078W        W31972  13.199   7.387   0.803 -0.2264 -0.3365 -0.0046
16079W        W31973  10.306  11.175   0.648 -0.1405 -0.1513  0.0089
16080W        W31974   8.871  16.154  12.628  0.1382  0.0965 -0.0329
16081W        W31975   6.926   8.034  12.273  0.0491  0.0262 -0.3632
16082W        W31976   6.583   6.567   2.919 -0.1208  0.1078  0.3424
16083W        W31977  12.691  12.667   4.044 -0.0351 -0.3067  0.0028
16084W        W31978  10.250  16.753   1.112 -0.0107  0.2335  0.2057
16085W        W31979   7.044  11.327  14.094  0.0670 -0.0900 -0.2660
16086W        W31980  18.349  12.058   3.244 -0.0846 -0.1743 -0.1116
16087W        W31981   8.614   9.547   1.708  0.0208 -0.0004 -0.1949
16088W        W31982  12.370  17.783   4.424  0.0908 -0.0305 -0.1569
16089W        W31983   6.140  11.433  15.673 -0.3167  0.0885 -0.1199
16090W        W31984  11.672   8.845   2.793  0.1596 -0.1033 -0.2058
16091W        W31985   1.570   1.952  11.920  0.0152  0.2471  0.1264
16092W        W31986   7.071  11.052   3.721 -0.3450  0.0111 -0.1440
16093W        W31987   7.700  10.795  11.503  0.4332  0.0062 -0.1561
16094W        W31988  14.206   5.544  12.963  0.0476 -0.0245 -0.1344
16095W        W31989   8.264   4.052   4.313  0.0253 -0.2271 -0.3564
16096W        W31990  14.613  15.646  12.064 -0.2283  0.1867 -0.2196
16097W        W31991   1.847  13.005   0.918  0.0559 -0.0537 -0.2936
16098W        W31992  17.331  17.467   0.230  0.0453  0.0682  0.0783
16099W        W31993  13.319   4.977   3.679 -0.2433  0.2019 -0.1157
16100W        W31994  11.749   3.434  12.904  0.4183 -0.1359 -0.1863
16101W        W31995   6.174  11.463   2.385 -0.0494 -0.0072  0.0703
16102W        W31996  12.720   7.844  12.659  0.0499 -0.0347  0.1754
16103W        W31997  12.233   2.982   0.243  0.1977 -0.0927  0.1828
16104W        W31998   7.725   7.526  14.035  0.1391 -0.0110 -0.2279
16105W        W31999   6.431   6.717  15.870  0.4214 -0.0449  0.0563
16106W        W32000   2.828   9.865  11.862 -0.0218  0.3599 -0.3286
16107W        W32001  14.297  10.612  15.741 -0.1264 -0.1121  0.1015
16108W        W32002  12.410  13.950   2.883  0.3557 -0.2920 -0.1968
16109W        W32003   1.444  16.402   2.460 -0.0313  0.1448 -0.0603
16110W        W32004   3.429   5.684   0.895 -0.0819 -0.2187 -0.0461
16111W        W32005   3.877   3.124   2.541  0.0914 -0.0160  0.0310
16112W        W32006   7.881  17.244  10.666  0.1365 -0.4053  0.0553
16113W        W32007   1.900   4.631   2.973 -0.0073  0.2714 -0.1990
16114W        W32008  13.734  13.130   3.279  0.1717 -0.0595 -0.2928
16115W        W32009   2.938  17.512  15.186 -0.3048 -0.1863 -0.0269
16116W        W32010  11.391  14.983   2.618  0.0526  0.0229 -0.2466
16117W        W32011  12.854  12.149   5.810  0.1227 -0.2438 -0.0157
16118W        W32012  10.061   0.461   3.659  0.1738  0.0541  0.1062
16119W        W32013   3.004  16.722   0.848  0.1152 -0.2412  0.0662
16120W        W32014   7.007  11.738   4.320  0.0826 -0.0777 -0.2146
16121W        W32015  17.173  18.422   3.552  0.0258  0.0629 -0.3458
16122W        W32016  17.090  16.307  13.670 -0.0059 -0.3085  0.0884
16123W        W32017   9.148   1.641   0.402 -0.1127 -0.2063 -0.1201
16124W        W32018   7.957  16.396  10.507 -0.1405  0.1313 -0.3723
16125W        W32019   3.576   9.859  14.948  0.0008 -0.1171 -0.0304
16126W        W32020   5.915   7.689   1.899  0.1642 -0.0811  0.2672
16127W        W32021  18.321   4.168  14.757 -0.2109 -0.0151 -0.2500
16128W        W32022  12.401   5.869   0.114  0.0995 -0.1958 -0.1400
16129W        W32023  17.520   4.496   2.633  0.1706  0.1107 -0.3510
16130W        W32024   9.100  10.145   0.597  0.0100 -0.0174  0.0632
16131W        W32025  12.723   9.106   0.460  0.0251 -0.0994 -0.0241
16132W        W32026   8.347   3.946   2.438  0.2531 -0.1421  0.1271
16133W        W32027  16.455  12.610   5.044  0.1198 -0.2367  0.0078
16134W        W32028  15.676   1.667   1.882  0.1126 -0.1417 -0.4393
16135W        W32029  17.879  16.670  11.932 -0.0446 -0.2075 -0.2773
16136W        W32030  11.766  15.261   4.173 -0.0821 -0.2029  0.5178
16137W        W32031   5.849   9.726   1.223 -0.1752 -0.2518 -0.0674
16138W        W32032  16.850  10.310  12.166 -0.1151  0.0352 -0.1341
16139W        W32033  16.993   3.018   3.291  0.1852  0.1140  0.2437
16140W        W32034  11.027   6.984  12.063 -0.2413  0.2928  0.4825
16141W        W32035   7.483   3.040  16.068  0.2016 -0.0104 -0.1809
16142W        W32036   0.135  13.128   4.258  0.1775 -0.0282 -0.3932
16143W        W32037  17.395  13.836   2.048  0.1197  0.0035 -0.0779
16144W        W32038  13.248   4.346  16.015 -0.1158 -0.2539  0.0836
16145W        W32039   8.231   9.917  11.467 -0.2988  0.2221  0.3109
16146W        W32040  13.453  10.791   0.657  0.0360  0.0741  0.2718
16147W        W32041  13.881  12.548  14.993  0.0974 -0.1094 -0.1260
16148W        W32042   0.437   5.921  14.196  0.0380 -0.1280  0.0454
16149W        W32043  11.658  18.421   0.360  0.1828 -0.0218  0.2271
16150W        W32044  18.421   1.199  14.668 -0.1235  0.1030 -0.1166
16151W        W32045   9.450   9.377   2.347  0.0294 -0.1929 -0.2363
16152W        W32046   8.298   2.092  14.188 -0.0675  0.0429 -0.1178
16153W        W32047  15.430  14.541   0.891 -0.2709  0.0048 -0.0586
16154W        W32048  12.436   9.843  14.201  0.0850  0.3996 -0.1629
16155W        W32049   9.525  11.268  11.487 -0.1477  0.0807 -0.0496
16156W        W32050   1.644  17.058  14.382 -0.2262  0.0603 -0.5153
16157W        W32051   6.440  12.753   1.954  0.3553 -0.0409 -0.5617
16158W        W32052  17.720   6.392   3.389 -0.0703 -0.0038 -0.1413
16159W        W32053   7.127   3.369  10.884 -0.2416  0.0173  0.1314
16160W        W32054  14.663  17.032  13.893  0.0753 -0.2835  0.0446
16161W        W32055  18.051   1.687  12.403  0.2049 -0.2051 -0.0212
16162W        W32056  10.099   2.466  12.557 -0.0705 -0.0394  0.2383
16163W        W32057  10.835  10.796  15.470  0.1269  0.2722  0.2382
16164W        W32058  10.676  13.433   3.949 -0.0005 -0.1187  0.0509
16165W        W32059  13.620  14.993   0.977 -0.2911  0.0359 -0.1052
16166W        W32060   2.118   2.714  15.388  0.0424 -0.1178 -0.0182
16167W        W32061   6.785   5.690   2.140 -0.1879  0.0878 -0.1400
16168W        W32062  14.788  12.420   5.006 -0.0830 -0.1120 -0.0834
16169W        W32063   4.579   1.346   4.156  0.1391 -0.0814  0.1896
16170W        W32064   7.637   6.095  12.955  0.0133  0.1501 -0.1399
16171W        W32065   5.251  14.390   4.771 -0.1423 -0.0255 -0.2771
16172W        W32066  13.687   1.767   2.053 -0.0341 -0.1047  0.2481
16173W        W32067   0.299  14.177  15.441  0.2306 -0.6758 -0.1263
16174W        W32068   5.648  16.043   3.797  0.2018  0.0785  0.1080
16175W        W32069   1.922  14.477   1.569  0.1071 -0.3609  0.0991
16176W        W32070  13.672  12.730   4.217 -0.1591 -0.0795 -0.2265
16177W        W32071   5.054  16.862   3.513 -0.0428 -0.0828  0.1138
16178W        W32072   9.338  13.427   1.986 -0.4000  0.1525 -0.3592
16179W        W32073   4.652  12.682  13.928 -0.2130 -0.0853 -0.1591
16180W        W32074  16.194   5.889   5.375  0.1731  0.0772  0.1615
16181W        W32075   2.377   3.605   5.578 -0.0289  0.0256 -0.0994
16182W        W32076  13.392   9.471   0.680 -0.0391 -0.1353 -0.1364
16183W        W32077   2.707  17.364   4.130  0.2654  0.0865  0.0724
16184W        W32078  16.897  15.081   1.554  0.0757  0.1117  0.0058
16185W        W32079   9.416   6.840   2.305 -0.0079 -0.1095  0.0605
16186W        W32080   9.681  14.485   4.519  0.3103 -0.3236 -0.1850
16187W        W32081  10.196  12.077   5.774 -0.2558  0.1435  0.0343
16188W        W32082  14.905   0.170  12.349  0.1688  0.0026  0.0407
16189W        W32083  13.551   9.110  14.037  0.1457 -0.1690  0.0290
16190W        W32084   9.700   4.100  12.376  0.4625  0.0539 -0.0179
16191W        W32085  10.441   2.046   1.041  0.0555 -0.2067  0.2391
16192W        W32086   9.296   5.944  14.672 -0.1200 -0.4622 -0.3072
16193W        W32087   6.461   3.476  14.725 -0.3973 -0.2109 -0.1485
16194W        W32088   5.921   7.154   0.587  0.3160 -0.0406 -0.1246
16195W        W32089   4.437   0.910  14.744  0.1052  0.1188 -0.0423
16196W        W32090  10.660  14.713   3.671 -0.0192 -0.3818  0.0447
16197W        W32091   5.641  13.115   0.169 -0.1617 -0.2853  0.3125
16198W        W32092   6.532   1.325   1.419  0.1032 -0.0364  0.0087
16199W        W32093  10.870   8.442   0.881  0.1262  0.0567 -0.1791
16200W        W32094  14.132   3.016  12.071 -0.1233 -0.0312 -0.0134
16201W        W32095  11.921  13.612  14.297 -0.0276  0.1915  0.0502
16202W        W32096   4.562   4.277   5.943 -0.0679 -0.1902  0.2164
16203W        W32097   1.668   2.456   2.628  0.1310 -0.1037 -0.3934
16204W        W32098  12.357   1.344   1.514 -0.1682 -0.4114 -0.3644
16205W        W32099  12.290  15.218   3.286  0.2755 -0.3398  0.0207
16206W        W32100  11.425   7.929   2.299  0.3559  0.0369  0.4130
16207W        W32101   7.168   4.003   2.705 -0.4762  0.3254 -0.2940
16208W        W32102  16.277  18.287  10.442 -0.0514 -0.2322 -0.0265
16209W        W32103   4.676  13.896  14.454 -0.0512  0.3102  0.1538
16210W        W32104  15.421   8.543   0.794 -0.0397 -0.1903  0.1658
16211W        W32105   5.343   2.521  13.236  0.1025  0.2108 -0.1647
16212W        W32106   5.809   7.461  14.077  0.2327  0.0741  0.0907
16213W        W32107   5.473   2.330   4.462 -0.4719 -0.2664 -0.1867
16214W        W32108  12.180   9.139   0.553 -0.1012 -0.0090  0.1743
16215W        W32109  12.072  15.579   0.935 -0.1405 -0.1386 -0.0520
16216W        W32110   4.512  16.529  14.410 -0.1517 -0.2840  0.0697
16217W        W32111  12.441  12.333   3.701 -0.2854  0.0192 -0.0810
16218W        W32112  14.124   6.388   3.259 -0.2493 -0.2068  0.0529
16219W        W32113  14.892  12.783   3.111 -0.2742 -0.0073  0.2298
16220W        W32114  16.295   4.175   0.026 -0.0602 -0.1122 -0.3467
16221W        W32115   5.697   2.341  13.657  0.0404 -0.1316  0.0556
16222W        W32116  16.552  15.927   1.326  0.0600  0.0248 -0.4205
16223W        W32117  17.837  16.951  11.492 -0.0286 -0.1496 -0.0349
16224W        W32118  18.137  13.349   1.890 -0.0255  0.1425 -0.1765
16225W        W32119  10.542  13.698   0.664 -0.0838  0.1045 -0.2223
16226W        W32120   9.155  10.006  14.920  0.0739  0.2868 -0.0513
16227W        W32121   0.430   5.842   2.514  0.1332 -0.1359  0.0198
16228W        W32122  15.138  10.545   4.457 -0.2699 -0.0399  0.0996
16229W        W32123   1.238   1.167  16.090 -0.0730 -0.0698 -0.3517
16230W        W32124   7.830  12.690  14.038 -0.0309 -0.0567 -0.0195
16231W        W32125  10.004   8.834  11.829 -0.1086 -0.0461 -0.1995
16232W        W32126  10.830   9.138  13.772  0.0468 -0.2331 -0.0314
16233W        W32127   6.227   1.824   1.410 -0.3971  0.0177 -0.0925
16234W        W32128   5.276  13.424   2.305  0.0232 -0.0680 -0.1064
16235W        W32129   2.326   2.767  13.919 -0.1100 -0.0044  0.1315
16236W        W32130   0.085  18.311  12.590 -0.0698 -0.0904 -0.3800
16237W        W32131   3.028   4.895  12.293 -0.1020 -0.0345 -0.0219
16238W        W32132  13.487   3.873   1.200  0.0016  0.2151 -0.0711
16239W        W32133   6.613  14.022  13.001 -0.1233 -0.2997 -0.0750
16240W        W32134   8.157   4.814  13.425  0.2756 -0.1122  0.0787
16241W        W32135  18.149   6.151   3.622  0.0855 -0.1454 -0.0132
16242W        W32136  14.861   9.506   3.315  0.1067  0.1027 -0.1768
16243W        W32137  10.985   0.933   4.753 -0.0926 -0.0093 -0.0142
16244W        W32138  14.781   4.783   1.862  0.1669 -0.0528 -0.2411
16245W        W32139  16.764   0.264   5.943  0.1560  0.4214  0.0036
16246W        W32140  13.918   1.243   1.656 -0.0619 -0.0944 -0.0518
16247W        W32141  12.386   0.817  11.706  0.2047  0.1936 -0.1848
16248W        W32142   6.735  16.949   5.660  0.2827  0.1380  0.1178
16249W        W32143   1.271   1.584  14.028 -0.1864 -0.2154 -0.3244
16250W        W32144   6.412  12.078   0.370  0.0597  0.0816 -0.1403
16251W        W32145  12.395   7.624   0.686  0.1649  0.3139 -0.2860
16252W        W32146  15.320   2.244   5.627  0.2270  0.4936 -0.0924
16253W        W32147   4.649  17.626   4.850 -0.2375 -0.1651  0.0091
16254W        W32148  16.233   2.443   2.110  0.1562  0.0473  0.2495
16255W        W32149  13.735   9.499  14.392  0.1648  0.0841 -0.2232
16256W        W32150   5.119   9.274   3.171  0.0521  0.0735  0.1986
16257W        W32151   0.964  17.012   1.099  0.2479 -0.3180  0.0395
16258W        W32152   5.037   3.381   2.287  0.1164 -0.2278 -0.1451
16259W        W32153   9.662   7.508   1.286 -0.0845 -0.1359 -0.0034
16260W        W32154  13.260   5.777   2.647 -0.0469  0.0590  0.0670
16261W        W32155  12.132  11.666   9.504  0.1750 -0.2367 -0.0178
16262W        W32156   2.447   1.072  15.979  0.0728 -0.0573 -0.1227
16263W        W32157   5.619  15.890   2.373 -0.3154  0.1154  0.1666
16264W        W32158  13.034   4.490  11.499  0.0738  0.0678 -0.3501
16265W        W32159   6.074  17.940   2.327 -0.5275  0.0207  0.0421
16266W        W32160   1.029   0.200  11.398 -0.2321 -0.1410  0.3339
16267W        W32161  12.808  18.016   4.703  0.0365 -0.0518 -0.0742
16268W        W32162   7.726  16.501   4.192 -0.1090  0.0660 -0.0180
16269W        W32163  10.718  11.206  12.808 -0.0516  0.5340  0.0826
16270W        W32164  15.869   1.804   1.464  0.1511 -0.0609  0.1661
16271W        W32165  13.418   9.138  15.351  0.1388  0.0434  0.2775
16272W        W32166   9.886  16.953  15.787 -0.1913  0.2597  0.0915
16273W        W32167   8.977   8.408   2.387  0.0335  0.1413 -0.2109
16274W        W32168  11.456   5.893  12.319  0.1902  0.2015  0.2567
16275W        W32169  12.706  17.980  15.637  0.0440 -0.0056  0.1377
16276W        W32170   7.666   5.839   4.644 -0.5077 -0.0846 -0.2640
16277W        W32171  18.264  16.861   0.752  0.0168 -0.2019  0.0145
16278W        W32172   0.685   2.535   3.396 -0.2424  0.0513 -0.2219
16279W        W32173   9.154  14.900   5.095 -0.0315  0.1354  0.0303
16280W        W32174   2.768   2.318   3.179 -0.1029 -0.1621  0.4221
16281W        W32175   2.200   7.173   3.445  0.1914 -0.0626  0.1514
16282W        W32176   3.631  14.637   1.682 -0.1446  0.2170 -0.0275
16283W        W32177  16.198   1.323  14.117  0.1155  0.0519 -0.2945
16284W        W32178  15.978  17.752   2.116  0.1559  0.0032  0.0280
16285W        W32179   6.883  12.925  10.984 -0.0583 -0.0550  0.2535
16286W        W32180  17.963   3.948  13.148  0.1404  0.0309 -0.0730
16287W        W32181   1.928   8.032  13.925  0.2253  0.0412 -0.1739
16288W        W32182   6.141   0.500   2.900  0.0664 -0.0096  0.1045
16289W        W32183   0.237   5.530   2.206 -0.2399 -0.4468 -0.0425
16290W        W32184  12.404   0.388   1.065  0.1096  0.1154  0.1844
16291W        W32185  14.281   6.759  14.844  0.0978  0.2196 -0.0468
16292W        W32186  15.029  14.762   0.626  0.3138  0.2131 -0.1841
16293W        W32187  16.111  16.113   3.070  0.0188  0.2503 -0.1917
16294W        W32188   0.919  11.190  15.572  0.1831  0.0614 -0.1673
16295W        W32189   7.414   9.044   0.766  0.0527  0.0936  0.2256
16296W        W32190   0.202   3.510   2.277 -0.0514  0.4373 -0.0257
16297W        W32191   3.185   9.137   5.688  0.0832 -0.0195 -0.0818
16298W        W32192  13.398   5.315   2.504 -0.2017 -0.1629  0.0642
16299W        W32193   4.602  14.408   4.380  0.1534  0.1787  0.2513
16300W        W32194   0.579  14.565   2.401  0.1560  0.1912  0.1057
16301W        W32195  14.824  10.952   4.517 -0.2070  0.0950  0.2472
16302W        W32196   3.022   8.032   5.514 -0.0463  0.0105  0.0908
16303W        W32197  15.494   7.185   3.815  0.1068 -0.0098  0.2945
16304W        W32198   7.240   9.390   1.184 -0.0151 -0.0474  0.0090
16305W        W32199  17.487   4.234  12.818 -0.1020 -0.0689  0.3096
16306W        W32200  12.369   5.137  12.439 -0.0805  0.1055 -0.1594
16307W        W32201   0.526  18.241   1.488  0.1993 -0.1010 -0.3414
16308W        W32202  17.244   5.540   6.511  0.1871 -0.1875 -0.0569
16309W        W32203  10.580   9.672   5.474  0.0261  0.0674  0.2371
16310W        W32204   6.815  18.154  12.172  0.3957  0.0617  0.1068
16311W        W32205   5.067  13.087   1.213  0.1698  0.1754  0.2154
16312W        W32206   8.067   4.382   3.711 -0.1356  0.3274  0.0614
16313W        W32207   5.076  16.188  12.375 -0.2310 -0.2149 -0.1119
16314W        W32208   1.736  16.494  14.504 -0.0829  0.0240 -0.1048
16315W        W32209  16.383   1.113   5.759  0.1349 -0.3775  0.0481
16316W        W32210   2.584  17.057   3.741 -0.0210 -0.3857 -0.0768
16317W        W32211  15.463   1.225  13.263 -0.0588 -0.1202 -0.1570
16318W        W32212   6.586   2.326  15.561 -0.0545 -0.1320 -0.1145
16319W        W32213   5.527   4.132   1.813 -0.3823 -0.2570  0.2965
16320W        W32214  17.393  16.141   6.066 -0.0639  0.1429 -0.1195
16321W        W32215  15.795  12.524   2.039 -0.1812  0.1499 -0.1948
16322W        W32216   1.284   6.806  13.195  0.0009 -0.0855 -0.0365
16323W        W32217   3.603   4.695  13.858  0.1755 -0.0656 -0.1058
16324W        W32218   3.253   7.447  11.415 -0.2202 -0.0850  0.4567
16325W        W32219  16.113   9.158   1.953 -0.1571 -0.0299  0.2749
16326W        W32220   5.011   1.975   0.173  0.3411  0.2793  0.0112
16327W        W32221  16.914   1.238   5.854 -0.0811 -0.2206  0.0314
16328W        W32222   9.198   5.073   2.344 -0.2928  0.1413  0.2450
16329W        W32223  13.795   9.120  13.583 -0.1790  0.1215  0.0073
16330W        W32224   0.785   0.974   2.854 -0.0963  0.3001  0.0708
16331W        W32225  18.436  15.188   1.330 -0.0888  0.1570 -0.1381
16332W        W32226  12.597   5.112   0.943 -0.2066 -0.0671  0.3270
16333W        W32227  16.935  18.101  13.562  0.2124  0.1456 -0.1060
16334W        W32228   9.679   1.484   3.511  0.1881 -0.1197  0.1647
16335W        W32229  17.130  16.014  16.125 -0.0015  0.0812  0.0563
16336W        W32230   0.920   2.722  14.267 -0.0567  0.1716 -0.2407
16337W        W32231   6.678  14.632   1.329 -0.0731 -0.1399 -0.2912
16338W        W32232  16.717   1.346   0.714  0.1133  0.2830 -0.1643
16339W        W32233   9.053   4.290   3.681 -0.1243 -0.0702 -0.0852
16340W        W32234   7.235   8.777   5.128 -0.1593  0.1548  0.1634
16341W        W32235   4.684   6.113  12.485 -0.0622  0.0487 -0.1549
16342W        W32236  16.891  11.168  15.209  0.2641  0.1995  0.1729
16343W        W32237   3.788   5.843  13.827 -0.1359  0.0857 -0.1173
16344W        W32238  13.096   8.144  13.725 -0.1479  0.0585  0.0582
16345W        W32239   1.665  16.694  13.122  0.0804 -0.1482  0.1434
16346W        W32240   6.698   3.904  13.509 -0.2387 -0.2674  0.0277
16347W        W32241  12.734   3.122  11.368  0.0336  0.0276  0.1907
16348W        W32242  18.316  13.817   1.185 -0.1135 -0.2860  0.1621
16349W        W32243  14.036   1.099  15.654  0.1400 -0.0803 -0.1481
16350W        W32244   2.481  17.001  14.165  0.2788 -0.2115  0.0889
16351W        W32245  10.327   1.573  12.330  0.0106  0.1435 -0.0674
16352W        W32246   5.141  14.608  14.425 -0.2372  0.0338 -0.0696
16353W        W32247  13.075   9.879   1.070 -0.1102 -0.0444 -0.2785
16354W        W32248   1.111   8.963   5.442  0.0103 -0.0425  0.0441
16355W        W32249   8.350  11.374   5.880 -0.5991 -0.2128  0.0322
16356W        W32250   8.078   5.439  12.747  0.0294 -0.1714  0.0133
16357W        W32251  11.412   5.283  15.529 -0.2918  0.1365 -0.0189
16358W        W32252  15.849  10.406   2.159  0.1225  0.0713  0.3999
16359W        W32253   5.175  17.964   1.460  0.3105 -0.0277  0.4296
16360W        W32254  13.643   8.021  13.606 -0.0639  0.0908  0.2018
16361W        W32255  15.812   4.476   1.298 -0.2476 -0.3403 -0.2045
16362W        W32256  12.866  13.352  11.823 -0.1117 -0.0103  0.1296
16363W        W32257  15.436  16.927  15.385  0.0415 -0.0512 -0.2019
16364W        W32258   8.922   7.062  11.805  0.0774 -0.0804  0.0337
16365W        W32259   8.517  17.254   2.907 -0.3234  0.0197 -0.0572
16366W        W32260   8.761   6.046   5.600  0.1842  0.1401  0.0151
16367W        W32261  11.408  10.077  14.609 -0.0969 -0.0141  0.1143
16368W        W32262   6.242   8.874   2.566  0.1587 -0.3614  0.0089
16369W        W32263  11.196   2.742   0.154 -0.0244 -0.1473  0.3223
16370W        W32264  17.998  15.808  12.877 -0.0676 -0.1585  0.0927
16371W        W32265  12.881   5.971   0.428 -0.0770  0.2860  0.3026
16372W        W32266   6.681   1.474   4.778  0.0411 -0.0848  0.0841
16373W        W32267   7.463   5.678  14.469  0.3851  0.1050  0.1989
16374W        W32268   8.569  18.353   4.936  0.1724  0.1070 -0.2779
16375W        W32269  10.706  15.463  11.775  0.3098 -0.1303  0.0717
16376W        W32270  16.167   0.663   4.136  0.0653 -0.3216 -0.0577
16377W        W32271  13.606  17.826  12.848  0.2153 -0.0620  0.0023
16378W        W32272   9.177  12.978   1.866  0.2668  0.1924  0.2268
16379W        W32273   5.722   4.542   1.176  0.1768  0.0295  0.1570
16380W        W32274  17.777   0.022  11.906 -0.3720  0.0297 -0.3246
16381W        W32275   7.292  14.402   0.560 -0.1172  0.0527  0.0360
16382W        W32276  18.295  14.535   0.185  0.4623  0.1246  0.0120
16383W        W32277   7.295   8.938  15.512 -0.6313 -0.1078 -0.1729
16384W        W32278  17.981   5.872   1.601  0.1576  0.0824  0.0433
16385W        W32279  14.188  16.611   4.026  0.0409 -0.3128  0.0690
16386W        W32280  17.202   9.316  11.760  0.1364  0.0478  0.2291
16387W        W32281  10.437   7.864  14.494  0.2227  0.1988  0.0090
16388W        W32282   6.333  10.781  13.943 -0.1027  0.0828 -0.1162
16389W        W32283   4.667   9.673   4.541  0.0806 -0.1243 -0.1044
16390W        W32284  16.661  16.547   2.461  0.1805 -0.2103 -0.0909
16391W        W32285  10.189   2.789  13.431 -0.2989  0.0857  0.1113
16392W        W32286   9.803   6.909   2.581 -0.1869 -0.0698 -0.2647
16393W        W32287  10.793  11.720  11.465  0.2298  0.2931  0.0950
16394W        W32288   5.298   9.912   3.833 -0.2937  0.0249 -0.2408
16395W        W32289   2.233   1.239  14.390 -0.0480  0.2102  0.0770
16396W        W32290  17.494   2.198   2.986  0.1595  0.3131  0.1221
16397W        W32291   7.746  16.519  12.495 -0.3505  0.2411 -0.0367
16398W        W32292   2.926  18.449   4.134 -0.0513  0.1606 -0.0339
16399W        W32293   6.968  11.930   0.394  0.3281 -0.2463  0.0234
16400W        W32294  11.086  18.316   2.506  0.1970  0.0832  0.1354
16401W        W32295  10.451  12.530   4.689 -0.1516 -0.0002  0.2379
16402W        W32296   4.121   2.652   2.818  0.3824 -0.0048 -0.0729
16403W        W32297   2.300  10.195  14.556 -0.4619  0.1937 -0.0215
16404W        W32298   3.039   0.539  14.126  0.1620 -0.1985 -0.2732
16405W        W32299   6.959  13.432  14.802  0.0122 -0.0682  0.2311
16406W        W32300   8.915   1.535  15.366 -0.1649 -0.1351  0.0182
16407W        W32301  13.104  18.409   3.802 -0.0939  0.1388  0.2756
16408W        W32302   7.450  12.842   0.319  0.1101  0.1359 -0.1226
16409W        W32303   0.144   7.728   1.103 -0.1253  0.0595 -0.1574
16410W        W32304   1.787  12.672  12.238 -0.1492  0.0457  0.1097
16411W        W32305   3.214   4.323   0.431 -0.3318 -0.3823  0.1347
16412W        W32306   7.663   6.196   1.301  0.1889  0.0258 -0.1644
16413W        W32307   9.499  18.406   0.080 -0.0195  0.1943 -0.1062
16414W        W32308   2.038  10.959   3.124  0.0367  0.3679  0.1441
16415W        W32309  18.188  13.219  11.750 -0.0939  0.2311 -0.0940
16416W        W32310  15.541  12.886   0.913 -0.0343 -0.0931 -0.1470
16417W        W32311  16.590  13.032   2.851 -0.2654  0.0443  0.0517
16418W        W32312   5.633  15.473  11.721 -0.1427 -0.0543  0.2681
16419W        W32313  13.948  11.623  12.663 -0.0382 -0.0288  0.1226
16420W        W32314   1.686   3.046   0.362  0.1508  0.4902  0.1485
16421W        W32315  11.545  11.265  11.646 -0.1181 -0.0838 -0.3250
16422W        W32316   7.163  18.301   3.046  0.3344  0.2650  0.3259
16423W        W32317   2.319  14.087   3.696 -0.1077  0.1251 -0.0553
16424W        W32318   7.713   4.562   9.849 -0.1199 -0.2284 -0.1331
16425W        W32319  11.163   6.120  12.673  0.2471 -0.3106  0.1298
16426W        W32320  14.594   8.555  11.299  0.4242  0.2238  0.0943
16427W        W32321  15.225   4.184   1.307  0.0343  0.4456 -0.3266
16428W        W32322  18.175   2.299  13.666  0.2803 -0.1403  0.3458
16429W        W32323  10.388   1.171   2.958 -0.0102  0.0190  0.1625
16430W        W32324   0.151   7.440   0.638 -0.1722 -0.1679 -0.1302
16431W        W32325  15.570  14.757   5.175  0.2209  0.2155  0.1792
16432W        W32326   7.577  10.870  14.943  0.2493  0.0100 -0.0220
16433W        W32327  17.602  18.338   1.451 -0.0565 -0.0150 -0.1036
16434W        W32328   1.007  13.772  12.982  0.3800 -0.0838  0.0348
16435W        W32329   7.082  17.310   1.175 -0.1772  0.0732  0.0605
16436W        W32330  10.436  13.489  12.685  0.2065 -0.3918 -0.0371
16437W        W32331  13.075   5.601   4.041 -0.1442  0.3495 -0.2349
16438W        W32332   1.421   2.369  14.659 -0.4075  0.2512  0.0717
16439W        W32333  18.092   2.017   2.172 -0.0350 -0.1678 -0.0656
16440W        W32334   7.107   3.001  12.373  0.1945 -0.2294  0.4511
16441W        W32335  14.504   2.360   1.310 -0.0826  0.1406 -0.2134
16442W        W32336   2.209   9.048   0.171  0.0781 -0.0444 -0.0574
16443W        W32337  17.403   9.470  15.639 -0.1098 -0.3847 -0.0390
16444W        W32338  16.520   7.438   3.649 -0.2111  0.3011  0.0341
16445W        W32339   1.838   5.070   0.325 -0.0276 -0.1379 -0.0421
16446W        W32340   0.618  15.925  15.127  0.0659  0.1911  0.0747
16447W        W32341   3.965   7.635  11.921  0.1924  0.0238  0.0623
16448W        W32342  12.132  10.651  16.079 -0.2699 -0.0049  0.0943
16449W        W32343  15.272  12.401   2.387 -0.2048  0.1606  0.2422
16450W        W32344  18.442  11.545   3.549  0.0879 -0.1579 -0.0048
16451W        W32345   3.118  16.954  12.305  0.0197  0.2685  0.0618
16452W        W32346  11.754   3.576   5.096 -0.0130  0.1116 -0.3306
16453W        W32347   7.275   1.953   2.668  0.0939  0.0722 -0.0514
16454W        W32348   8.168  17.655   4.932  0.1409 -0.3432 -0.2330
16455W        W32349  16.298  16.680  12.650 -0.1858  0.1490  0.1142
16456W        W32350   4.982   3.117  15.228  0.0237 -0.2277  0.0408
16457W        W32351   4.098  13.778  15.185 -0.0780 -0.0064 -0.0754
16458W        W32352   0.515   2.198   5.974 -0.2513  0.1939 -0.1264
16459W        W32353  13.320  17.492   0.469  0.3172 -0.0404  0.1642
16460W        W32354  14.969   8.900  16.067 -0.1739 -0.1231  0.2197
16461W        W32355  17.356  15.786  13.825 -0.1202 -0.3356  0.1587
16462W        W32356   2.090  14.670  11.855 -0.0838  0.0421  0.5057
16463W        W32357   9.385  14.812   0.402 -0.3866  0.0089 -0.1490
16464W        W32358   6.475   3.735   2.434  0.1280 -0.0414  0.0642
16465W        W32359  17.215  14.977  14.413 -0.0606  0.0848  0.0614
16466W        W32360   0.026  13.561   5.280  0.0067  0.1871 -0.2819
16467W        W32361   0.351  10.113   1.433 -0.2602  0.1513  0.1440
16468W        W32362   0.778  12.391   4.855  0.3788  0.1254 -0.3296
16469W        W32363   2.980  16.336   1.573  0.3837  0.1576  0.0677
16470W        W32364   2.053  12.405  13.556 -0.1154 -0.0511  0.0680
16471W        W32365  17.925   8.028   1.576 -0.3304  0.0692  0.2399
16472W        W32366  10.336  11.996  14.169  0.0422 -0.2559 -0.0789
16473W        W32367   2.157  14.714  12.846  0.3452 -0.0823 -0.1706
16474W        W32368  10.916   0.971  11.186 -0.1663 -0.2796  0.1295
16475W        W32369  10.436  15.789  10.648  0.1346 -0.1769  0.4132
16476W        W32370  11.140  16.370  11.027 -0.2697 -0.1970 -0.0793
16477W        W32371  14.339  17.808  11.517  0.0246  0.4184  0.0331
16478W        W32372  12.004  14.144   0.458  0.2260 -0.2815 -0.1778
16479W        W32373  12.397   4.813  10.930 -0.0808 -0.3377 -0.0373
16480W        W32374  15.830   3.162   5.654  0.0099 -0.1950  0.3441
16481W        W32375  17.101  18.364   0.136  0.0392 -0.2107  0.0020
16482W        W32376   1.862  12.158   2.489 -0.1511  0.0524 -0.1878
16483W        W32377   5.397  13.829  12.602  0.2219  0.0416 -0.0659
16484W        W32378  11.897   3.727  12.491 -0.2506 -0.0635 -0.2906
16485W        W32379  14.086   8.407  15.169 -0.1269  0.0895 -0.2085
16486W        W32380   3.948  15.111   1.023 -0.3570 -0.1802  0.2941
16487W        W32381  14.399   1.161   5.296  0.0401 -0.0948 -0.0294
16488W        W32382   6.827  17.272  14.460 -0.0746 -0.1984 -0.0249
16489W        W32383   3.960  11.875  10.919  0.0766 -0.1148 -0.3412
16490W        W32384   5.033  17.961  14.525  0.0475  0.0994 -0.0560
16491W        W32385  17.776  17.158  11.971 -0.0991  0.3062  0.0863
16492W        W32386  17.251  12.808  13.432  0.3041  0.1965  0.0809
16493W        W32387   7.717   1.281  15.660 -0.1734  0.0208 -0.1221
16494W        W32388   0.547   3.850  12.452  0.0097 -0.0075  0.1054
16495W        W32389  11.573   6.403  13.512  0.2285  0.0970  0.4576
16496W        W32390  16.111  17.327   1.808  0.0549  0.1910  0.3907
16497W        W32391   9.889   9.114   4.376 -0.0239  0.1552  0.0338
16498W        W32392  17.292  17.283  12.059  0.0732  0.0696 -0.2055
16499W        W32393  14.549   6.578   2.447  0.0176 -0.0628  0.0236
16500W        W32394  16.024   0.558  11.539  0.0935 -0.0348  0.0918
16501W        W32395   4.353   7.331   3.729  0.2891  0.1123 -0.0654
16502W        W32396   7.526  13.279  14.673  0.0821 -0.0394 -0.2292
16503W        W32397   7.364  18.366  16.075 -0.0528  0.1340 -0.2110
16504W        W32398  12.871  15.580  16.108  0.0263  0.1253 -0.3067
16505W        W32399   3.735   6.201  12.659  0.1874 -0.4063  0.4762
16506W        W32400   4.950  10.215  11.605 -0.1888  0.2334  0.2951
16507W        W32401  15.512   6.201   2.541  0.1020  0.0660  0.1653
16508W        W32402   8.518  10.841   0.678 -0.3072  0.0109  0.2380
16509W        W32403   2.286  11.891  14.800  0.3034 -0.1223 -0.1170
16510W        W32404  12.509  17.510   5.528 -0.1269 -0.1344 -0.1140
16511W        W32405  10.468  13.783  15.016  0.2389  0.0270  0.1919
16512W        W32406   2.923   2.288  15.183 -0.0982  0.1211  0.0706
16513W        W32407  14.384   7.253   3.321 -0.1415  0.0116  0.1432
16514W        W32408   5.150  14.032   4.367  0.1628  0.1794  0.0353
16515W        W32409  14.086   6.565  12.304 -0.0228 -0.0122 -0.4287
16516W        W32410   4.935   3.991   0.742  0.2311  0.0237  0.0369
16517W        W32411   8.316  13.441   0.782  0.3562 -0.1249 -0.1308
16518W        W32412   9.819   7.720   2.008 -0.0231 -0.0986  0.1497
16519W        W32413  17.931   5.224   3.352 -0.1590  0.1288 -0.0099
16520W        W32414   8.860  15.018  15.411  0.1926 -0.1374  0.0620
16521W        W32415  12.642   0.932   1.701  0.1476  0.0369  0.2777
16522W        W32416  12.133   0.348  11.736 -0.1049 -0.0251 -0.1654
16523W        W32417  14.193  13.691  14.267 -0.1284 -0.0013 -0.4062
16524W        W32418   2.434   7.537   3.231 -0.1804 -0.0617 -0.1021
16525W        W32419   1.155   8.058  15.537 -0.0682 -0.3599  0.1758
16526W        W32420   6.975  15.767  13.437  0.1343 -0.0506  0.2247
16527W        W32421  10.603   1.622   3.198  0.1472  0.1606  0.0342
16528W        W32422   5.656  13.814   2.439 -0.0271  0.1570  0.0678
16529W        W32423  17.835  11.363  14.508  0.0294 -0.0046  0.2332
16530W        W32424   3.199   1.389  10.852 -0.1813 -0.3514  0.1560
16531W        W32425   0.872   4.945   2.816  0.0636  0.1941 -0.2041
16532W        W32426  16.971   0.785  12.925 -0.1706 -0.3227 -0.0247
16533W        W32427   8.982   8.114   4.283 -0.3360  0.0311  0.4876
16534W        W32428   7.179  11.504   3.916  0.1226 -0.2078 -0.1748
16535W        W32429   2.735  10.750   0.170 -0.0678 -0.2045  0.3386
16536W        W32430   2.065  12.049   5.393  0.1599 -0.2185 -0.1673
16537W        W32431   2.848  16.907  10.886  0.1003 -0.1623  0.1323
16538W        W32432   9.172   5.607   3.845  0.0079  0.1197  0.4210
16539W        W32433   7.708   5.314  16.014  0.0781 -0.3227  0.1563
16540W        W32434   5.617  12.767  14.571  0.0223  0.0089 -0.1157
16541W        W32435   3.739   2.305   3.051 -0.1463  0.0606  0.2612
16542W        W32436  14.030   5.241   2.101  0.1435 -0.0033 -0.0821
16543W        W32437   5.599   1.040   2.994  0.3695  0.1452  0.0229
16544W        W32438  10.908  12.495   0.070  0.2183  0.1077 -0.0777
16545W        W32439  14.888  10.377   0.806  0.0176 -0.0769 -0.1994
16546W        W32440   2.835   5.499  14.881 -0.0212  0.0854 -0.0360
16547W        W32441  16.477   4.336  15.717 -0.0599 -0.0269  0.0959
16548W        W32442   7.719   0.047  11.837 -0.2671  0.0254 -0.0664
16549W        W32443   9.339  16.303   4.176 -0.1485 -0.0373  0.1075
16550W        W32444   5.034   0.897  15.860 -0.0880  0.0695  0.0788
16551W        W32445   8.372   1.603  14.374 -0.0485 -0.0444  0.2608
16552W        W32446  12.849   0.590  14.819  0.1497 -0.1043 -0.0223
16553W        W32447  13.325   3.408  14.725 -0.2329 -0.5958  0.0437
16554W        W32448  11.622   5.230  14.298 -0.1067  0.1158 -0.1310
16555W        W32449   4.683  16.261   1.509  0.1392 -0.0203  0.1886
16556W        W32450  10.577   9.935   3.039  0.1708 -0.2491 -0.3213
16557W        W32451  14.424  10.593   4.497  0.2143 -0.1234  0.1234
16558W        W32452  18.430  13.174  15.527 -0.1286 -0.1334 -0.1124
16559W        W32453   1.898   5.788  11.854 -0.0409  0.0121 -0.0559
16560W        W32454  16.912   0.072  11.278 -0.0817  0.0988 -0.3839
16561W        W32455   6.013   1.850   0.559  0.0984  0.2187  0.1524
16562W        W32456   6.695   0.224   1.265 -0.3389 -0.3579 -0.1141
16563W        W32457   6.612  10.696   1.123  0.3691 -0.1797 -0.0692
16564W        W32458  17.359  13.760  15.934  0.3509 -0.0382  0.2157
16565W        W32459   5.506  12.929   0.719  0.0132 -0.2557 -0.0254
16566W        W32460  17.189  17.109   5.491  0.1442 -0.2142  0.0005
16567W        W32461  15.019  16.252  11.563  0.1865  0.1194  0.4117
16568W        W32462   2.487  15.035   6.118  0.0616  0.2113 -0.0692
16569W        W32463   3.372   7.161  12.636 -0.0184 -0.0523  0.0498
16570W        W32464  12.604  10.596   0.643 -0.0730  0.0307 -0.1456
16571W        W32465   3.314   8.129   1.216 -0.1681 -0.1252 -0.2034
16572W        W32466  15.336  14.338  11.233  0.0054  0.0269 -0.1366
16573W        W32467  17.186  17.033   2.734 -0.1423 -0.0087 -0.0460
16574W        W32468   9.823  14.366   4.069  0.2726 -0.0894 -0.0961
16575W        W32469   9.782  15.654   0.190 -0.0312  0.1992  0.0425
16576W        W32470   8.120   5.389  13.330  0.1170  0.1841  0.0758
16577W        W32471  14.591   9.024   5.021  0.0196 -0.0042  0.1939
16578W        W32472   0.611  15.411   0.561 -0.1468 -0.0968 -0.0345
16579W        W32473   3.393   8.243  11.271 -0.0963  0.0122 -0.0947
16580W        W32474   1.622   6.782   0.281  0.1339  0.1754  0.0733
16581W        W32475  14.968   4.884   2.890 -0.1250 -0.1655 -0.0166
16582W        W32476   1.464   1.588   1.953 -0.1323  0.0031  0.0064
16583W        W32477  11.804   5.433   1.285 -0.2375  0.0034 -0.1469
16584W        W32478  16.400  18.203   1.937  0.0724  0.0278  0.3485
16585W        W32479   6.129   8.569  14.320  0.4416  0.4755 -0.2414
16586W        W32480   3.910  11.451   2.911 -0.0597  0.1444  0.0645
16587W        W32481  11.646   9.155  11.845  0.0628  0.0665 -0.0719
16588W        W32482   8.352   6.264  11.424  0.2211  0.0268  0.1812
16589W        W32483  16.953  17.524   2.553  0.1801  0.0408  0.0239
16590W        W32484  16.399   0.086  11.384  0.2298  0.1982  0.2869
16591W        W32485   1.652   6.853   0.749 -0.2589  0.1819 -0.1416
16592W        W32486  13.408  13.446   5.593 -0.1049 -0.0045  0.1060
16593W        W32487   5.903   0.036  10.508 -0.2067 -0.1407 -0.4174
16594W        W32488   4.933  11.705   2.817  0.0471  0.0309  0.4976
16595W        W32489   5.783   7.631   0.569  0.5379  0.1029 -0.2151
16596W        W32490   3.832  17.763   0.139 -0.2069 -0.0048 -0.0075
16597W        W32491   3.405   3.568  14.199 -0.2391 -0.0116 -0.0519
16598W        W32492   1.356  10.054  11.147  0.1010  0.0776 -0.0019
16599W        W32493  11.483  13.521   2.038  0.1759  0.1585  0.1622
16600W        W32494   6.024  13.575  14.562 -0.3643 -0.1287 -0.3156
16601W        W32495  10.905   9.163   5.145  0.4009  0.3378 -0.1926
16602W        W32496  18.365   9.629   1.092  0.1173 -0.4937 -0.0727
16603W        W32497  10.653   7.309  12.705  0.0579  0.0550 -0.1038
16604W        W32498  10.841   6.971   4.184  0.0558  0.4462 -0.1334
16605W        W32499   2.381   0.964   3.392 -0.1094  0.0251  0.0407
16606W        W32500  14.284   5.363   1.287 -0.0694 -0.1026  0.0459
16607W        W32501   0.868   7.083   1.219 -0.0898  0.1693 -0.2864
16608W        W32502   6.949   5.154   4.875 -0.2690  0.3395 -0.2251
16609W        W32503  13.720  13.945   1.169  0.2224 -0.1117 -0.1713
16610W        W32504  10.556   6.427  14.104 -0.0583  0.1777  0.0553
16611W        W32505  10.657  15.959  11.775 -0.0013 -0.1210  0.0682
16612W        W32506   9.701   1.033  13.861 -0.1326  0.1339 -0.2588
16613W        W32507  10.719   6.392   3.798  0.1773 -0.1434 -0.1674
16614W        W32508  11.597   8.306   2.981 -0.0547  0.2467 -0.0326
16615W        W32509   3.132   8.844   4.921  0.0605  0.0784  0.0096
16616W        W32510   8.310  10.617   1.068 -0.1457 -0.0018  0.0113
16617W        W32511  11.024  11.752   2.686 -0.0931  0.4048  0.0759
16618W        W32512   5.873  11.228  14.247  0.1354  0.0111  0.0533
16619W        W32513  12.958   7.331  15.866  0.0018 -0.1182 -0.0519
16620W        W32514  13.306  16.585   2.036  0.0012 -0.0290  0.0924
16621W        W32515   1.756   8.994   2.454 -0.3702  0.0668  0.0072
16622W        W32516   3.984   6.115   4.583  0.1149 -0.0154  0.2320
16623W        W32517  10.837   4.979  13.729  0.0165 -0.2034 -0.1294
16624W        W32518  15.244  17.136  11.191  0.2061  0.0540 -0.0597
16625W        W32519  16.808   5.180   0.731 -0.5576 -0.3759 -0.0960
16626W        W32520  16.048   2.781  14.746 -0.2060  0.1434  0.0747
16627W        W32521   3.928  12.713   5.631 -0.0325  0.1290 -0.2869
16628W        W32522  11.364   5.964   0.895  0.0021 -0.0592  0.1536
16629W        W32523   2.954  11.881   2.723  0.0925  0.0211 -0.0912
16630W        W32524   8.222   8.619  14.121  0.0972  0.2188 -0.1157
16631W        W32525   4.694  14.921   4.165  0.2551  0.1752 -0.0398
16632W        W32526   6.384  16.104   1.875  0.0441  0.1959  0.0238
16633W        W32527  11.276  15.872   3.893  0.1728  0.0935 -0.3289
16634W        W32528   2.478  14.296   5.524  0.1068 -0.0027 -0.2285
16635W        W32529   0.733  13.319  15.056 -0.0330 -0.0843 -0.1386
16636W        W32530  15.009  14.961   5.431  0.0018  0.0979  0.0274
16637W        W32531   5.242  10.874  13.359  0.1350 -0.0265 -0.1996
16638W        W32532  16.646  15.842  13.025  0.0456 -0.2367 -0.1536
16639W        W32533  10.278   7.135   0.000 -0.1620 -0.2310  0.3159
16640W        W32534   4.336   6.269   2.625  0.0540 -0.0212 -0.1884
16641W        W32535  16.098  12.890   2.175 -0.0517  0.1317 -0.0486
16642W        W32536   7.623   4.183   2.807 -0.0791 -0.0977  0.0765
16643W        W32537  15.039   4.176   3.504 -0.1481  0.3307 -0.2864
16644W        W32538   0.120  11.635   5.319  0.0752 -0.0237 -0.3108
16645W        W32539   1.913  11.521  11.970 -0.0378  0.2342  0.0309
16646W        W32540  16.404   6.156   1.403  0.1249  0.0595 -0.2709
16647W        W32541   5.915   2.201  15.266  0.0914 -0.0329  0.0298
16648W        W32542  10.093  15.558  15.889 -0.0317 -0.2386 -0.3839
16649W        W32543   7.716   7.950   2.635  0.0152 -0.0453  0.0845
16650W        W32544  17.882  17.402  13.432 -0.2863 -0.0554 -0.0283
16651W        W32545  12.741   5.633  13.014  0.0251 -0.1092 -0.1636
16652W        W32546  13.395   3.965  12.750  0.2163 -0.0500 -0.0606
16653W        W32547  15.739  18.232  15.503 -0.0410 -0.0025  0.0912
16654W        W32548  15.318  13.646   5.144  0.0223  0.0510  0.0723
16655W        W32549  10.570  12.978   4.579  0.0285 -0.0649 -0.1561
16656W        W32550  15.099   8.918  13.475 -0.0435 -0.2738  0.2411
16657W        W32551   3.080   1.929   0.437  0.0040 -0.0424  0.1701
16658W        W32552   3.113   8.976   1.704  0.0532 -0.0422  0.1425
16659W        W32553   4.056  16.832   5.701  0.2754  0.3200 -0.3187
16660W        W32554   4.774   5.160   3.828  0.0599  0.2606  0.1072
16661W        W32555   1.393   3.440  13.917  0.1942 -0.1718 -0.0467
16662W        W32556  13.277  15.347   1.876  0.0208 -0.0704  0.2034
16663W        W32557  12.507   0.252  16.115 -0.0415  0.1027  0.4459
16664W        W32558   1.269   9.482   4.642  0.1622  0.3283  0.0201
16665W        W32559   1.796   9.190   3.952  0.1159 -0.3583 -0.0470
16666W        W32560   9.819   6.811  12.796 -0.1570 -0.1133  0.3424
16667W        W32561  13.071  16.449   3.906  0.1419 -0.0902  0.0352
16668W        W32562  11.859   5.533  15.530 -0.0741  0.2545  0.1489
16669W        W32563  18.018  10.650  15.524 -0.0810  0.3450 -0.2198
16670W        W32564  17.518   8.854  14.296  0.0353 -0.2014 -0.1215
16671W        W32565  14.135  18.184   2.445 -0.1104 -0.1271  0.2901
16672W        W32566   2.787   8.244   3.240  0.0586  0.4111  0.1687
16673W        W32567   1.607   5.020  12.870  0.2959  0.2240  0.2843
16674W        W32568   5.504  15.710   0.271 -0.1080  0.3032  0.0190
16675W        W32569  11.912  13.816   3.157  0.1339  0.2112  0.0227
16676W        W32570   5.603  15.600   0.767  0.0415  0.2933 -0.0859
16677W        W32571   7.508  11.989   3.906 -0.0485 -0.0685  0.1278
16678W        W32572  14.315  10.827  14.814 -0.2031 -0.2239 -0.1632
16679W        W32573  13.357   6.966   5.026  0.2875  0.1859  0.0851
16680W        W32574  12.201  11.908   0.096  0.1504 -0.1545  0.4247
16681W        W32575   0.093  18.369  13.790  0.3077  0.0859  0.3680
16682W        W32576   7.118   9.404   4.875  0.1144  0.3769 -0.1644
16683W        W32577  12.454  14.588  11.911  0.1362 -0.2357  0.1076
16684W        W32578  17.425   5.830  14.067 -0.2192  0.1952 -0.0376
16685W        W32579   4.673  13.384  14.440  0.0642  0.0903  0.2005
16686W        W32580  16.555  13.026  11.136 -0.2229  0.1405 -0.1184
16687W        W32581  16.512   5.193   1.591 -0.0071  0.0837 -0.0885
16688W        W32582  11.620   6.852  12.710  0.2188  0.0148 -0.2317
16689W        W32583   4.779   7.449  13.729  0.1265 -0.1169  0.2220
16690W        W32584   7.310  12.177  15.994  0.2150 -0.0309 -0.1416
16691W        W32585   5.039   9.675   5.815  0.0149 -0.0236  0.0124
16692W        W32586   5.933   2.387   4.236  0.1318  0.0397  0.1554
16693W        W32587   9.373   5.203   1.498 -0.5980 -0.2643  0.1264
16694W        W32588   7.508   0.334  12.429 -0.2022  0.0882  0.3014
16695W        W32589  13.564  14.275   2.122  0.1848 -0.0535  0.6072
16696W        W32590   6.734   5.438   0.891  0.0054 -0.2004 -0.0572
16697W        W32591   2.117  12.218  14.465  0.1632  0.2572  0.1069
16698W        W32592  16.515  12.764  12.425  0.1848  0.1910 -0.0270
16699W        W32593   4.157   5.883   4.063  0.0624  0.0555  0.0118
16700W        W32594   5.239   6.493   0.029  0.1363  0.1283  0.1228
16701W        W32595   5.400   3.097   2.421 -0.1991  0.1109  0.0333
16702W        W32596   3.742   3.694  13.336 -0.0500  0.1337 -0.2522
16703W        W32597   2.224   3.856  14.231 -0.0314 -0.1011 -0.2320
16704W        W32598  18.058   0.844  13.885 -0.0269  0.0021  0.0495
16705W        W32599  11.987   6.349   5.123 -0.0873  0.5605  0.1065
16706W        W32600   6.513   0.769  11.558 -0.2253 -0.1951 -0.0874
16707W        W32601  14.979   4.747  10.701  0.4023 -0.1047  0.0608
16708W        W32602  14.427  17.370   4.685  0.0096  0.0138  0.0567
16709W        W32603  13.897   2.288   1.992  0.1198 -0.2211  0.0571
16710W        W32604   3.773   1.435   1.147 -0.1693 -0.1809 -0.1271
16711W        W32605   6.163  10.262  10.838  0.1175  0.0245 -0.2043
16712W        W32606   9.523  16.641  15.041 -0.2435  0.1267  0.3078
16713W        W32607  17.167   1.026   0.188  0.0849 -0.3289  0.0899
16714W        W32608   4.608  16.230   2.928 -0.0852 -0.2647 -0.0216
16715W        W32609   8.456  17.014  13.573 -0.2367  0.2237  0.0146
16716W        W32610   9.398   6.019  11.434 -0.3065 -0.4200 -0.2257
16717W        W32611  15.714  10.978   0.917  0.1607  0.0257  0.2529
16718W        W32612   7.526   7.474   1.928 -0.0017 -0.0369  0.2025
16719W        W32613  12.611   5.394  14.732 -0.0541 -0.3551 -0.0689
16720W        W32614   8.408   8.108  14.253 -0.1435  0.2487 -0.0172
16721W        W32615   0.421  15.576  12.482  0.1636  0.3636  0.0167
16722W        W32616   5.509   6.607  14.958 -0.1560 -0.0056  0.1709
16723W        W32617   0.253   9.399  13.263 -0.2854 -0.2475  0.1880
16724W        W32618  14.944   2.046   1.094  0.1008 -0.0289 -0.3220
16725W        W32619   1.515   3.333   2.832 -0.0213 -0.0814 -0.0455
16726W        W32620  12.452   0.684   5.786  0.4904  0.1628  0.0795
16727W        W32621   3.630   9.414  11.715 -0.4279  0.2579 -0.1326
16728W        W32622  11.339  13.500  11.789 -0.1278 -0.1171 -0.1018
16729W        W32623   5.328  12.155   1.090 -0.0611 -0.0109  0.0273
16730W        W32624   6.733  13.294   0.897 -0.4809 -0.1602  0.0883
16731W        W32625  12.288  11.392   0.172 -0.1751  0.1358  0.0161
16732W        W32626   4.962   3.374   1.763 -0.3254 -0.0568 -0.1462
16733W        W32627  18.134  12.488   2.997 -0.3249  0.2451  0.0653
16734W        W32628  14.277  15.103  15.846  0.2040 -0.0597  0.3511
16735W        W32629   5.364  17.972  13.671  0.3346  0.2620  0.0970
16736W        W32630   9.457  15.387  11.745 -0.2709  0.1012  0.2183
16737W        W32631   7.628   7.971   0.200 -0.0290  0.3048 -0.0811
16738W        W32632  14.910   5.976   4.550 -0.0908 -0.0549  0.0925
16739W        W32633   7.231  10.427  13.038  0.0865 -0.1577  0.2169
16740W        W32634   2.730  12.438  15.461 -0.3947  0.2031  0.0587
16741W        W32635  14.632  14.962   1.263  0.2243 -0.2319  0.2581
16742W        W32636   7.232  10.863  14.061  0.0064 -0.0931  0.1483
16743W        W32637   0.055  12.695   6.109 -0.0657 -0.2049  0.1788
16744W        W32638  15.364   4.277  13.202 -0.0962 -0.3989 -0.2721
16745W        W32639  11.365  14.377  12.153 -0.3333 -0.3632  0.0179
16746W        W32640  11.358   9.867   3.568  0.1192  0.2642 -0.0822
16747W        W32641   4.339   3.231   3.882  0.3171  0.1380 -0.0051
16748W        W32642   1.907   9.308  15.479 -0.0229 -0.0013  0.2523
16749W        W32643  15.762  17.638   2.623  0.2085 -0.0684 -0.0010
16750W        W32644   4.775  18.396  12.861 -0.2014 -0.0088 -0.1471
16751W        W32645   0.745   3.232   4.821 -0.3852 -0.3238  0.3238
16752W        W32646   7.426   9.188   3.454  0.0516  0.4357  0.1812
16753W        W32647  12.757  15.150  11.088  0.0957 -0.1806 -0.3974
16754W        W32648   3.145  13.856  15.411  0.0346 -0.1976 -0.1192
16755W        W32649  13.977   2.000   2.401 -0.0613 -0.2056  0.0537
16756W        W32650  14.457   1.969  12.768 -0.1219  0.1493 -0.0733
16757W        W32651  13.380   0.021  13.678  0.1335 -0.0497  0.0819
16758W        W32652  15.129   8.113  12.112 -0.0706 -0.1124  0.2175
16759W        W32653   6.661   4.314  13.139 -0.0196  0.0337 -0.0559
16760W        W32654  12.571   0.280  11.526  0.2193 -0.0494 -0.2129
16761W        W32655  17.960  12.196  12.127 -0.1464 -0.2915 -0.0531
16762W        W32656  18.202  16.331  12.258 -0.0032  0.2281  0.2365
16763W        W32657   9.971   5.965   4.466 -0.0968 -0.1212  0.0348
16764W        W32658  16.202  14.380   4.691 -0.1476 -0.2963  0.1125
16765W        W32659  15.776   8.912  15.348 -0.1144 -0.1513 -0.0878
16766W        W32660  16.800  15.071   2.643  0.0122  0.3115  0.2191
16767W        W32661  10.137   4.035  10.945  0.0722 -0.1315  0.2561
16768W        W32662   8.249   2.564   3.437  0.1729 -0.0292  0.0379
16769W        W32663   3.051   5.232   1.423 -0.1023  0.0027 -0.0326
16770W        W32664   0.689  11.293  12.927 -0.1326  0.5891  0.2097
16771W        W32665  15.351  10.996  15.592  0.5439 -0.2316  0.0502
16772W        W32666   8.545  11.195   0.266 -0.0203 -0.0210 -0.0450
16773W        W32667  10.858   1.750  12.599  0.0776 -0.0241 -0.3591
16774W        W32668  11.707  14.081   4.943 -0.0521  0.2805  0.1462
16775W        W32669  13.688   2.578  14.431 -0.2647  0.0101  0.2127
16776W        W32670   3.825   1.370   4.912 -0.1887  0.0547 -0.2324
16777W        W32671   3.915   7.690   4.587 -0.1129  0.4136  0.1351
16778W        W32672   2.909   0.789   3.346  0.2221 -0.3152 -0.0619
16779W        W32673  17.471   7.681  14.088  0.0571 -0.2915  0.2303
16780W        W32674   6.348  16.775  15.656 -0.1765 -0.0543  0.0101
16781W        W32675   0.914  11.886  16.018 -0.0228 -0.1661 -0.0776
16782W        W32676   5.983  15.356   3.986 -0.2335 -0.2499  0.0294
16783W        W32677   1.118  16.758   2.548  0.1365  0.4142  0.1522
16784W        W32678   5.544   3.983   4.746 -0.1614 -0.0609  0.0842
16785W        W32679   5.520  13.238  10.959  0.3123  0.1469 -0.1211
16786W        W32680   2.018   1.772   0.388 -0.1505 -0.1169  0.0224
16787W        W32681   0.541  16.531   2.524  0.1869 -0.2137 -0.1680
16788W        W32682  14.009   8.663   1.713  0.1480 -0.1858  0.2578
16789W        W32683  10.233   8.512   5.578  0.1890 -0.1508  0.3934
16790W        W32684  17.556   5.274  13.734 -0.2381  0.1023  0.0830
16791W        W32685  16.540   9.849   5.444  0.0917 -0.0359  0.0523
16792W        W32686  10.596   9.960  13.316 -0.1756  0.1342 -0.1063
16793W        W32687   8.818   7.020  12.491 -0.1381  0.0765 -0.1839
16794W        W32688  11.515   9.465   1.952 -0.0198 -0.3071  0.0890
16795W        W32689   5.308   4.479  15.328 -0.1613 -0.3022  0.3591
16796W        W32690  16.670  13.515   2.638 -0.0793 -0.3209  0.1777
16797W        W32691  11.328   1.853   5.660 -0.1052  0.0791  0.2469
16798W        W32692   4.855   9.405   3.748  0.1772  0.1573 -0.2573
16799W        W32693  11.903   5.433  13.097  0.0395 -0.2874 -0.0550
16800W        W32694  16.165  14.194  14.139 -0.3059 -0.1226 -0.0505
16801W        W32695  10.094  12.109   2.953 -0.0103 -0.2003  0.2643
16802W        W32696  11.834   1.805   0.785 -0.0026 -0.0712  0.0517
16803W        W32697   1.660  11.352  12.670  0.2049 -0.1605 -0.0153
16804W        W32698   5.054   6.415  12.701 -0.0325  0.0792 -0.2385
16805W        W32699   4.147  17.101  10.492  0.1408 -0.1961  0.2134
16806W        W32700   5.557   3.433  13.786 -0.1520  0.2144  0.0731
16807W        W32701  16.597   2.736   3.520  0.1418 -0.1130  0.1865
16808W        W32702   6.241   4.525  12.272  0.3107 -0.0244 -0.2160
16809W        W32703   6.422   0.843  15.970 -0.1094  0.3064  0.0039
16810W        W32704   8.443  12.537   1.345  0.2007 -0.0766  0.0962
16811W        W32705  13.197  11.789   0.244  0.1069  0.1241  0.0886
16812W        W32706  15.774   1.805  14.868  0.0222  0.1519  0.1348
16813W        W32707   3.416   4.319  15.883  0.1004 -0.5707 -0.0584
16814W        W32708  15.406   1.428  12.807  0.2231  0.0148  0.1343
16815W        W32709   7.721   6.426   4.843  0.0151  0.1046  0.2077
16816W        W32710  14.823   7.509  15.761 -0.1188 -0.1836  0.0711
16817W        W32711   5.002  14.759   1.724 -0.0019 -0.0359 -0.2042
16818W        W32712  11.805  11.351   2.993 -0.2364 -0.1019 -0.1256
16819W        W32713   7.112  12.510  11.006  0.0412 -0.5700 -0.0540
16820W        W32714  11.201  12.114   5.031 -0.0468 -0.2526  0.0533
16821W        W32715  15.634  10.877  14.700  0.2420  0.0796  0.2244
16822W        W32716  13.702   8.657   6.209 -0.1443  0.2681  0.2850
16823W        W32717  14.319   4.820   5.453 -0.0045  0.0687  0.1781
16824W        W32718   1.658   3.167   1.816 -0.0016  0.1022 -0.3370
16825W        W32719   8.529   5.483  15.709 -0.0838  0.3722 -0.2284
16826W        W32720   0.940   8.537   3.473 -0.2729 -0.1102 -0.0931
16827W        W32721   1.814   1.389   0.818  0.0626  0.1482 -0.0584
16828W        W32722  12.326  16.488  12.509  0.0244 -0.0147 -0.1892
16829W        W32723   6.006   6.256  13.029 -0.1392  0.1526  0.1048
16830W        W32724   5.455  16.663   0.589 -0.1535 -0.3793 -0.2437
16831W        W32725   1.934   1.673  14.461  0.2311  0.5569 -0.2103
16832W        W32726   1.332   8.884   2.642  0.1517  0.0606 -0.0657
16833W        W32727  11.972  18.201  12.931 -0.3018 -0.1509 -0.3309
16834W        W32728  18.325  12.019  11.860  0.1114 -0.0851  0.0833
16835W        W32729   6.156  15.037   5.817  0.1684  0.0901  0.1538
16836W        W32730   5.439   8.892   4.590  0.0622  0.0419  0.1686
16837W        W32731   5.220   3.445  14.371  0.1355 -0.2876  0.1945
16838W        W32732  16.325   9.640   0.648  0.0864 -0.0921  0.0428
16839W        W32733  14.021  10.697   4.210  0.1877  0.2138 -0.0091
16840W        W32734   3.037  14.665  14.919  0.2556 -0.3031 -0.1553
16841W        W32735   8.890   8.189  15.646 -0.2363 -0.1309  0.1090
16842W        W32736   7.252   4.491  16.134 -0.1166  0.0132  0.0071
16843W        W32737  16.906  14.077   1.325 -0.0032  0.0699 -0.0012
16844W        W32738   4.962   8.901   3.798 -0.1725 -0.0986  0.2801
16845W        W32739  13.633   3.566  15.961 -0.0333 -0.0306 -0.1087
16846W        W32740  13.447   5.207   5.349  0.3306  0.2234 -0.0092
16847W        W32741  10.515  11.671  12.965  0.1395 -0.3819  0.0475
16848W        W32742   0.115  13.645   4.229  0.1388  0.0839  0.0176
16849W        W32743   0.114  13.652  15.518  0.0016  0.4342  0.0646
16850W        W32744  15.349   7.218   2.522  0.1252  0.0057 -0.0615
16851W        W32745   9.314  12.903  15.246 -0.4756  0.0191 -0.0978
16852W        W32746   1.951   5.493  15.984 -0.3120 -0.0734 -0.2922
16853W        W32747   9.565  12.240  14.869  0.1617  0.1967  0.3676
16854W        W32748   7.217   7.895   5.379 -0.0729 -0.1196  0.0829
16855W        W32749   4.469  16.956  15.846  0.2506  0.0230 -0.2828
16856W        W32750   9.776  15.921   3.904  0.3014  0.1595 -0.1864
16857W        W32751  18.005   5.106  11.205  0.1347  0.0945  0.2214
16858W        W32752  18.418   7.611   3.437 -0.1305  0.0250 -0.0567
16859W        W32753  14.905   5.649  11.412 -0.0813  0.3041  0.2246
16860W        W32754  15.219   4.494   5.530 -0.0515  0.1064  0.1162
16861W        W32755  15.125  15.039   1.618  0.0828  0.1207 -0.1661
16862W        W32756  10.340  11.543  14.895 -0.1641 -0.0418 -0.1941
16863W        W32757   2.210  13.464   2.089  0.1665 -0.3535  0.1155
16864W        W32758  14.356   7.682   3.087 -0.2854 -0.1188  0.3010
16865W        W32759   2.282  13.316   4.166  0.2242 -0.1331 -0.2583
16866W        W32760  10.346  12.644  10.653  0.0999 -0.4084  0.2414
16867W        W32761   6.606  12.129  11.575 -0.1960 -0.1220  0.2390
16868W        W32762   0.059  10.165  12.107  0.0042  0.0001 -0.1412
16869W        W32763   6.743  16.305  13.390  0.2019  0.0743  0.0906
16870W        W32764   6.709   5.574   5.553 -0.1115  0.0504  0.1152
16871W        W32765   7.280   4.048  14.859  0.3063  0.0058 -0.0059
16872W        W32766   5.555  16.903  15.743  0.2500  0.1754 -0.1449
16873W        W32767  16.671   1.298   2.722 -0.0372 -0.0046  0.0410
16874W        W32768   9.474  10.000  15.626 -0.0164 -0.0890  0.2568
16875W        W32769  15.691   7.172   5.326  0.1164 -0.0251 -0.1254
16876W        W32770   8.369   7.878   3.150  0.0529 -0.1068 -0.0256
16877W        W32771   4.755   9.709  14.072  0.2282 -0.0025  0.2681
16878W        W32772   8.137  17.482   3.082 -0.2246 -0.1527 -0.1706
16879W        W32773  10.817  12.886  10.795 -0.1921  0.0017 -0.0134
16880W        W32774   6.273  17.825   4.081 -0.0309 -0.1464 -0.1844
16881W        W32775  13.564   2.790   2.888 -0.2777  0.0429  0.2781
16882W        W32776  14.231   4.746   6.402 -0.0373 -0.0718 -0.0589
16883W        W32777   3.285  16.033   3.699  0.3346  0.0624 -0.0024
16884W        W32778  13.287   8.920   4.827  0.0539  0.4779  0.1922
16885W        W32779   4.300   3.688   1.312  0.0807 -0.3646 -0.4075
16886W        W32780  14.942  13.029   2.431  0.2535 -0.2270 -0.0181
16887W        W32781  14.371   0.241  15.822  0.2794 -0.1736 -0.5612
16888W        W32782   9.390   4.590  15.369  0.3555  0.0096  0.0639
16889W        W32783  13.454  11.774  12.871  0.3367  0.0976 -0.0220
16890W        W32784  12.615  12.459  10.429  0.0072  0.0371 -0.0282
16891W        W32785  17.825  12.025   2.800  0.0057 -0.2445 -0.2680
16892W        W32786  17.818  16.301  11.420 -0.1100 -0.2664  0.4274
16893W        W32787  15.738  10.312  16.060  0.0452 -0.1492 -0.1884
16894W        W32788  13.797  16.230   4.415 -0.0503  0.1522  0.1333
16895W        W32789   7.141   7.123   4.819 -0.1233  0.0409 -0.1858
16896W        W32790  12.194  16.055   3.770  0.1339  0.1688  0.1801
16897W        W32791   2.082  16.812  12.229  0.3515 -0.1241  0.0994
16898W        W32792   6.050  11.124   3.957 -0.1717  0.2572 -0.1379
16899W        W32793  13.004   6.258   3.687 -0.1388  0.1921  0.1782
16900W        W32794  14.039  16.393   1.897 -0.2715 -0.1998 -0.0280
16901W        W32795   1.418  12.897  11.634 -0.0998 -0.0503  0.0930
16902W        W32796   0.337   9.505  11.974  0.0942  0.0449 -0.0590
16903W        W32797  18.137  17.900   0.864  0.0554 -0.2203  0.1796
16904W        W32798   0.346   2.818   4.217  0.0335 -0.0403  0.2641
16905W        W32799  17.527   9.461  13.713  0.2809  0.1714  0.2049
16906W        W32800   2.659  13.740  11.033 -0.2543  0.0589 -0.2744
16907W        W32801  14.778   5.331   2.753  0.2818 -0.2219  0.1099
16908W        W32802   9.997  10.999   0.959  0.1616 -0.1694 -0.0252
16909W        W32803   5.506  13.920  10.532 -0.1012  0.2461  0.2035
16910W        W32804  10.276  15.613  12.004  0.0126  0.0820  0.2213
16911W        W32805   6.813   1.588   2.002 -0.1891 -0.2379  0.0310
16912W        W32806   2.060   6.412   4.004  0.0308 -0.4324 -0.2031
16913W        W32807  18.242  14.280   1.968  0.1097  0.2916  0.2264
16914W        W32808   2.482  16.544  14.358  0.0982  0.0154  0.2782
16915W        W32809  17.631   5.313  15.920 -0.0479 -0.0989  0.2196
16916W        W32810  14.147  14.421   4.125  0.0666 -0.0789 -0.1260
16917W        W32811  13.537   9.855   5.807  0.1440 -0.3287  0.2495
16918W        W32812  12.129   8.010   3.670  0.1536  0.3088 -0.1627
16919W        W32813   8.618  14.597  14.794  0.1657 -0.4151 -0.3011
16920W        W32814  15.976   5.550   2.048 -0.1017  0.3661  0.0139
16921W        W32815  16.791   4.578   4.018  0.0311 -0.0778  0.0532
16922W        W32816  17.530  10.073   6.003 -0.0971 -0.4036 -0.2030
16923W        W32817  14.567  12.544  13.028 -0.1629  0.1252 -0.0877
16924W        W32818  16.564  11.616  11.604 -0.0330  0.0717  0.0611
16925W        W32819   7.340   9.250   1.660 -0.3035 -0.1805  0.0308
16926W        W32820   0.669  17.797  14.911  0.1822  0.0570  0.1390
16927W        W32821   6.391   5.315  13.205  0.0080 -0.1215  0.0423
16928W        W32822  10.901  12.302   4.511  0.1306 -0.2462 -0.0904
16929W        W32823   0.178  16.926   1.169  0.1940 -0.1449 -0.4124
16930W        W32824   4.718   6.373   0.814 -0.1568  0.3448  0.0382
16931W        W32825   9.666   9.243  16.009  0.0581 -0.2661  0.0406
16932W        W32826   1.465   9.160   3.524  0.0077 -0.0101  0.3937
16933W        W32827   2.946   0.438   1.384 -0.1990  0.1368  0.1042
16934W        W32828   5.142   3.918  14.528  0.0472 -0.1097  0.4028
16935W        W32829  11.352  14.326  13.368 -0.1438 -0.0895  0.1013
16936W        W32830   0.210   5.910  14.630  0.3108 -0.0719 -0.4468
16937W        W32831   3.428   7.040   2.843 -0.1338 -0.2890  0.1330
16938W        W32832   9.907   7.347   5.301  0.3122  0.0034  0.2337
16939W        W32833   8.021  14.866  11.976  0.1744  0.2239  0.0920
16940W        W32834   6.656  10.123  11.311 -0.2112  0.0176 -0.2130
16941W        W32835  13.916  17.432   1.886  0.2729  0.3723 -0.0724
16942W        W32836   3.451  12.986  15.926 -0.2142  0.0119  0.3837
16943W        W32837   6.601  15.490  15.111 -0.0385  0.0202  0.2272
16944W        W32838   7.075  12.373  13.913  0.3441 -0.1789 -0.0765
16945W        W32839   7.193   4.784   5.186 -0.1017  0.0532 -0.4956
16946W        W32840  14.198   3.454   2.575  0.0410 -0.0173  0.1438
16947W        W32841   8.655   1.230   4.207  0.0482 -0.4386  0.0045
16948W        W32842   3.380  16.926  13.086  0.3238 -0.0310 -0.4208
16949W        W32843   8.125   2.522  15.551  0.2693  0.4117 -0.1823
16950W        W32844   6.472   0.014   0.341  0.1116 -0.1964 -0.0069
16951W        W32845  12.652  17.649   3.357  0.2609 -0.3072 -0.1847
16952W        W32846   0.877  15.140   3.606 -0.0867 -0.0988 -0.0329
16953W        W32847   7.333   8.016  10.463  0.1372  0.0863  0.2355
16954W        W32848  12.384  11.530  13.891  0.0504  0.1275 -0.3847
16955W        W32849   5.570   5.736   0.932  0.0647  0.2317 -0.0055
16956W        W32850  15.767  16.505   0.562  0.1288  0.1486 -0.1090
16957W        W32851  14.412  13.456   4.991  0.0613 -0.1917 -0.4578
16958W        W32852   1.029  10.472   3.703  0.0178  0.3761 -0.2082
16959W        W32853  14.823  15.384   4.782  0.0768 -0.0033  0.3034
16960W        W32854  12.883   4.698   5.639  0.1744 -0.1778  0.1109
16961W        W32855   2.377  17.890  15.877  0.1056  0.1527  0.0174
16962W        W32856  15.113  11.007   5.269 -0.0170  0.3300  0.2004
16963W        W32857   5.657   5.878   4.611 -0.0627  0.2680  0.2425
16964W        W32858  14.781  13.536  15.212  0.1425 -0.1784  0.3174
16965W        W32859  10.678  15.856   2.854 -0.6603 -0.4649  0.0413
16966W        W32860   2.174   5.335  12.892  0.0669  0.1977 -0.0473
16967W        W32861   0.015   5.621  13.309  0.2117  0.0267 -0.2499
16968W        W32862  14.593   7.010  14.003  0.1680 -0.0195  0.0593
16969W        W32863   1.129  10.686   5.490 -0.0039  0.0495 -0.0676
16970W        W32864   1.114  14.146  11.737  0.0642  0.1981 -0.2757
16971W        W32865  14.589   1.097   3.612 -0.1755  0.0086  0.3224
16972W        W32866   1.218  12.856   4.218 -0.2084  0.2959  0.0726
16973W        W32867  15.185   1.499  14.701 -0.2564  0.1747  0.0150
16974W        W32868   0.134   4.554  13.321  0.2019  0.1846 -0.1085
16975W        W32869   6.592  13.808  15.234 -0.1995  0.0287  0.3366
16976W        W32870  14.514   8.015   1.046 -0.0211 -0.0767  0.0233
16977W        W32871   7.906   3.263   4.539  0.1186 -0.3128  0.0664
16978W        W32872   5.762  13.241   5.013 -0.0890  0.1361 -0.0193
16979W        W32873  13.582  17.117   3.627 -0.1874 -0.2370 -0.1004
16980W        W32874  15.050   5.275   1.842 -0.1473  0.1961  0.2788
16981W        W32875   4.806   7.732  12.628 -0.0155 -0.1542  0.1476
16982W        W32876   9.571  13.427   5.549 -0.1666  0.3227  0.1418
16983W        W32877   6.744   0.728   2.472 -0.3445  0.2903  0.1410
16984W        W32878  16.740  13.377   4.828  0.1098 -0.2715  0.2305
16985W        W32879  15.225   0.343  13.327  0.3163  0.0174 -0.3044
16986W        W32880  15.411   4.722  12.924 -0.0404 -0.4355 -0.1916
16987W        W32881  13.165  16.187   1.608  0.0323 -0.0023  0.1210
16988W        W32882   6.217   2.932   3.701  0.1451  0.1137  0.3153
16989W        W32883  15.948   8.773  15.814  0.1969 -0.0879  0.1866
16990W        W32884   4.586  11.974   4.157 -0.2200 -0.1729  0.1069
16991W        W32885   6.949   5.664   4.569  0.1559  0.0542  0.1967
16992W        W32886   8.955   5.543  13.206  0.1292  0.2685 -0.2732
16993W        W32887  13.006   6.446  14.071 -0.3843  0.0713  0.1314
16994W        W32888  14.507  10.316  13.318  0.0146 -0.1193  0.1441
16995W        W32889  12.796  14.914   2.979  0.3187  0.0743 -0.0778
16996W        W32890  13.097  15.515  10.810  0.1304  0.1153 -0.0639
16997W        W32891   4.174   2.353   0.428 -0.4172  0.2210 -0.0471
16998W        W32892   6.792   8.822   5.545  0.0039  0.1603 -0.0489
16999W        W32893   0.641  12.588   5.854  0.3641  0.0749 -0.0589
17000W        W32894  15.834  14.544  15.509 -0.0274  0.4309  0.0191
17001W        W32895   9.734   1.895   1.658 -0.2587 -0.2826 -0.0533
17002W        W32896   6.049  14.050  14.246  0.4154 -0.1290  0.0325
17003W        W32897   2.985   4.233  16.132 -0.2160  0.2360 -0.0191
17004W        W32898  12.816   9.770   2.445  0.3733 -0.1909  0.1456
17005W        W32899   3.458  14.035   5.794  0.0007  0.2273  0.1023
17006W        W32900  13.116  13.628   2.530  0.5122  0.2519 -0.3869
17007W        W32901   0.013  16.256  15.968 -0.2529  0.0511 -0.0238
17008W        W32902   9.483   5.822  13.281  0.1599  0.1187 -0.2510
17009W        W32903   4.543   5.376  11.151 -0.3198 -0.2306 -0.0315
17010W        W32904  17.889   7.435   3.332 -0.1375  0.1451 -0.0641
17011W        W32905   3.968  11.572  12.232  0.0965 -0.1285 -0.4534
17012W        W32906  15.230   9.630  14.983  0.2452  0.4555 -0.6198
17013W        W32907  11.440   3.122  15.481  0.0607  0.0458 -0.1661
17014W        W32908  12.394   6.666  14.846 -0.3840 -0.0958 -0.1510
17015W        W32909  11.374   6.820  15.800  0.0475 -0.2607 -0.1682
17016W        W32910   9.966  15.783   4.437 -0.0244 -0.0854  0.0049
17017W        W32911  13.500  14.347   4.099  0.2545  0.0899  0.1838
17018W        W32912  17.859  15.698  13.936  0.0399  0.2522  0.1813
17019W        W32913   8.426  17.926   1.334  0.1255  0.1824  0.0937
17020W        W32914  11.713  16.400   3.069 -0.1712  0.1160  0.0318
17021W        W32915   9.077  14.421  13.682 -0.2114 -0.1294  0.0138
17022W        W32916   1.308   8.724   3.721 -0.1514 -0.0180  0.2201
17023W        W32917  11.347   2.736   3.549  0.2061  0.1265 -0.2611
17024W        W32918   5.128   0.717  14.015  0.2043 -0.5888 -0.2387
17025W        W32919   2.358  11.230  14.223  0.1324  0.2132  0.0630
17026W        W32920   8.981   3.208   1.596  0.0235 -0.3024 -0.0458
17027W        W32921   7.622   4.833   1.796 -0.1561 -0.0429 -0.3691
17028W        W32922   8.935  15.330   3.808  0.1215 -0.1693  0.0400
17029W        W32923   7.466  15.783   0.292  0.0623 -0.1376  0.1190
17030W        W32924   0.951  10.077   4.206 -0.0761  0.1567  0.4003
17031W        W32925  15.368   3.700   2.778  0.3004 -0.3376  0.0089
17032W        W32926  17.204   4.543   3.053  0.0030  0.0300  0.1528
17033W        W32927   9.039  16.338  13.232 -0.1282 -0.1301  0.4452
17034W        W32928   0.292  10.582   3.380 -0.4098 -0.0085  0.3082
17035W        W32929  11.736   0.641   5.311 -0.2731  0.0109  0.2115
17036W        W32930   5.733  16.555   4.636  0.0750  0.0411 -0.1279
17037W        W32931   4.217   3.434  12.624 -0.1985 -0.0625  0.2223
17038W        W32932   5.390  14.150   2.781  0.0695 -0.0433  0.1043
17039W        W32933   4.959  16.003   1.070  0.0985  0.0146  0.3633
17040W        W32934   5.796   3.155  10.856 -0.4795  0.1921 -0.0762
17041W        W32935   0.893   0.143  12.058  0.0848 -0.0742  0.4827
17042W        W32936   6.814  10.294  14.895 -0.0601  0.1834  0.1021
17043W        W32937  16.619  15.851   3.122 -0.0759  0.0333 -0.1332
17044W        W32938  12.329  16.008  11.523  0.2094  0.0038  0.1116
17045W        W32939  17.126  11.896   5.353 -0.3338  0.0275 -0.0170
17046W        W32940  14.780  13.587   1.855  0.2213 -0.2448  0.0107
17047W        W32941  13.330   6.170   1.578  0.1388  0.1670  0.0234
17048W        W32942  15.342  12.802  15.518  0.0500 -0.1613 -0.1906
17049W        W32943  15.179  16.158   3.550  0.2060  0.0327 -0.1996
17050W        W32944  17.652   7.361  14.905 -0.1627 -0.2504  0.0890
17051W        W32945  11.856   7.240   6.181 -0.1599  0.0485  0.1086
17052W        W32946   2.656  18.034   1.691  0.0585  0.0412 -0.1238
17053W        W32947  10.309  14.264  11.095  0.2258 -0.1205 -0.3247
17054W        W32948  10.748  15.629   1.441 -0.1344  0.1671 -0.0279
17055W        W32949   5.426   7.069   3.504 -0.0960 -0.1065  0.1450
17056W        W32950   2.159  15.055  11.538 -0.1763 -0.0723  0.0455
17057W        W32951  11.630  15.402  11.875 -0.0586  0.0053  0.0776
17058W        W32952   1.659  12.810   2.620 -0.0955 -0.3530 -0.2332
17059W        W32953   3.491   1.791   0.107 -0.0170  0.0268 -0.2959
17060W        W32954   2.458  15.734   3.149  0.1396 -0.3187  0.2257
17061W        W32955   6.764  16.726   1.161  0.1185 -0.1290 -0.2743
17062W        W32956   3.394   3.414  12.330 -0.3536  0.0173 -0.1954
17063W        W32957   7.950   9.452  14.163 -0.0297  0.0039  0.0524
17064W        W32958  17.962   4.904  14.555 -0.0797 -0.1408  0.0759
17065W        W32959   3.785  15.603   2.600  0.1768 -0.0423 -0.0188
17066W        W32960  16.833  16.200   4.907  0.1183  0.2817 -0.3401
17067W        W32961   2.217  17.441  14.500  0.0532  0.1886 -0.1113
17068W        W32962   6.544  16.040   2.388  0.3557 -0.0771  0.0346
17069W        W32963   8.235  16.066   3.001  0.0755  0.1042  0.0485
17070W        W32964   8.953  10.625  16.029  0.0882  0.1080 -0.1237
17071W        W32965  15.818   1.065  14.336  0.2059 -0.0359  0.0136
17072W        W32966   6.017   5.490  13.441  0.3225 -0.1882 -0.3488
17073W        W32967  10.145   9.053  15.766 -0.0976  0.1548  0.0658
17074W        W32968  17.934  14.453   2.324 -0.0527  0.1918 -0.1306
17075W        W32969   7.784   5.520   5.202  0.0430 -0.0938  0.1226
17076W        W32970   3.386   0.951   0.336 -0.0549  0.1718 -0.0064
17077W        W32971  12.995   0.402  12.339 -0.0620  0.1761 -0.0217
17078W        W32972   9.061   7.182  12.866 -0.1012 -0.3278  0.1110
17079W        W32973  14.646  16.504  12.482  0.0004  0.0363 -0.3008
17080W        W32974   5.127  10.727  14.226  0.1319 -0.1220  0.0133
17081W        W32975  14.752  14.302  14.348  0.1463 -0.1895 -0.1876
17082W        W32976   9.271   2.709  14.865 -0.1627 -0.2290 -0.4815
17083W        W32977  14.291  17.323   0.720  0.0332 -0.0181  0.0295
17084W        W32978   6.730  16.641  14.349 -0.1880  0.0976 -0.1529
17085W        W32979  15.758   3.681  15.877 -0.0602 -0.0181 -0.0337
17086W        W32980   6.117   6.847  11.942 -0.0474 -0.0237 -0.1689
17087W        W32981   8.483   8.551  13.553 -0.0827  0.0203 -0.0850
17088W        W32982  10.023   4.960   0.127  0.0296 -0.0598 -0.1998
17089W        W32983   7.261  18.401  12.344  0.1101 -0.0474  0.0067
17090W        W32984  11.199   5.534  12.593 -0.2501  0.0065 -0.0585
17091W        W32985  11.525  15.305   5.291  0.0244  0.0018  0.0706
17092W        W32986  15.285   7.978   5.693 -0.0306 -0.2011 -0.0458
17093W        W32987   2.862   7.080   2.521 -0.2572  0.2488 -0.0748
17094W        W32988   7.228   3.888  15.389  0.2001 -0.0521  0.1225
17095W        W32989  15.349   0.651  12.232 -0.2231  0.0256  0.0017
17096W        W32990  14.355   7.944   2.065  0.0875 -0.0359 -0.1748
17097W        W32991  16.853   5.003  11.493 -0.2842 -0.2599  0.0563
17098W        W32992   5.774  16.890   1.527 -0.0531  0.0672  0.1415
17099W        W32993   7.673   0.085   1.653 -0.5783 -0.3403 -0.2402
17100W        W32994   3.862   0.101  14.988 -0.0310  0.0799 -0.1963
17101W        W32995  15.088  14.143  14.038 -0.2996 -0.1379 -0.0046
17102W        W32996   0.960   1.870  13.698  0.0826  0.2788 -0.2561
17103W        W32997  17.774  18.242  13.155  0.0862  0.2011 -0.1772
17104W        W32998  13.936  16.071  15.296  0.0634  0.0314  0.1215
17105W        W32999   2.490  17.003   2.185 -0.3897 -0.3928 -0.0163
17106W        W33000  10.114   7.910   1.639  0.1122  0.1828  0.0590
17107W        W33001  11.106  11.169   4.918 -0.0893  0.2656 -0.0021
17108W        W33002   2.697   9.878  11.223 -0.2730  0.1699  0.2371
17109W        W33003   8.959  10.082   4.064  0.1263  0.1274 -0.0906
17110W        W33004   8.305  15.798  11.984  0.2686  0.0456  0.0187
17111W        W33005  18.270  15.147  12.493 -0.1801 -0.0867 -0.0727
17112W        W33006   2.405  12.501   1.208  0.1844  0.0532 -0.2317
17113W        W33007  10.182  16.674  13.832 -0.3621  0.2925  0.0424
17114W        W33008  12.155   5.697  14.415 -0.1343 -0.2982 -0.1070
17115W        W33009  18.430  15.757   5.043  0.2269  0.0833  0.0062
17116W        W33010   1.521   9.223   2.084 -0.2355  0.0294 -0.0651
17117W        W33011  13.168   4.727  12.405  0.3052 -0.0197  0.0979
17118W        W33012  13.012  14.736  13.976 -0.1931 -0.1888  0.2506
17119W        W33013   6.589   5.076   1.309 -0.2533  0.0799 -0.1433
17120W        W33014   0.079  12.574   0.818  0.2196 -0.0491  0.1829
17121W        W33015   2.367   0.949  11.766  0.0955 -0.1259  0.2054
17122W        W33016   7.624   7.062  14.927  0.1739 -0.0925  0.0481
17123W        W33017  14.937  10.978  15.822 -0.0911  0.1846 -0.0122
17124W        W33018  17.124  14.369   3.155 -0.0037  0.0905 -0.0265
17125W        W33019   2.347  17.937  13.868  0.0014  0.1790 -0.0166
17126W        W33020   1.613   2.996  12.549 -0.3241  0.1451  0.0132
17127W        W33021  17.871  14.097   4.807 -0.0356 -0.0967 -0.1584
17128W        W33022   2.537  11.296   5.350 -0.0289 -0.0018  0.1326
17129W        W33023   6.475   1.153   4.289 -0.1543 -0.0570 -0.0746
17130W        W33024   5.008   9.630   2.759 -0.0464  0.3597  0.2403
17131W        W33025  15.088   2.075  11.442 -0.2199 -0.3252  0.1959
17132W        W33026   2.830   1.499  11.172  0.1328  0.1190 -0.2186
17133W        W33027   0.410  11.475  13.396  0.1125  0.0314 -0.0149
17134W        W33028   7.087  17.160   1.735  0.0287  0.0077 -0.0327
17135W        W33029   6.992   4.904  10.848  0.3201  0.2511 -0.5183
17136W        W33030   3.166  15.689  15.358  0.1052 -0.1302  0.2519
17137W        W33031   3.484   9.208   5.173 -0.0869 -0.1789  0.2067
17138W        W33032  17.523  17.305  11.374 -0.1971  0.0976  0.0404
17139W        W33033  10.363  18.113   5.173  0.1801 -0.1985 -0.3679
17140W        W33034  13.068  12.413  14.940  0.0098  0.3104  0.2056
17141W        W33035  12.006   9.603  14.338 -0.2219  0.2114  0.1191
17142W        W33036   3.054   6.737  11.389  0.1379  0.1122 -0.1268
17143W        W33037   7.221   7.490   4.021 -0.1149 -0.2634 -0.1957
17144W        W33038  11.077  18.196  12.920  0.3221  0.0792  0.1407
17145W        W33039   9.281  12.552  13.827  0.0231 -0.0138 -0.0635
17146W        W33040  14.911   2.826  12.474  0.2195  0.1101  0.0489
17147W        W33041   9.073  13.510  12.254 -0.4242 -0.3072 -0.0259
17148W        W33042   4.620   3.891   1.680 -0.3503  0.2024 -0.1232
17149W        W33043  10.874  15.470  12.947  0.2045  0.1516  0.2485
17150W        W33044  15.836   7.172  14.525  0.1235  0.3419  0.1876
17151W        W33045  18.122   3.074   2.931 -0.2998  0.0573  0.1249
17152W        W33046  10.212   9.974   2.739  0.0665 -0.0495  0.0355
17153W        W33047   7.644  13.946  10.641  0.0247  0.0519 -0.2590
17154W        W33048   9.451  11.710   0.818  0.3018 -0.0529 -0.1730
17155W        W33049  13.169  10.529   2.904 -0.1149 -0.1620 -0.1222
17156W        W33050   6.682   8.894  15.904  0.0338  0.2568 -0.3016
17157W        W33051  12.636  14.826  10.342 -0.0722  0.1830 -0.1907
17158W        W33052   5.332  16.815  11.219 -0.0524  0.3145 -0.0407
17159W        W33053   3.510   1.162   1.782  0.1095 -0.0730 -0.0496
17160W        W33054   5.796   3.581   4.317  0.2238  0.0584 -0.0909
17161W        W33055   2.098   7.148   5.066 -0.1471 -0.0124  0.2790
17162W        W33056  16.438  13.502  13.825  0.1676 -0.1994  0.0793
17163W        W33057  10.523   0.898  14.458 -0.0296 -0.3731  0.0263
17164W        W33058   4.341  14.082   0.787  0.0244  0.3031  0.3074
17165W        W33059   5.056  17.132   0.838 -0.2988 -0.0939 -0.2289
17166W        W33060   4.299  17.345  11.558  0.2039  0.0092 -0.0888
17167W        W33061   5.099  12.457   1.865  0.0597  0.1452 -0.2579
17168W        W33062  14.017   5.549  13.417  0.3191 -0.4257  0.2693
17169W        W33063   4.604  14.300   2.459  0.0914  0.1422 -0.2075
17170W        W33064   1.464  11.859  12.761 -0.0877 -0.0201 -0.2104
17171W        W33065  10.253   2.519  13.932  0.0520  0.1934 -0.0849
17172W        W33066   1.854  16.508  11.890 -0.2518 -0.2442 -0.2369
17173W        W33067  12.413   7.556  12.315  0.1991  0.2097 -0.0025
17174W        W33068   2.396  14.278   2.820  0.1856 -0.2182  0.2267
17175W        W33069  18.105   2.219   4.706  0.3912  0.0102  0.0864
17176W        W33070   6.057   5.479  12.029 -0.1666 -0.0895 -0.1424
17177W        W33071  13.940   5.501  15.531 -0.3583  0.0559 -0.2402
17178W        W33072   7.829  11.227  15.716 -0.0334 -0.0673  0.1550
17179W        W33073   9.270   7.430   4.158 -0.1182 -0.2579  0.0207
17180W        W33074  11.794   1.348   2.869 -0.3472  0.0312  0.0436
17181W        W33075  13.014  15.606  11.343 -0.0686  0.0914 -0.1300
17182W        W33076  11.012   8.719  13.211 -0.0075 -0.1080  0.2750
17183W        W33077  16.277   1.230   1.160 -0.2975 -0.2088 -0.2955
17184W        W33078   5.261   8.796   0.604  0.1871 -0.0483 -0.0412
17185W        W33079   8.400   6.258  13.349  0.1259 -0.1377 -0.0413
17186W        W33080  16.843  11.200  11.622 -0.2138 -0.3196 -0.1020
17187W        W33081   1.086   9.024  13.944  0.0630  0.1455  0.4301
17188W        W33082   6.873  10.816  14.867  0.1562  0.3130  0.3419
17189W        W33083  16.876   8.155  11.564  0.0264 -0.0760 -0.4027
17190W        W33084   1.675  12.444  14.756  0.3288 -0.2352  0.1155
17191W        W33085   0.278   4.352   6.044  0.0488  0.0362  0.1289
17192W        W33086   6.606   4.608  10.811 -0.0241  0.0635  0.0653
17193W        W33087   9.290   1.200  12.494  0.1185  0.1280  0.0150
17194W        W33088   6.725   1.991  10.275  0.2599  0.1623  0.0147
17195W        W33089  12.318  12.298   0.729 -0.0387 -0.0820 -0.0491
17196W        W33090  18.413   0.574  14.369  0.1453 -0.1408  0.2725
17197W        W33091  13.252   4.692   5.327  0.1162 -0.1070  0.4324
17198W        W33092  13.790   2.136  11.917  0.1221 -0.3491 -0.0266
17199W        W33093  10.891  14.339  13.814 -0.1827 -0.0060 -0.1410
17200W        W33094  14.494  16.828  13.427  0.1141  0.0641  0.0510
17201W        W33095  13.392   6.853  15.003 -0.1266 -0.0837  0.0990
17202W        W33096  10.264  18.267  13.605 -0.0287 -0.1486  0.0450
17203W        W33097   2.263   2.493   0.985  0.1856  0.1646  0.0747
17204W        W33098  17.327   2.159  13.047  0.0134 -0.0199 -0.2211
17205W        W33099  17.423  13.923   1.527  0.1550  0.1571  0.1794
17206W        W33100  11.228   1.755  10.877 -0.1080 -0.2508 -0.0327
17207W        W33101   0.008  12.235  15.520 -0.0596  0.2186 -0.1400
17208W        W33102   7.200  11.175   2.366 -0.0280 -0.0800 -0.3932
17209W        W33103  13.173  11.513  13.697 -0.0271 -0.4280  0.4183
17210W        W33104   3.280   9.458   1.568  0.1333 -0.0755  0.0101
17211W        W33105   6.864  13.625  16.056  0.1214  0.1927  0.2303
17212W        W33106  15.660  15.822  13.494 -0.3999  0.0194 -0.0052
17213W        W33107  17.805   8.975   4.838  0.0331  0.1227 -0.0141
17214W        W33108  12.360   2.227  14.050 -0.1258  0.0785 -0.0075
17215W        W33109  17.063  14.908  13.901  0.2475  0.1024 -0.0166
17216W        W33110   1.712   7.844   2.300  0.1963 -0.2131 -0.0914
17217W        W33111  13.322  15.885   4.573 -0.1712 -0.0007  0.1264
17218W        W33112   2.136  15.059   0.331 -0.1274 -0.4208  0.1688
17219W        W33113  13.994   1.781  15.859  0.3185 -0.2735 -0.3310
17220W        W33114   1.992  16.186  14.095 -0.1728  0.3422  0.2011
17221W        W33115  17.786   1.980   2.619 -0.1840 -0.1235 -0.0332
17222W        W33116  15.068   3.354  15.379  0.1627 -0.0082 -0.0834
17223W        W33117   7.503  16.198  14.630  0.4142 -0.0588 -0.0979
17224W        W33118  11.422  13.036  12.074 -0.1619 -0.3851 -0.0648
17225W        W33119  12.773  15.561  15.134 -0.2969  0.1176 -0.1353
17226W        W33120   1.742   8.000  11.095 -0.1960 -0.0543  0.1181
17227W        W33121  14.324  14.931   4.549 -0.0678 -0.0008 -0.0888
17228W        W33122   4.270  17.068   0.646  0.1424  0.4480 -0.3594
17229W        W33123   5.980   0.509   1.883  0.1106 -0.2453  0.2139
17230W        W33124  16.497  14.996  13.087 -0.0223 -0.2490  0.2930
17231W        W33125  13.136   8.323  14.876 -0.0686  0.0109  0.0000
17232W        W33126  16.602   7.390   5.212  0.0978  0.0827  0.2933
17233W        W33127   6.918   9.630   0.447  0.1683  0.3439  0.0698
17234W        W33128  15.107   3.464   0.904  0.2262  0.0042  0.1684
17235W        W33129   0.976  18.106  12.737 -0.4009 -0.1161  0.2420
17236W        W33130   2.539   2.277  11.379  0.0857  0.1352 -0.2931
17237W        W33131  11.517  16.725   3.477 -0.2648 -0.2742 -0.0456
17238W        W33132  15.428   7.379   1.523  0.1078 -0.0518 -0.0065
17239W        W33133   5.277   6.165  13.996  0.3173 -0.1873  0.2132
17240W        W33134  18.343   5.790   2.592  0.2532 -0.1541 -0.1390
17241W        W33135   4.732   5.525   5.416  0.1685  0.2073  0.0081
17242W        W33136   8.562   8.661  10.728 -0.2217  0.1046 -0.0718
17243W        W33137  14.955   7.875  15.421  0.1340 -0.0785 -0.1622
17244W        W33138  12.438  15.041   3.744  0.1618 -0.2312  0.0430
17245W        W33139   9.411  13.125   2.977  0.2733 -0.0607 -0.0875
17246W        W33140   9.670  14.342   1.367 -0.2873  0.0982  0.1595
17247W        W33141   3.588  17.772  13.495 -0.1912  0.0562 -0.0112
17248W        W33142   6.786  14.027  11.637  0.0646 -0.0687  0.1534
17249W        W33143  17.468  13.674   0.756  0.2457 -0.6379  0.1890
17250W        W33144   3.589  17.640   5.061 -0.1177 -0.2807 -0.1399
17251W        W33145  13.764   5.602   2.723 -0.3261 -0.0362 -0.0940
17252W        W33146   0.671   2.351   0.501 -0.0906 -0.0883  0.0887
17253W        W33147   3.767   8.658   0.504 -0.2060  0.2595  0.1412
17254W        W33148   1.812  14.864   3.333  0.0625  0.1897 -0.2154
17255W        W33149   2.692   6.012  14.568  0.0141  0.3261 -0.2120
17256W        W33150   9.456   8.304   1.114 -0.1125  0.0837 -0.0573
17257W        W33151  12.797   0.613   3.329 -0.0083 -0.0171  0.1745
17258W        W33152   2.906   3.824   2.295 -0.1457 -0.0256 -0.0876
17259W        W33153   1.938   8.697   1.673  0.1538  0.0945 -0.0605
17260W        W33154  12.116   0.564  15.277  0.2538 -0.4561 -0.1877
17261W        W33155   4.335   1.776   4.240  0.2536 -0.0980  0.0603
17262W        W33156  11.592   8.725   5.548 -0.2105  0.0434  0.1571
17263W        W33157   5.407  10.117  15.036  0.1306 -0.0651 -0.1310
17264W        W33158   5.330  12.714   4.269  0.3323  0.1702 -0.3456
17265W        W33159   2.399   9.994  15.032  0.0260  0.1094 -0.4675
17266W        W33160   8.624  15.957   5.407  0.0410  0.2176  0.0598
17267W        W33161   4.407  13.078  10.761  0.1275 -0.1940  0.1896
17268W        W33162  18.447   6.388  14.344  0.1252  0.2944 -0.1264
17269W        W33163  13.423   7.396  12.246 -0.2393 -0.4295  0.0111
17270W        W33164  14.502   6.060   2.310 -0.2491 -0.2098  0.0836
17271W        W33165   3.405   7.293  15.632 -0.0052 -0.1883  0.2428
17272W        W33166  13.914   6.065   3.744  0.0612  0.1673 -0.1262
17273W        W33167   5.817   2.705   4.674  0.1883  0.1144  0.3146
17274W        W33168  11.791   2.255   0.737 -0.2016  0.0802  0.3863
17275W        W33169  11.711   2.990  13.145  0.5791  0.0498  0.1260
17276W        W33170   3.012   3.566   3.289 -0.2743 -0.2878 -0.0417
17277W        W33171   8.777   6.575   5.640  0.1738  0.1059 -0.3306
17278W        W33172   4.982   6.847   2.345 -0.4319 -0.1565  0.2354
17279W        W33173   5.012  17.761   5.880  0.0036 -0.2896  0.0869
17280W        W33174  10.904   0.113  13.850 -0.1674  0.0078 -0.1206
17281W        W33175  15.736  12.043   1.613 -0.1182  0.1734  0.0226
17282W        W33176   2.980   7.923  11.471  0.1114 -0.0265 -0.1390
17283W        W33177  17.426  15.962   1.678  0.0545  0.0340 -0.2333
17284W        W33178  17.276   0.860   6.730  0.0460  0.1528 -0.1486
17285W        W33179  12.142   8.642   1.433 -0.2485  0.0673  0.2859
17286W        W33180  11.254  12.804   0.005  0.3479 -0.1115 -0.0665
17287W        W33181   5.223   6.699   4.037  0.0593 -0.0388 -0.1386
17288W        W33182  14.951  10.685   1.231 -0.0076  0.1440  0.2778
17289W        W33183  15.846  13.059  11.737 -0.2679 -0.0575 -0.0014
17290W        W33184  16.243  13.662   1.681  0.1220  0.2068 -0.1573
17291W        W33185   0.445   2.273  13.871  0.5023  0.3756  0.0405
17292W        W33186   5.550   2.412   4.992 -0.3484 -0.0818 -0.0294
17293W        W33187  13.545  17.581  15.244  0.0732  0.0794  0.3863
17294W        W33188   0.647   7.164   4.013 -0.1511  0.2060 -0.1019
17295W        W33189  17.271  15.180   5.027  0.0631 -0.0202  0.1001
17296W        W33190   8.726  18.078   2.570  0.2181 -0.3933  0.0597
17297W        W33191   5.436  10.499  15.807  0.0743  0.2512 -0.5996
17298W        W33192  13.191  16.478  15.811 -0.1864  0.1651  0.1347
17299W        W33193   8.747   2.269  13.928  0.5276  0.3457 -0.1644
17300W        W33194   7.562  10.266   2.526  0.0009  0.0302 -0.1927
17301W        W33195  14.642  15.443   0.377  0.0386 -0.1279 -0.0524
17302W        W33196  12.894  17.270  12.585  0.1613 -0.3255 -0.1469
17303W        W33197  17.870  11.770  13.719  0.1389 -0.2060 -0.1785
17304W        W33198   0.439   1.112  13.312  0.3464 -0.2532 -0.1126
17305W        W33199  10.946  16.402   0.443 -0.0563  0.1041 -0.1888
17306W        W33200   6.973  15.125  15.133 -0.1371  0.0470 -0.1279
17307W        W33201   0.454  18.352   5.739  0.1194  0.1214 -0.2043
17308W        W33202   4.344   0.335  16.134 -0.1651 -0.0551 -0.0992
17309W        W33203   5.026  16.371  13.694 -0.0042 -0.0231 -0.0965
17310W        W33204   6.604  17.022  10.613 -0.1565 -0.3423  0.1209
17311W        W33205   8.100  17.934   0.884 -0.1556 -0.0050 -0.1460
17312W        W33206  14.868  16.540   0.313 -0.0915 -0.1613  0.1051
17313W        W33207  11.049   1.924   1.825  0.0978 -0.0463 -0.1553
17314W        W33208   2.474   4.035  13.875  0.2410 -0.1311 -0.0188
17315W        W33209  11.716   5.315   4.088  0.0152 -0.1668 -0.1698
17316W        W33210   5.109   8.389   3.920  0.0126 -0.1632 -0.3132
17317W        W33211   6.543   8.225  14.475  0.2052 -0.1462  0.2045
17318W        W33212   9.834   8.062   5.322 -0.1703 -0.1168 -0.1456
17319W        W33213  16.160   2.531  13.900 -0.2378  0.1068  0.0689
17320W        W33214   9.968   6.326   3.245 -0.4916 -0.1599  0.1877
17321W        W33215  17.284  10.445  12.412  0.0713 -0.1327  0.4696
17322W        W33216  10.899  13.113  13.185 -0.0663 -0.2266  0.4029
17323W        W33217   4.551  13.242   1.977 -0.0172  0.2018 -0.0980
17324W        W33218  13.986   8.718  13.076  0.0365  0.0075 -0.1369
17325W        W33219   8.425   6.684   2.125  0.0239 -0.4700 -0.2495
17326W        W33220   4.734  13.697  14.030 -0.1092  0.1448  0.1527
17327W        W33221   2.806  15.907  13.646 -0.1578 -0.3049  0.5748
17328W        W33222   0.966   5.717   1.214 -0.1392 -0.0987  0.0664
17329W        W33223   2.630  11.510  14.618 -0.0710 -0.3035 -0.0516
17330W        W33224  18.278   6.866  14.518 -0.1046  0.0712  0.0018
17331W        W33225   5.266  16.327   4.000 -0.1850  0.3579  0.1299
17332W        W33226   4.990   9.292  14.367  0.1686 -0.0730  0.0693
17333W        W33227   4.584   2.220   2.593  0.0288  0.0198 -0.2130
17334W        W33228   5.776   0.947  12.680  0.1826 -0.1202 -0.0906
17335W        W33229  13.566  16.971  14.193  0.0381 -0.0110 -0.1938
17336W        W33230   6.061   9.253   3.947  0.1200 -0.2173  0.4143
17337W        W33231  18.425  17.241  15.139  0.2816  0.1389  0.1782
17338W        W33232  13.444   7.597  15.457  0.1138  0.1844 -0.0064
17339W        W33233   3.551   8.072   5.984  0.0394  0.0362  0.3153
17340W        W33234  11.058   5.110  14.200  0.2267 -0.0346 -0.0081
17341W        W33235  16.289  14.851  15.456  0.0830  0.0741  0.1730
17342W        W33236  17.445  13.065   5.863  0.0659 -0.0157  0.1784
17343W        W33237  14.993  17.456  12.214 -0.1607 -0.0165  0.0581
17344W        W33238   0.727  16.938   2.818  0.2184  0.1483 -0.0222
17345W        W33239   7.075  14.022  13.194 -0.5052  0.0044 -0.0139
17346W        W33240   8.548  18.364  11.732 -0.0080  0.2421 -0.0175
17347W        W33241   1.118   5.424   2.272 -0.0982  0.0522 -0.1067
17348W        W33242   8.931  16.472   4.630 -0.1352  0.0666 -0.1900
17349W        W33243   4.053   9.842  15.239 -0.2183 -0.1323  0.0967
17350W        W33244   5.316  11.424  11.784  0.2258  0.1022 -0.3396
17351W        W33245  16.421  11.746   0.707 -0.2594  0.1430 -0.0656
17352W        W33246   8.586  15.873   1.862  0.1194  0.1386 -0.0029
17353W        W33247   8.404  14.507  12.652  0.0488  0.0009  0.2000
17354W        W33248   1.905   0.924   0.598  0.1692 -0.0002 -0.1752
17355W        W33249   6.979   3.161  14.849  0.0128  0.1979  0.2876
17356W        W33250  11.144   1.815   2.317  0.1396 -0.1123  0.0041
17357W        W33251   5.300  11.103   1.996  0.0703  0.2424 -0.0869
17358W        W33252  13.984   0.885  12.033 -0.0369  0.0001  0.3267
17359W        W33253   7.267  17.472   0.735  0.0109 -0.2373 -0.4758
17360W        W33254  10.067   4.622  15.466  0.0521  0.2735 -0.0192
17361W        W33255   6.356   4.538   0.270 -0.1429  0.0018 -0.1867
17362W        W33256   4.188   3.738  14.429 -0.0766 -0.1689  0.2238
17363W        W33257   4.172   1.864  14.570  0.1117 -0.3186  0.1368
17364W        W33258   6.278  16.397   0.091  0.1796 -0.1298 -0.2379
17365W        W33259  11.178   4.598  13.651 -0.0771  0.2146  0.0537
17366W        W33260  10.784  12.176   1.433  0.0743 -0.1786 -0.1123
17367W        W33261   4.043  12.869  14.889 -0.2887  0.2441 -0.1730
17368W        W33262   8.656   9.321   1.279  0.0090  0.0109  0.1117
17369W        W33263  16.120   4.859   5.580  0.0569 -0.1152 -0.1436
17370W        W33264  11.232   1.397  11.225  0.0648  0.1679  0.4050
17371W        W33265  15.585   4.859  12.022  0.3653  0.3852 -0.1470
17372W        W33266   4.678   4.976  16.005  0.5264  0.0474  0.0260
17373W        W33267   6.501   2.558  13.497  0.3383 -0.0047 -0.1559
17374W        W33268  17.023   2.092   0.038  0.1103 -0.1250 -0.0870
17375W        W33269  14.649  11.376  16.077  0.1379 -0.0294 -0.0593
17376W        W33270   1.622   5.202  11.520  0.2141  0.0562  0.1429
17377W        W33271  17.542  15.020  11.194 -0.0010  0.0018  0.0098
17378W        W33272  12.716  15.474  12.839  0.1144 -0.2680  0.6142
17379W        W33273   3.386  10.620  10.520  0.3070  0.0291  0.1872
17380W        W33274   0.283  13.773   1.429 -0.4053  0.2003 -0.0743
17381W        W33275   5.146   1.426  15.558 -0.0963 -0.1907  0.0304
17382W        W33276   5.610   6.053   0.336  0.0655 -0.0095 -0.0093
17383W        W33277   4.251  15.347  12.196 -0.1563 -0.1360 -0.2219
17384W        W33278   6.859  10.920  14.361  0.3587  0.4880  0.0503
17385W        W33279  14.254   3.546   1.694  0.0377  0.1145 -0.1495
17386W        W33280  15.222  13.926   0.818  0.0447 -0.2422 -0.1453
17387W        W33281  17.965   8.550   1.795 -0.0357  0.0778 -0.2040
17388W        W33282  17.891  15.745  13.422  0.3342 -0.4279  0.3903
17389W        W33283   5.123   9.704   5.315 -0.0924  0.4511  0.1432
17390W        W33284  16.215   8.432   1.235 -0.4705  0.2427 -0.0841
17391W        W33285  16.356   4.726  15.025  0.2206  0.1720  0.2569
17392W        W33286  15.834   8.793   5.296 -0.0716 -0.1129 -0.0071
17393W        W33287   5.523  11.673  12.754  0.0533  0.1409 -0.0135
17394W        W33288   5.374  13.811   1.926 -0.2744  0.2605 -0.1292
17395W        W33289   8.731   5.323   3.675 -0.0792  0.0744  0.0376
17396W        W33290  18.081   8.364   3.686  0.3041  0.1698 -0.2088
17397W        W33291  10.281   3.764   4.750 -0.1396 -0.1408  0.1203
17398W        W33292   1.119   9.305  11.897  0.0576 -0.1282 -0.1577
17399W        W33293  12.527  11.777   2.580 -0.1627 -0.0693  0.0551
17400W        W33294   9.411  18.459  13.959 -0.0184  0.2482 -0.2142
17401W        W33295   7.375   8.666  12.673 -0.0359  0.2098 -0.3909
17402W        W33296   0.360  13.034   1.406 -0.0915  0.1251  0.0050
17403W        W33297  10.388   9.313  14.833 -0.1357  0.1740  0.4230
17404W        W33298   4.624   5.656   4.106  0.1201 -0.0109  0.0913
17405W        W33299  10.248  14.996   1.223 -0.4308  0.0131 -0.1906
17406W        W33300   7.007   4.077  13.869  0.0317 -0.0480 -0.1570
17407W        W33301  12.784  14.022   4.262  0.2845 -0.2465 -0.1625
17408W        W33302   0.171   4.924  11.550 -0.1218 -0.0124  0.2454
17409W        W33303   8.431   1.186   1.752 -0.1010  0.1604  0.0619
17410W        W33304   6.841  15.560   4.506 -0.0905 -0.1856 -0.1413
17411W        W33305  17.913   9.786  15.480 -0.3820 -0.2022  0.0300
17412W        W33306   4.434  15.774   1.795  0.3873  0.2708 -0.0969
17413W        W33307  17.382   7.947   6.486 -0.1402  0.0231  0.4399
17414W        W33308  15.870   0.203   4.903 -0.1545 -0.3334  0.2919
17415W        W33309   1.162  14.537   2.031  0.0627 -0.0889  0.0071
17416W        W33310  12.828  16.608   4.455  0.1984 -0.1276  0.1358
17417W        W33311   8.176   8.786  15.562 -0.1482 -0.1240 -0.0426
17418W        W33312   5.326   4.876   1.029 -0.1876 -0.0294  0.1929
17419W        W33313  11.441  18.142  14.134  0.0769  0.0601 -0.2749
17420W        W33314   6.404   5.122   6.197 -0.1791  0.2119 -0.3461
17421W        W33315   7.936   8.270   0.747  0.2108  0.1149 -0.0736
17422W        W33316  10.245   8.728   1.152  0.2012 -0.0962  0.0205
17423W        W33317   3.886  12.599  11.984 -0.0274 -0.0262 -0.0688
17424W        W33318  11.875   6.393   1.567  0.0747  0.4687  0.1715
17425W        W33319   1.099   1.221   1.403 -0.4601 -0.0719  0.0363
17426W        W33320  10.123   5.770   0.496 -0.2710 -0.1526 -0.1370
17427W        W33321   8.557   0.466   1.566  0.0236  0.1201  0.2797
17428W        W33322   3.573   5.614  14.235 -0.0065 -0.0132  0.1842
17429W        W33323  10.721   5.163  11.822 -0.0713  0.0542  0.4819
17430W        W33324  10.678   4.303  14.975 -0.0087 -0.0312 -0.2201
17431W        W33325  17.056   9.736  14.942 -0.0957  0.3130 -0.1152
17432W        W33326   3.911  14.210   1.729 -0.0060 -0.1752 -0.2182
17433W        W33327  12.338   0.340   2.469 -0.2564 -0.0691 -0.4260
17434W        W33328  14.453  10.050   0.751  0.1387  0.1536  0.1597
17435W        W33329   8.165   8.567   2.077  0.0878  0.2244 -0.0006
17436W        W33330  18.454  15.774   2.004 -0.1128 -0.3230  0.0248
17437W        W33331   6.019  16.580  12.245  0.1286 -0.0550 -0.1976
17438W        W33332   1.667   0.208  11.372  0.0457  0.0242  0.0960
17439W        W33333   3.400   1.679  11.290 -0.4795  0.1164  0.0108
17440W        W33334  15.808  10.204   5.105  0.4961  0.1407  0.0874
17441W        W33335   1.611   1.278  14.335 -0.1965  0.1007  0.0031
17442W        W33336  16.013  11.872   1.027 -0.1548  0.0876 -0.0625
17443W        W33337   0.182   6.967   3.845  0.1428  0.3385  0.3057
17444W        W33338   6.151  13.425   4.745  0.2890  0.5713 -0.2850
17445W        W33339  10.586  13.222  14.169 -0.1771 -0.2903 -0.1491
17446W        W33340   5.542   3.998  16.041  0.2840 -0.0178  0.1941
17447W        W33341   2.864   6.255   2.032  0.3693 -0.0168 -0.1001
17448W        W33342   9.415   7.907  10.584  0.1486  0.1529 -0.2963
17449W        W33343   5.210   8.293   5.928  0.4352  0.0060  0.0885
17450W        W33344  11.748   9.673   3.065  0.4727  0.1740  0.0120
17451W        W33345   5.488   0.169  14.916 -0.1475  0.1489 -0.1740
17452W        W33346  10.127  12.733  16.112  0.2780  0.2734  0.2424
17453W        W33347   0.526   7.553   3.687  0.0231 -0.0568  0.0545
17454W        W33348   5.121  12.137   3.044  0.0975 -0.1072  0.3313
17455W        W33349   5.150  12.684  16.045  0.1884  0.2021 -0.1666
17456W        W33350   4.291   2.285   3.076 -0.1879  0.4086 -0.0144
17457W        W33351  16.623   0.986   5.356 -0.2866  0.1307 -0.2631
17458W        W33352   4.979  10.824   0.245  0.1516 -0.3757 -0.0691
17459W        W33353  17.444  13.642   3.530 -0.0317  0.0220 -0.3428
17460W        W33354   5.808   3.776  12.107  0.0398 -0.1868 -0.1414
17461W        W33355   7.799   3.088  13.595 -0.3078  0.3448 -0.5059
17462W        W33356   3.141   2.508  15.545 -0.1393  0.1627  0.1372
17463W        W33357  17.384  17.903  12.940  0.5193 -0.0352 -0.1118
17464W        W33358  12.467  10.346   4.902 -0.0906  0.1351  0.3409
17465W        W33359   5.401   4.073  12.270  0.2631 -0.1405 -0.0128
17466W        W33360   5.822   1.253  15.178 -0.0029 -0.1599  0.4333
17467W        W33361   2.587  12.974  15.418  0.0679 -0.0666 -0.1117
17468W        W33362  10.396  14.297   4.069 -0.0622 -0.1084 -0.0296
17469W        W33363   5.374   9.642  11.011 -0.0631  0.1693 -0.2826
17470W        W33364   5.036  17.841  11.756  0.2917 -0.1044  0.2557
17471W        W33365   9.419  16.363  13.625 -0.1129  0.0880  0.2826
17472W        W33366  13.121   3.340   0.047 -0.1309  0.1103 -0.7683
17473W        W33367   1.367  11.299  12.075 -0.0159 -0.0022  0.3629
17474W        W33368  10.468  15.579   0.150 -0.0416  0.1204  0.4466
17475W        W33369  14.622  18.379   2.515  0.2051  0.1773 -0.4782
17476W        W33370  14.804  12.701  15.593  0.2980  0.0595 -0.3624
17477W        W33371  18.437  12.702  15.398 -0.0041 -0.0448  0.1266
17478W        W33372   3.344  15.118  14.743  0.0383  0.3275  0.0446
17479W        W33373  16.253  16.362  13.145  0.1950 -0.1437 -0.1744
17480W        W33374  12.047   7.336   2.563 -0.1927  0.0456  0.0683
17481W        W33375  12.611  14.712  15.635 -0.0379  0.2669 -0.0937
17482W        W33376  15.428  15.470  15.306 -0.1764 -0.0823 -0.0584
17483W        W33377  17.032  12.539  15.561 -0.3147 -0.0956  0.2887
17484W        W33378  10.892   0.227   4.649  0.2951 -0.2220 -0.0856
17485W        W33379  11.343   5.011   4.256  0.1885  0.0065  0.2607
17486W        W33380   9.908   3.639  11.877  0.2348 -0.3207  0.0410
17487W        W33381  15.977   9.299  13.876 -0.1010  0.0668  0.2740
17488W        W33382   9.517  15.963   2.785  0.1683 -0.1621  0.2399
17489W        W33383   7.166   6.394   2.795  0.0765  0.1122  0.2345
17490W        W33384  15.335  12.682   2.840 -0.0919 -0.3248 -0.1297
17491W        W33385  16.246   6.498   4.113 -0.0277  0.2396 -0.0899
17492W        W33386  15.249  18.099   3.412 -0.0030  0.2413 -0.0674
17493W        W33387   9.001  13.043   3.222  0.1673  0.2357 -0.1729
17494W        W33388   7.079   9.990  15.808 -0.1243  0.0293 -0.0676
17495W        W33389  14.858  16.595  13.157  0.1002  0.0659  0.0677
17496W        W33390  15.292   2.597   0.493  0.0438  0.0536 -0.3122
17497W        W33391   7.632   4.043   4.701 -0.2402  0.0186  0.0185
17498W        W33392   7.030   3.883   2.283  0.0124  0.0918  0.2379
17499W        W33393  16.550   5.465   2.085 -0.0380  0.1167 -0.1365
17500W        W33394   5.095  10.378   1.023 -0.1279 -0.0903 -0.0091
17501W        W33395   1.893   8.280  12.905  0.1435  0.0133 -0.0162
17502W        W33396  13.567  15.218  10.790 -0.0402 -0.1656  0.2988
17503W        W33397  17.287   5.541   2.642 -0.0112  0.1443 -0.2687
17504W        W33398   3.312  12.420   1.192 -0.0351  0.0205  0.4323
17505W        W33399   6.884  15.734  11.327 -0.1392  0.2019  0.3462
17506W        W33400  16.493   2.795  15.677  0.0874 -0.0800  0.0657
17507W        W33401   8.528   1.801  13.535  0.3741 -0.0243  0.3296
17508W        W33402   3.264  15.893   0.136  0.0144  0.1211 -0.0539
17509W        W33403   8.694   5.067   4.830 -0.0776  0.1864  0.1737
17510W        W33404  17.356  16.718  15.107  0.0403  0.0119 -0.3249
17511W        W33405  10.814   2.973   2.891  0.0305  0.0450  0.0251
17512W        W33406  17.536  11.065  14.232 -0.1338 -0.1330 -0.1058
17513W        W33407  17.245   0.526  11.257  0.0775 -0.0325  0.1460
17514W        W33408   4.837   8.324  12.514  0.0260  0.0901 -0.1361
17515W        W33409   1.280   3.344   3.778 -0.0039  0.0666 -0.0257
17516W        W33410  13.811  11.642   0.706 -0.2878 -0.4063 -0.2593
17517W        W33411  12.011  13.684   2.644  0.2196 -0.1222 -0.2375
17518W        W33412  18.105   1.222   1.393 -0.3154  0.0528 -0.1776
17519W        W33413   9.305   5.037  15.053 -0.0999  0.0663 -0.0248
17520W        W33414  13.011  14.473   4.396  0.3412  0.0682 -0.1758
17521W        W33415  14.992   3.364   2.947 -0.0814  0.0891 -0.0233
17522W        W33416  14.218   1.770   0.202  0.2153 -0.1145 -0.0924
17523W        W33417   0.079   6.614   3.544  0.0833  0.0536  0.0457
17524W        W33418  14.793   9.904  14.823 -0.0800 -0.0958 -0.2563
17525W        W33419  18.387   1.596   2.996 -0.2496  0.1733  0.2308
17526W        W33420  10.716   2.745  11.508 -0.1519 -0.3034 -0.1010
17527W        W33421   8.823   4.685   2.502  0.3386  0.0415  0.0453
17528W        W33422   3.360   0.915  11.812 -0.0807  0.0775 -0.3175
17529W        W33423   9.201   8.316   2.846 -0.0955  0.0643  0.1123
17530W        W33424   8.169   0.433   2.741  0.1065 -0.0555  0.0630
17531W        W33425  14.332   3.235   3.786  0.3781  0.2284 -0.2363
17532W        W33426   8.506   2.863   4.881  0.1046 -0.3428  0.2115
17533W        W33427  13.844  10.681  16.028 -0.0770 -0.0614 -0.5024
17534W        W33428   4.091   1.979  11.060 -0.0774 -0.0455 -0.0385
17535W        W33429  11.792  14.788  15.925  0.0763 -0.0608  0.2132
17536W        W33430  16.190   8.452   5.459 -0.2113 -0.2756  0.0351
17537W        W33431   9.669   3.435   3.155 -0.0031  0.1934 -0.0770
17538W        W33432   7.933  11.558  14.470  0.1437 -0.1911 -0.2086
17539W        W33433  14.003  13.595  12.128  0.0963 -0.1436  0.1028
17540W        W33434  12.613  13.904  13.438 -0.1361  0.1496 -0.0396
17541W        W33435  14.407  17.220  15.234  0.2945  0.0573 -0.3292
17542W        W33436   8.335  11.039  13.188 -0.1156 -0.0623  0.2602
17543W        W33437  14.675   4.022  11.964 -0.2673 -0.0760 -0.3090
17544W        W33438  18.269   6.973  10.401  0.0043  0.0851  0.0593
17545W        W33439  16.598   6.894   4.423 -0.1304  0.0499 -0.0179
17546W        W33440   2.231   2.256   0.176 -0.1726  0.0086 -0.2119
17547W        W33441   4.197   4.368  12.657 -0.3893  0.3494  0.0910
17548W        W33442  13.730   2.055   0.477 -0.2096 -0.0746  0.0654
17549W        W33443   1.225  13.267  13.662 -0.1796 -0.0662  0.1276
17550W        W33444   4.866  15.088  15.201  0.3144  0.0144  0.1863
17551W        W33445   7.805   6.217   0.808  0.1667  0.4289 -0.0613
17552W        W33446   8.555  14.340  14.351  0.1086  0.0887  0.1984
17553W        W33447  17.335  15.516   4.539 -0.1022  0.0219  0.2133
17554W        W33448  12.450   3.242  11.773 -0.0081  0.1458 -0.0053
17555W        W33449   9.561   7.247   2.912  0.0837 -0.2154  0.1024
17556W        W33450   0.472  15.079  11.687 -0.1511 -0.2059  0.4253
17557W        W33451   5.325   9.756   4.822 -0.0673 -0.0862 -0.2289
17558W        W33452  16.545   3.168  16.028 -0.0437  0.0933  0.1359
17559W        W33453  14.286  11.824   2.604  0.0661 -0.2362  0.1065
17560W        W33454  10.481   4.940   3.251  0.2431 -0.0268  0.2641
17561W        W33455  10.504   6.495  12.061  0.3160 -0.0791  0.1090
17562W        W33456   8.200   2.834   1.098  0.3680  0.0592 -0.3281
17563W        W33457  15.825   6.728   0.115  0.2307  0.0230 -0.0665
17564W        W33458   9.452   3.247  15.327 -0.3855  0.0372 -0.2273
17565W        W33459   6.317   7.267  16.024 -0.0949  0.1003 -0.0078
17566W        W33460  14.399  10.076  15.920 -0.3357  0.1265  0.1691
17567W        W33461  11.348   9.264   1.495  0.3595  0.0788  0.3175
17568W        W33462  15.669  12.271  13.599  0.3097 -0.0064 -0.0281
17569W        W33463   7.735   5.029   5.326  0.2316  0.3831 -0.0346
17570W        W33464   3.946   3.529   4.669 -0.0831 -0.2005  0.1013
17571W        W33465  11.302   9.021   0.343  0.5141 -0.1114  0.1787
17572W        W33466   9.353   7.188  14.288 -0.1403  0.1247  0.0871
17573W        W33467   0.726  18.432  14.153  0.2625  0.0962 -0.0780
17574W        W33468  18.066   7.600   1.817  0.0345  0.0765  0.0390
17575W        W33469  14.734  16.329  14.898  0.1048 -0.0170  0.0250
17576W        W33470  12.493   4.577   0.453  0.2198  0.0902  0.0253
17577W        W33471   9.370  13.032   1.121  0.1840  0.0206  0.1283
17578W        W33472  17.844  16.505  15.105 -0.0034 -0.0809  0.3807
17579W        W33473  10.590  14.492  12.789  0.2261  0.2634 -0.2150
17580W        W33474   7.587   6.808   5.528 -0.1118  0.1417 -0.2240
17581W        W33475  15.406   3.173  14.568 -0.1247  0.1240 -0.2955
17582W        W33476   6.922  17.900   4.272 -0.0371  0.1332  0.0973
17583W        W33477   9.187  14.695  15.242 -0.0312  0.0671 -0.1412
17584W        W33478  13.957  15.005   2.533 -0.3800 -0.2660  0.1613
17585W        W33479  17.144   8.635  11.748  0.4050 -0.0188 -0.0389
17586W        W33480  15.031   9.517   0.637  0.3692 -0.0961  0.0432
17587W        W33481  17.715  11.447   2.875  0.0741 -0.1785 -0.3600
17588W        W33482  18.370   9.216  11.884  0.0300 -0.0204  0.2233
17589W        W33483   4.949   5.058  11.005  0.1701  0.1285 -0.4075
17590W        W33484  12.196   7.901   4.218  0.1836 -0.0034 -0.0236
17591W        W33485  11.414   5.536  15.064  0.3139  0.1392  0.2990
17592W        W33486   9.404   9.776  16.070  0.1772  0.2410 -0.0422
17593W        W33487  11.066   7.930   3.268 -0.2664 -0.1571  0.1673
17594W        W33488   9.354   2.215   0.792  0.3330  0.0770  0.2049
17595W        W33489  16.393  13.412   3.544  0.1448 -0.2463 -0.0706
17596W        W33490  17.208   4.052   0.244  0.0966 -0.1843  0.0716
17597W        W33491   9.342   9.673   3.904 -0.3103  0.0023  0.3391
17598W        W33492   8.428  18.053  13.943 -0.1456 -0.2736  0.0439
17599W        W33493  12.670   6.575  12.725 -0.1884 -0.1877  0.0302
17600W        W33494  16.152  14.544  11.464 -0.0920  0.1508  0.0545
17601W        W33495  16.710  15.216  15.599 -0.4672 -0.3228  0.0217
17602W        W33496   6.462   6.488  15.406 -0.0282  0.2768 -0.2009
17603W        W33497  16.680   0.439  15.617 -0.0311 -0.0539 -0.1701
17604W        W33498  16.845   5.286   5.693 -0.1137  0.0847 -0.0472
17605W        W33499   0.341  16.076  15.599 -0.0673 -0.0389 -0.3369
17606W        W33500   0.997  15.412  15.924 -0.0967 -0.1137 -0.0425
17607W        W33501   7.094   1.554  14.070 -0.2536 -0.0446  0.5415
17608W        W33502   2.242   3.779  12.444 -0.2090  0.3948 -0.1403
17609W        W33503  14.613  13.992   3.364 -0.2764  0.1477 -0.1437
17610W        W33504  17.270   0.058  11.770  0.0346 -0.3093 -0.2062
17611W        W33505   6.816   2.032   0.260  0.0259  0.3245  0.1408
17612W        W33506  13.090   1.582  11.613  0.3363 -0.1862  0.2044
17613W        W33507  17.674   4.762   5.399 -0.3103  0.1775  0.3855
17614W        W33508   1.370  18.318   3.627  0.3579  0.0585 -0.2173
17615W        W33509   8.923  16.202  10.518 -0.2986 -0.0950 -0.0074
17616W        W33510   4.204  13.890  10.872  0.2871 -0.3241  0.0232
17617W        W33511   2.710   2.931   2.625 -0.1745 -0.0295  0.2448
17618W        W33512   1.734  18.238  11.026  0.0040 -0.2373  0.3889
17619W        W33513   6.489   9.666  12.582 -0.0716 -0.1549  0.0690
17620W        W33514   6.270  11.440   3.605  0.0857 -0.1713 -0.0150
17621W        W33515  16.987   1.115  11.848 -0.5545  0.1068  0.1623
17622W        W33516  12.846   9.035  13.415 -0.1811  0.3732  0.3404
17623W        W33517   4.262   0.523   1.010  0.1404 -0.2041 -0.1425
17624W        W33518  14.424  14.862   2.454 -0.1214 -0.5604  0.4826
17625W        W33519  14.852  12.489   0.643  0.2438  0.0071 -0.3531
17626W        W33520   1.628   0.396  15.148  0.0803 -0.1216 -0.0826
17627W        W33521   6.434  11.178   4.822  0.2274  0.0453  0.2080
17628W        W33522   3.787   8.424   4.487  0.4272  0.0253  0.2225
17629W        W33523   3.224  14.048   4.929  0.1488 -0.1607 -0.0783
17630W        W33524  15.418   5.797   6.690  0.3029 -0.1403  0.0532
17631W        W33525  13.996   5.170  14.717 -0.2491 -0.1556  0.1479
17632W        W33526   6.431   5.531  11.314  0.2851 -0.0398 -0.1671
17633W        W33527  13.280  13.890  14.307 -0.2042 -0.1451 -0.2164
17634W        W33528   6.421  17.839  10.832 -0.0829 -0.1505 -0.2443
17635W        W33529  16.379  11.257  12.442 -0.2564 -0.1555  0.2050
17636W        W33530  15.530   2.078   5.082  0.0920 -0.2402 -0.0526
17637W        W33531  17.808   0.944   3.238 -0.0252  0.0298 -0.0542
17638W        W33532  16.097   9.056  13.441  0.1526 -0.1827  0.0151
17639W        W33533   5.285   9.669   1.682  0.2961  0.0353  0.0326
17640W        W33534  10.803  13.536   0.231  0.0515 -0.2242 -0.1627
17641W        W33535  11.476  10.213   2.246  0.1262  0.4800  0.2927
17642W        W33536  16.296  18.281   3.919 -0.0481  0.2202 -0.0954
17643W        W33537  18.159   3.101   1.124  0.0541  0.0780 -0.2663
17644W        W33538  17.668   3.333   3.707  0.1301 -0.3550  0.1754
17645W        W33539  11.427   8.803  12.177 -0.1118  0.4883  0.2775
17646W        W33540  17.900   4.111   2.643  0.0571 -0.1859  0.0527
17647W        W33541  16.792   3.574   5.363 -0.3471 -0.2181 -0.1496
17648W        W33542  12.761  12.581   0.356 -0.0227  0.0910  0.1056
17649W        W33543   7.501   2.149   0.779  0.0547  0.0076 -0.2043
17650W        W33544   5.957   7.373  13.112  0.0281  0.1325  0.2803
17651W        W33545  18.063  12.527  11.686  0.1873 -0.1185 -0.0200
17652W        W33546  11.924  15.842  11.825  0.2905  0.0035 -0.0933
17653W        W33547   5.467   0.262   3.638  0.0547 -0.2459 -0.1543
17654W        W33548  10.979   0.962  15.812 -0.0749  0.0035 -0.3088
17655W        W33549  11.047   7.847   3.823  0.0173  0.2879  0.0852
17656W        W33550   9.574   0.732   2.904 -0.0278  0.0127  0.3511
17657W        W33551  12.510   6.436   4.924 -0.2422  0.1587  0.1123
17658W        W33552  17.203   2.894  11.641  0.1478  0.0534 -0.0505
17659W        W33553   1.451   7.569   1.066 -0.1893  0.0488 -0.0830
17660W        W33554  16.075  14.707  12.480 -0.0622 -0.2395  0.1833
17661W        W33555  16.129   1.639   2.077 -0.0407  0.2645 -0.0231
17662W        W33556  13.437  15.421  12.036 -0.1517 -0.1400  0.0740
17663W        W33557   3.463  10.982  15.640  0.1915 -0.0126 -0.0125
17664W        W33558  11.002  18.173   4.080 -0.0086 -0.2490  0.0657
17665W        W33559   0.650   7.466   4.931 -0.1437  0.2334 -0.1530
17666W        W33560  13.171   9.721   4.713 -0.0057  0.1255 -0.1055
17667W        W33561  15.212   4.683   6.493 -0.1715 -0.2603 -0.3189
17668W        W33562  17.095   7.383   5.111 -0.0367 -0.0361 -0.0501
17669W        W33563   6.828  17.392   2.713  0.0056  0.2490  0.0492
17670W        W33564  11.259   2.006  13.138  0.1887  0.1421  0.0174
17671W        W33565  11.066  16.299   0.913  0.0592  0.1142  0.3133
17672W        W33566  17.218   3.600   3.276 -0.1052  0.0999  0.0846
17673W        W33567  12.618   7.098   2.394 -0.2302 -0.2536 -0.0352
17674W        W33568   9.933   2.606  13.047  0.0556  0.0750  0.3814
17675W        W33569   4.119  18.246   1.703  0.1355 -0.0763  0.1415
17676W        W33570  12.156  17.773   3.579  0.1902  0.0637 -0.0979
17677W        W33571  12.215   6.633  14.371 -0.4743  0.0061  0.1455
17678W        W33572   0.878  14.812  14.668  0.1768  0.1813 -0.1299
17679W        W33573   1.100   1.424   2.819  0.1638  0.0610  0.3975
17680W        W33574   9.164  16.701  15.409 -0.3739 -0.1704 -0.0068
17681W        W33575   2.496   7.278  13.684  0.2280 -0.1790  0.2656
17682W        W33576   0.408   1.877   1.200 -0.0929 -0.3498  0.0669
17683W        W33577  13.552  12.244  10.743 -0.1932  0.0506  0.1296
17684W        W33578  11.803   8.559  12.023  0.0311 -0.3268 -0.2771
17685W        W33579  10.394  16.287   2.673  0.1917  0.0026 -0.1813
17686W        W33580   8.363   2.053  13.061  0.0201  0.0437 -0.0009
17687W        W33581   1.667  18.120   1.136 -0.2728 -0.2941 -0.2208
17688W        W33582   8.896  17.801  14.052 -0.0319 -0.1523 -0.1841
17689W        W33583   1.345  13.996  15.049  0.2781  0.0039 -0.1950
17690W        W33584   6.946  10.717  12.546 -0.0106  0.1912  0.0520
17691W        W33585   4.578   7.185   2.124 -0.1806  0.0556  0.0423
17692W        W33586   8.326   8.448  12.505 -0.2603  0.1441  0.1157
17693W        W33587  12.877  17.953   2.865  0.1717 -0.2728 -0.0037
17694W        W33588  10.174   2.449   0.515  0.1403  0.1639  0.3887
17695W        W33589  17.791  18.021  15.387  0.1177 -0.4765  0.2197
17696W        W33590  14.959   8.241   0.977 -0.1195  0.1582  0.2995
17697W        W33591  13.040   9.971  13.032 -0.1137  0.0743 -0.3329
17698W        W33592   9.957  16.904  12.544 -0.1183  0.1546 -0.1121
17699W        W33593  13.513  10.657  15.641  0.0275  0.1550 -0.3188
17700W        W33594  17.712   4.971  12.980  0.1728 -0.1794  0.0171
17701W        W33595  18.437   7.329   1.583 -0.4097  0.2697  0.2788
17702W        W33596  10.057  17.423  16.114  0.0889 -0.1773 -0.1938
17703W        W33597   2.323   3.662   1.306 -0.2705 -0.1665  0.3014
17704W        W33598  16.681  11.968  14.845 -0.0561  0.2623  0.0640
17705W        W33599   2.784  16.284   4.014  0.1385 -0.1288  0.1273
17706W        W33600  17.670  13.347  15.932  0.3958  0.2995  0.0504
17707W        W33601   6.910  11.613   2.467  0.0290  0.2057 -0.1255
17708W        W33602   8.568  11.533  11.460  0.4612  0.1746 -0.1522
17709W        W33603   9.346  12.885  10.752  0.0106 -0.0835 -0.2498
17710W        W33604   8.610  12.650  15.831 -0.0216 -0.2636 -0.1363
17711W        W33605  16.972  17.783   6.145  0.0531 -0.1209  0.0901
17712W        W33606  17.603   1.733  13.068  0.0299 -0.0333  0.1491
17713W        W33607  16.278   6.501  15.269  0.0582 -0.0149  0.2566
17714W        W33608   5.880   0.375   3.308  0.1454 -0.1345  0.1791
17715W        W33609   2.100   9.448   1.162 -0.0772  0.1376  0.2218
17716W        W33610  14.623   9.554  11.663  0.1274 -0.0890  0.0817
17717W        W33611  13.848   8.185   5.387  0.1929 -0.0727 -0.0943
17718W        W33612  12.365   7.493  13.321 -0.0584  0.0121  0.0738
17719W        W33613  10.073   4.810   2.986  0.0439 -0.0202  0.0413
17720W        W33614   3.288  12.568  14.140 -0.1680  0.2322  0.0163
17721W        W33615   1.731   8.796   4.408  0.1362  0.1477  0.0077
17722W        W33616   0.172   3.816  14.551 -0.3791 -0.4379 -0.0796
17723W        W33617  10.186   9.318  11.722 -0.2971  0.0585 -0.0307
17724W        W33618  12.506   2.412   1.196 -0.1653 -0.0646 -0.3699
17725W        W33619   2.901  16.317  12.175  0.0891  0.0140 -0.0727
17726W        W33620   7.921  13.363  10.523 -0.2133 -0.4422  0.0256
17727W        W33621   6.451   8.850   5.934 -0.0776 -0.2608 -0.1631
17728W        W33622  16.163  12.355  13.691  0.1188  0.0561  0.0309
17729W        W33623  13.462   6.144  13.070 -0.0683  0.0298  0.1597
17730W        W33624   7.646   7.504  14.540 -0.1829 -0.2798  0.0731
17731W        W33625   5.892  11.641   1.923  0.1556  0.0424 -0.0894
17732W        W33626  11.985   6.564  13.861 -0.1887  0.1352 -0.1918
17733W        W33627  10.861  11.764   3.202 -0.2155 -0.2322  0.1612
17734W        W33628  13.874  13.623  14.906 -0.0119  0.0049  0.2593
17735W        W33629  17.474   3.520   0.161 -0.0246 -0.0346  0.0513
17736W        W33630   7.483  15.512  11.672 -0.2955 -0.2013  0.1727
17737W        W33631  14.705  12.635   4.580  0.1754 -0.0187  0.0083
17738W        W33632  14.306   5.760  14.703  0.0763 -0.0786 -0.0742
17739W        W33633   4.179   1.884   0.889  0.1819 -0.0015 -0.0177
17740W        W33634  11.105   7.070   2.836 -0.0276 -0.0378 -0.2115
17741W        W33635  14.228  15.797  13.435  0.1545  0.1022 -0.2949
17742W        W33636   8.214   5.891  12.502  0.1282 -0.5958  0.3396
17743W        W33637  10.711  11.389   2.880 -0.2052  0.1795  0.1738
17744W        W33638   2.522  16.938  14.693 -0.2370 -0.1380 -0.3240
17745W        W33639   3.878   3.374   4.038  0.0349  0.1156 -0.0882
17746W        W33640   5.921  12.150   4.701  0.2638  0.2841 -0.0941
17747W        W33641  15.539   8.833  13.135  0.1605  0.3854 -0.0664
17748W        W33642   2.352   9.396  13.635 -0.1945  0.1330 -0.2306
17749W        W33643  14.252  17.658  15.035 -0.1874  0.1023 -0.1555
17750W        W33644  15.958   7.911  15.988  0.2091  0.2729 -0.3211
17751W        W33645   1.852  12.186  11.324 -0.0102 -0.2388  0.3313
17752W        W33646   1.339  13.400  14.924  0.1953 -0.1390  0.0054
17753W        W33647  16.117   5.438   3.777  0.0816  0.2016  0.0486
17754W        W33648   4.690   7.640   0.892 -0.1888 -0.1398  0.0451
17755W        W33649   4.751   4.359  13.755 -0.0725  0.4127 -0.2698
17756W        W33650  17.386  14.243  15.584 -0.3455  0.2332 -0.1435
17757W        W33651  16.367  10.191  16.052  0.0591  0.0365 -0.1999
17758W        W33652  11.408   5.292  13.045 -0.1747 -0.0366 -0.1128
17759W        W33653   3.110  17.433  10.987  0.0052 -0.0745 -0.0276
17760W        W33654   0.834   8.454  15.403 -0.0959  0.1791 -0.0193
17761W        W33655  10.709   9.598  12.980  0.0224  0.1167 -0.3077
17762W        W33656   4.678   8.872  16.047  0.2167  0.0229 -0.0734
17763W        W33657  16.577   9.015  14.645  0.1492  0.2303 -0.3638
17764W        W33658  13.273  13.485  10.901  0.1056 -0.1964  0.0283
17765W        W33659  17.161  13.736   5.458 -0.2135  0.0704  0.2073
17766W        W33660   3.523   3.499   2.143  0.3436 -0.0412  0.1037
17767W        W33661   7.078   9.666  12.580 -0.0636 -0.0982 -0.0887
17768W        W33662  12.886  14.151   4.718  0.1326 -0.0961 -0.0924
17769W        W33663   8.860  15.107  12.232  0.1946  0.0077 -0.0248
17770W        W33664   8.090   7.411   0.736  0.0434 -0.0981 -0.0726
17771W        W33665  15.120   2.566  13.769  0.1020  0.2287  0.0251
17772W        W33666   6.977  14.874  15.974 -0.1453 -0.1297  0.1494
17773W        W33667  16.080   1.481   5.919 -0.2275  0.2008 -0.2981
17774W        W33668   7.214  11.158  13.611  0.0280 -0.0209  0.1258
17775W        W33669  11.199  12.158  11.808 -0.1034 -0.0014  0.4179
17776W        W33670   1.286  10.474   0.025  0.0776 -0.0629  0.0811
17777W        W33671   1.255   6.274  12.442  0.1940 -0.2204 -0.1650
17778W        W33672   5.240   1.684  12.679  0.1472  0.1434 -0.0353
17779W        W33673   6.436  10.829   2.602  0.1007  0.0554 -0.1904
17780W        W33674  16.636   8.022   3.686 -0.2727 -0.3738 -0.1024
17781W        W33675   0.610  10.924  14.128  0.2064 -0.0102 -0.2977
17782W        W33676   3.241   2.365  13.743 -0.1083 -0.2404 -0.3529
17783W        W33677   7.623  18.393  15.695 -0.0112 -0.0697  0.0066
17784W        W33678  16.486   3.755  15.121 -0.1606 -0.0155  0.0063
17785W        W33679   5.111   3.490   1.225 -0.0114  0.1344  0.0732
17786W        W33680   2.192  10.413   3.933 -0.2436 -0.2414 -0.1375
17787W        W33681   0.683  12.126   0.976  0.0162 -0.2905 -0.2195
17788W        W33682   9.766  17.401  13.412 -0.0367 -0.0332 -0.1829
17789W        W33683  10.174  14.019  14.430  0.0461 -0.1205  0.0819
17790W        W33684   0.193  10.754  10.337  0.1006 -0.0290 -0.0339
17791W        W33685   7.007   1.771  12.621 -0.0636  0.2343  0.0475
17792W        W33686   7.295   5.782   0.003  0.2661  0.2483  0.0014
17793W        W33687   5.403   4.827  14.279  0.2072  0.1468 -0.0148
17794W        W33688  10.282   6.597   1.314  0.0989  0.1443 -0.0793
17795W        W33689  12.417   1.961  14.793  0.0616  0.2091 -0.0539
17796W        W33690  11.234   7.337  11.125 -0.0425 -0.1122  0.0241
17797W        W33691   8.767  17.423  12.749 -0.0100 -0.4066  0.0238
17798W        W33692  14.155  10.996   1.693  0.4197 -0.3700  0.2284
17799W        W33693   3.862   3.598  11.109 -0.2726 -0.1929  0.1278
17800W        W33694  16.382   5.490   4.242 -0.0829  0.0306  0.1157
17801W        W33695  11.158   5.892   3.641  0.2099 -0.2462 -0.3228
17802W        W33696   6.641   3.126   4.690  0.2876  0.0967 -0.0312
17803W        W33697  15.729   4.068   0.075  0.1501  0.0456  0.0604
17804W        W33698  12.007   5.833  12.474 -0.2961  0.1043 -0.2491
17805W        W33699   3.238  12.893   1.958  0.1516  0.3194 -0.0152
17806W        W33700   9.535   6.697  15.087 -0.0515  0.0049  0.1809
17807W        W33701   0.984  14.145   4.257  0.1262  0.0150  0.0983
17808W        W33702   1.916   5.879   0.337 -0.1258  0.4206  0.2863
17809W        W33703   9.727   2.563   2.443  0.0834  0.1318  0.0556
17810W        W33704  14.662  10.234  12.363  0.0361 -0.1060 -0.5192
17811W        W33705   7.020  13.499   0.494  0.1245 -0.1243  0.0881
17812W        W33706  14.379  13.811   2.466  0.0743 -0.0200  0.0919
17813W        W33707  18.377   5.946  12.170  0.1646 -0.0177  0.2755
17814W        W33708  12.284   2.111  13.079  0.0230  0.0110 -0.1118
17815W        W33709   6.747   0.101  13.090  0.1175  0.5586 -0.0330
17816W        W33710   1.768   5.925  13.855  0.2321  0.1222  0.2264
17817W        W33711   7.568  11.213   4.116  0.0943 -0.2731  0.1643
17818W        W33712  12.917   1.461   3.501  0.2520  0.1303  0.1078
17819W        W33713  14.197  11.944  15.603 -0.1151  0.1289  0.0621
17820W        W33714  14.339   0.087   2.105  0.0395  0.1332 -0.2337
17821W        W33715   1.376   7.090   1.103 -0.0959 -0.4177  0.0376
17822W        W33716  14.371   8.318  11.681  0.0063 -0.1821 -0.1315
17823W        W33717   0.848  16.666  11.548  0.0258  0.0545  0.0714
17824W        W33718   1.937  16.349   5.980 -0.3138 -0.0731 -0.0147
17825W        W33719   3.357   6.619  15.695  0.2015  0.1515  0.1734
17826W        W33720  10.006  15.920   2.624  0.0440  0.2077 -0.2359
17827W        W33721  14.367  14.106   3.810  0.1122  0.2538  0.0060
17828W        W33722  13.431  16.654   4.874  0.2719  0.1407  0.1159
17829W        W33723  10.201  14.342   5.755 -0.0147  0.2296 -0.0130
17830W        W33724   4.522  18.440   0.301  0.0422 -0.0492  0.2739
17831W        W33725   4.723  16.118  15.627  0.2426 -0.1252 -0.0131
17832W        W33726   9.476   5.967   2.026  0.1931  0.4093 -0.5440
17833W        W33727  17.828   0.840   0.088  0.0784  0.2237 -0.0328
17834W        W33728   2.191  16.309   3.934  0.0735 -0.2101  0.2081
17835W        W33729   3.630  16.477   1.096 -0.0175 -0.1023 -0.0385
17836W        W33730  13.486   1.845  12.813 -0.2345 -0.1407 -0.0046
17837W        W33731   6.704   4.723  11.264 -0.2912 -0.1405 -0.1196
17838W        W33732  11.230   2.234   4.714 -0.2244 -0.2356  0.0612
17839W        W33733   3.233   6.064   0.443  0.1759 -0.2687 -0.1091
17840W        W33734   8.312   1.974   1.357 -0.0070 -0.1915 -0.1927
17841W        W33735  13.929   1.229  14.071 -0.1801  0.2305  0.1008
17842W        W33736   8.619  15.515   4.116 -0.0589 -0.4497  0.2123
17843W        W33737   1.268  16.299   1.952 -0.4352 -0.0153 -0.0782
17844W        W33738  17.707   2.721  13.417 -0.2766 -0.0684  0.1468
17845W        W33739   6.281  14.569   0.607  0.0911 -0.0676  0.0205
17846W        W33740   5.152  14.188  10.733 -0.1572 -0.0283  0.1639
17847W        W33741   9.679   7.434  14.555 -0.1899 -0.2131 -0.0429
17848W        W33742  16.798   3.005   2.277 -0.1553 -0.3014  0.1175
17849W        W33743   4.503   0.433  12.082 -0.2770  0.1819  0.1571
17850W        W33744   0.927   5.266  12.266 -0.2149  0.0055  0.2582
17851W        W33745   6.092   2.441  14.626 -0.1910 -0.3653 -0.3535
17852W        W33746  13.168   0.405  13.441  0.2578 -0.1866 -0.1756
17853W        W33747   0.373   6.017   1.878 -0.2462  0.2530 -0.5759
17854W        W33748  14.312   7.800  13.346 -0.1026 -0.2189 -0.2397
17855W        W33749  12.193   8.550  12.424  0.0042 -0.1057 -0.2381
17856W        W33750  12.411   7.598   3.707  0.0595 -0.0339 -0.0366
17857W        W33751   1.048  12.955  15.135  0.3430  0.2286  0.1893
17858W        W33752  12.276   2.419   4.051 -0.1280  0.0441  0.1215
17859W        W33753   4.764   2.669  16.070  0.0541 -0.1820 -0.3319
17860W        W33754   3.813   6.894  10.273 -0.2588  0.0420  0.2428
17861W        W33755   9.127   5.532   2.794  0.2044 -0.1760  0.2723
17862W        W33756   2.822  10.753  13.443  0.0004 -0.3262  0.4408
17863W        W33757   2.661   7.524  12.266  0.1005 -0.1918  0.0154
17864W        W33758   6.388  16.516   2.166 -0.0805 -0.1230 -0.1709
17865W        W33759   6.429   7.787  15.959 -0.2039 -0.0377 -0.1123
17866W        W33760   6.743  15.015  12.560 -0.2319  0.2124  0.1571
17867W        W33761  14.567  10.255  13.928  0.1209 -0.1580  0.1111
17868W        W33762  11.151   2.514  12.771 -0.2261 -0.2308 -0.3147
17869W        W33763   4.526   9.315   0.625  0.4261  0.0762  0.1533
17870W        W33764  17.977   5.135   1.495 -0.0013 -0.2773  0.0998
17871W        W33765   9.746   0.267   2.695 -0.1617 -0.0098  0.2240
17872W        W33766  11.626  10.761   3.054  0.4211 -0.2464 -0.3887
17873W        W33767   4.153   7.377   2.122 -0.2173  0.1609 -0.0673
17874W        W33768   6.718  12.838  12.868 -0.0729  0.1905  0.1455
17875W        W33769   6.267   1.504  11.576  0.0693 -0.0207 -0.1956
17876W        W33770  10.203  18.372  14.482  0.1695 -0.0836 -0.1377
17877W        W33771  13.458   5.669  12.889 -0.0354  0.0400 -0.2820
17878W        W33772  18.458  14.320   2.432 -0.1406  0.2211  0.1088
17879W        W33773  14.859   8.389  14.591 -0.2388 -0.0514 -0.2328
17880W        W33774  13.440   2.972  12.898 -0.0588  0.1699 -0.2332
17881W        W33775  12.886  15.251  10.269 -0.1881  0.0612 -0.3229
17882W        W33776  16.017   1.480   4.561  0.0179 -0.0819  0.0556
17883W        W33777   3.746  17.508   3.795  0.1698  0.2158 -0.0066
17884W        W33778   1.105   7.279  15.159  0.1652  0.0838  0.0738
17885W        W33779  17.088   2.450   1.163  0.0294  0.1933 -0.0155
17886W        W33780   7.974  14.059  11.491 -0.3987 -0.1463  0.0073
17887W        W33781   4.140  11.677   2.092 -0.1262  0.0411 -0.0832
17888W        W33782   8.862   3.893  13.924  0.0800 -0.3586 -0.0074
17889W        W33783   4.585  16.229  12.087 -0.0350 -0.1118  0.2672
17890W        W33784   5.332   1.520   5.192  0.2812 -0.1830 -0.2972
17891W        W33785   2.635   9.196  16.136 -0.1428  0.2376 -0.1650
17892W        W33786  18.036  10.050   0.924  0.0462 -0.4491  0.1227
17893W        W33787   6.327  10.212  14.025  0.0942  0.1292 -0.0301
17894W        W33788   0.762   1.279  12.986 -0.2385 -0.1401  0.2356
17895W        W33789  17.305  11.583  13.514 -0.0945  0.1695 -0.0865
17896W        W33790  10.669   3.592   6.019 -0.0247  0.2390 -0.0926
17897W        W33791  16.817  15.252   2.097 -0.0919  0.2749 -0.5083
17898W        W33792   2.154  10.904  15.126 -0.1166 -0.3299 -0.0012
17899W        W33793   2.980  11.608   5.453  0.3794 -0.0831  0.0544
17900W        W33794  17.218   3.150   5.400 -0.0148  0.1485 -0.2599
17901W        W33795   8.893   5.080  14.691  0.3741 -0.0646 -0.2898
17902W        W33796  17.457  17.453   3.496  0.0329  0.0442  0.1580
17903W        W33797   9.635  16.881   2.787 -0.2440 -0.0438  0.1364
17904W        W33798  15.703  14.452   3.639  0.0038 -0.0900  0.0004
17905W        W33799   0.819   7.012   1.898 -0.4040  0.1640  0.0511
17906W        W33800   6.963   7.585  11.204  0.3305 -0.0238  0.1872
17907W        W33801   7.628   8.254   4.248 -0.0306 -0.0619  0.2671
17908W        W33802  17.413   5.541   0.756 -0.0756  0.0094 -0.0811
17909W        W33803  15.939  12.958  14.438  0.2370  0.0642  0.1892
17910W        W33804   0.853   6.138   1.625  0.0110  0.1288  0.0715
17911W        W33805   0.067   4.530   3.145 -0.0883  0.2220  0.0174
17912W        W33806   0.711  11.776  12.362 -0.2704 -0.0488  0.1414
17913W        W33807  14.047   9.234  13.983 -0.1933  0.2287  0.0668
17914W        W33808  12.818   5.886   4.852  0.1892 -0.1699  0.0241
17915W        W33809   2.477  14.903  11.087  0.0700 -0.2477  0.1999
17916W        W33810   4.593  12.300   4.561 -0.2641  0.1276  0.1815
17917W        W33811  16.657   6.794  12.255  0.1536  0.1616 -0.3074
17918W        W33812  18.201   8.171  15.816  0.1275  0.3101 -0.0717
17919W        W33813   6.271   2.495   1.852  0.1628  0.0508 -0.1268
17920W        W33814  14.344  17.235   2.258 -0.3061  0.1796  0.0588
17921W        W33815   1.463  12.052  15.361  0.0689  0.3110 -0.1250
17922W        W33816   8.333  13.451   0.108 -0.1677  0.1156 -0.1190
17923W        W33817  14.646  10.777  15.424  0.1175 -0.0957  0.1407
17924W        W33818   2.205   7.036   2.973 -0.0489 -0.0635 -0.1100
17925W        W33819   1.975  10.619  12.601 -0.0319  0.1131 -0.3114
17926W        W33820  15.379  15.477   4.954  0.1598 -0.2963 -0.1406
17927W        W33821  13.995  17.831  15.928 -0.2317 -0.0782 -0.2594
17928W        W33822  11.580  18.391   3.388 -0.0092  0.0892 -0.2882
17929W        W33823   5.189  12.373  14.668 -0.0895 -0.2252 -0.0810
17930W        W33824  15.267  16.610   3.634  0.1621  0.0344  0.3079
17931W        W33825   5.850   0.749   1.403  0.0029  0.0547 -0.0879
17932W        W33826  13.094   8.919   1.845  0.2432 -0.1916 -0.1054
17933W        W33827  16.655   6.897  13.096  0.1399 -0.1822 -0.0658
17934W        W33828   5.510  17.221   1.993  0.4833 -0.3151  0.0888
17935W        W33829   1.430  10.346   2.530 -0.0520  0.1205 -0.1466
17936W        W33830   8.596   3.835   2.893  0.0755 -0.0207 -0.3601
17937W        W33831  17.150   3.201  14.123  0.0387  0.4818  0.0149
17938W        W33832   9.553  11.876   2.811  0.4782 -0.1996 -0.3031
17939W        W33833   1.490   7.568   4.454  0.2148 -0.0492  0.3106
17940W        W33834   5.495  14.918  10.848 -0.2002 -0.1095  0.1448
17941W        W33835   0.088   3.523   0.129  0.1782  0.0340  0.3199
17942W        W33836   6.132  11.102   3.107  0.2608 -0.0404 -0.0909
17943W        W33837   1.680  17.653  13.216 -0.0015 -0.0542 -0.2886
17944W        W33838  13.463   3.145   5.099  0.1193 -0.3100  0.2069
17945W        W33839  17.813  12.301  14.757 -0.1132  0.1300  0.2298
17946W        W33840   0.717   9.354   4.887 -0.1267  0.2364 -0.2290
17947W        W33841  12.017  15.807  16.023  0.1845 -0.0556  0.0110
17948W        W33842  13.820  12.889  15.480 -0.0875 -0.3992  0.0378
17949W        W33843   9.583   3.097   0.963 -0.1928  0.0380  0.2667
17950W        W33844  11.866   6.655  14.720 -0.1093 -0.0241 -0.3338
17951W        W33845   9.561  17.937   4.774 -0.1255 -0.0024 -0.0696
17952W        W33846  11.921   6.184  14.552 -0.0525  0.0198 -0.0291
17953W        W33847  15.721   1.279   5.582  0.0236 -0.2784 -0.2412
17954W        W33848   8.545  12.078  11.745 -0.2062 -0.0400  0.0740
17955W        W33849  16.286   4.618   4.847  0.0548 -0.1034  0.1382
17956W        W33850  15.016  15.265  15.663 -0.0389 -0.1273 -0.0176
17957W        W33851   3.498  12.021  10.934  0.0462 -0.0704 -0.1802
17958W        W33852   8.664   7.166   1.830  0.3174  0.2445  0.1518
17959W        W33853   2.751  15.132   3.799 -0.1779  0.2558  0.0045
17960W        W33854   7.108  17.312   3.999 -0.1504 -0.0230  0.0534
17961W        W33855   6.188  12.979   2.298  0.0144  0.0938  0.1362
17962W        W33856   5.745   1.191   3.547 -0.0760 -0.0591  0.0670
17963W        W33857  17.650   8.213  12.264  0.3387  0.0641  0.0329
17964W        W33858  11.044  17.517  15.020 -0.1216 -0.1141 -0.0070
17965W        W33859  14.597  18.349   5.114  0.2722 -0.2285  0.4043
17966W        W33860   8.341  14.560   3.901  0.0349  0.1829  0.0234
17967W        W33861   1.914  14.318  13.049 -0.0075  0.0474 -0.2730
17968W        W33862  14.249   3.422  12.655  0.2477 -0.1628  0.0240
17969W        W33863   7.696  12.607   4.489 -0.0529  0.2323 -0.1437
17970W        W33864  12.103   8.295   4.702  0.0177 -0.3164 -0.2629
17971W        W33865   5.767   6.244  13.869 -0.0213 -0.0812  0.1726
17972W        W33866  12.770   5.648   5.629 -0.0816 -0.1047 -0.1297
17973W        W33867  11.314   0.427   4.943 -0.1995 -0.3192 -0.2250
17974W        W33868   5.203  10.118  12.718  0.0435 -0.0269  0.0709
17975W        W33869   0.283   4.095  13.739  0.0358 -0.2877 -0.2283
17976W        W33870  10.151   8.015  12.256 -0.0480 -0.0444 -0.2694
17977W        W33871  15.963  16.848  15.723  0.0132  0.0512  0.4293
17978W        W33872  13.330  14.453   3.156  0.1320 -0.0342  0.0386
17979W        W33873   6.760  17.129  15.564 -0.0331  0.0142 -0.0986
17980W        W33874   4.947   3.132  15.754 -0.0519 -0.1080 -0.1431
17981W        W33875   9.246   6.502  15.507 -0.0477  0.1305 -0.4635
17982W        W33876   8.026   4.907   1.510 -0.0728  0.0549 -0.0831
17983W        W33877   7.529  11.904   1.931 -0.2088 -0.1673  0.2383
17984W        W33878   6.009  10.973   0.877 -0.0036  0.0343 -0.1519
17985W        W33879  13.010   2.917   0.349  0.0123  0.0602 -0.0299
17986W        W33880   6.566   1.665   0.527  0.2412  0.2380 -0.2967
17987W        W33881  11.968  10.319   2.894 -0.0674 -0.1773  0.2194
17988W        W33882  15.761  11.774  13.245  0.1014  0.1583  0.1701
17989W        W33883   8.888   7.960  14.279  0.1075  0.1356 -0.1622
17990W        W33884  17.281  14.010   4.021  0.0816 -0.0655 -0.0961
17991W        W33885  11.450   4.904  13.891 -0.1197  0.1623  0.2304
17992W        W33886  11.605   5.447   5.047 -0.0573  0.1919  0.1217
17993W        W33887  12.630   3.391   4.304 -0.1552 -0.2679  0.4213
17994W        W33888   0.629   6.219   4.064 -0.1126 -0.0133  0.1218
17995W        W33889   4.790   0.655   1.811 -0.0818  0.1239  0.1242
17996W        W33890   8.116   6.222   1.585  0.1891  0.1074  0.0242
17997W        W33891   1.657  11.519  15.384  0.0596  0.2024 -0.1931
17998W        W33892  17.594   6.692   5.130 -0.2463 -0.0865  0.0400
17999W        W33893   6.711   3.926  12.157  0.1257 -0.3135  0.2043
18000W        W33894  15.934   7.456  13.027  0.1335 -0.1312  0.1818
18001W        W33895  13.389  11.358  11.382 -0.0500  0.2720  0.5327
18002W        W33896   6.414   5.811   4.173 -0.1478  0.1567 -0.1529
18003W        W33897   8.508   8.079  13.209  0.1087  0.2168 -0.1032
18004W        W33898   3.890   8.950  12.535 -0.2197 -0.1070  0.4565
18005W        W33899   7.310   3.472  15.146 -0.0995 -0.0994 -0.1928
18006W        W33900   8.424   3.744   0.131  0.2307  0.0530 -0.1677
18007W        W33901   2.016  10.403  15.047 -0.1329 -0.1670 -0.2241
18008W        W33902   4.804   3.669  12.125  0.0451  0.2119  0.4364
18009W        W33903  14.137  16.556  14.401 -0.5672  0.1970 -0.0800
18010W        W33904   8.081   8.193  14.679  0.1659 -0.0229 -0.1390
18011W        W33905   9.502   8.453   2.368  0.1572  0.0242 -0.0195
18012W        W33906   3.355   0.020  10.987 -0.0620  0.1118  0.1599
18013W        W33907   1.681   8.116   4.521 -0.0446  0.3750  0.0887
18014W        W33908   9.603  10.636  12.109  0.0552 -0.2832 -0.3007
18015W        W33909   6.124   5.002   3.984  0.1171 -0.1235  0.1143
18016W        W33910   1.772   8.026   2.755  0.0306 -0.3325  0.0593
18017W        W33911  13.914   0.115   0.537 -0.3873 -0.0181  0.1776
18018W        W33912   9.698  10.435   3.497 -0.4105  0.2311 -0.0175
18019W        W33913  16.819   2.895   4.795  0.5431 -0.2321  0.0258
18020W        W33914  11.354   4.009  11.724 -0.0687  0.0350 -0.1473
18021W        W33915   9.565  15.557  12.551  0.3339  0.0807  0.0901
18022W        W33916  14.009   9.424   3.876  0.0833  0.1983  0.1920
18023W        W33917   7.643   3.541   1.622  0.2439  0.0606  0.2465
18024W        W33918  14.194   2.397   5.173  0.3360  0.0510 -0.1351
18025W        W33919  11.830  17.820  12.375 -0.2280  0.2330  0.0884
18026W        W33920   9.690   2.888  14.002  0.0821  0.2850  0.0465
18027W        W33921   7.636  15.780   2.653 -0.2118 -0.2105 -0.0051
18028W        W33922   1.785  13.403  13.541 -0.3843 -0.0959 -0.2086
18029W        W33923  17.949  12.500   0.003 -0.1395  0.0773 -0.0064
18030W        W33924   7.304  13.532   0.964  0.3926 -0.1343  0.1086
18031W        W33925   5.037   2.300  15.910 -0.1087 -0.2128  0.0566
18032W        W33926  13.330  15.929  12.801  0.1102 -0.0730  0.0863
18033W        W33927  10.723  17.328   1.769  0.1503  0.1619  0.2256
18034W        W33928   3.537   3.117  14.306  0.1129  0.0591 -0.0617
18035W        W33929   7.219   9.316  14.692 -0.0006 -0.1147 -0.1886
18036W        W33930   9.434  15.379   3.672 -0.0161  0.0596 -0.0946
18037W        W33931   5.024  13.212   0.088  0.0259 -0.0727  0.0834
18038W        W33932   9.226   9.814   1.707  0.0605  0.1561 -0.0686
18039W        W33933   3.892  12.369  14.859 -0.1479  0.1196  0.4938
18040W        W33934   7.357   9.476  11.291  0.0622  0.0286  0.0818
18041W        W33935   4.049   4.792  14.331  0.0009  0.0209 -0.1036
18042W        W33936   3.410  16.838  14.876 -0.0397  0.0295  0.1947
18043W        W33937  16.746   4.312  12.301 -0.0114 -0.0720 -0.0174
18044W        W33938   6.703  12.978   2.466 -0.0955  0.1485 -0.2618
18045W        W33939  13.404  13.283   4.428  0.5672  0.0904 -0.0602
18046W        W33940  13.784   6.984  14.470 -0.1215 -0.1263  0.0011
18047W        W33941  11.518   3.576   3.622 -0.0585 -0.2028  0.3285
18048W        W33942   4.448   5.995   1.087 -0.3002 -0.2734  0.2407
18049W        W33943  15.245   7.182  15.737 -0.1411 -0.2500 -0.1291
18050W        W33944  14.057  11.741   1.563 -0.0094 -0.1929 -0.1773
18051W        W33945  17.312  14.919   0.143  0.2566 -0.3561 -0.1540
18052W        W33946   3.153  13.956  13.633  0.1956 -0.0436 -0.2710
18053W        W33947   9.906  14.203  10.686 -0.1707  0.0149 -0.1937
18054W        W33948   6.138   8.072   5.351 -0.3327  0.0305 -0.4104
18055W        W33949   6.881   6.528   4.141  0.1353 -0.1436 -0.2194
18056W        W33950   5.070  16.312   3.177 -0.0850 -0.0536 -0.0882
18057W        W33951   0.964   8.095  12.820  0.2049  0.0351 -0.1714
18058W        W33952  18.407  16.440   3.746  0.1615 -0.0059  0.2369
18059W        W33953  14.222   7.230   4.567 -0.3442  0.0781  0.0812
18060W        W33954   5.715  10.695   0.489 -0.2432 -0.2176  0.0851
18061W        W33955  11.012  16.409  13.327 -0.0040  0.0698  0.5280
18062W        W33956  15.717   2.242  12.652 -0.2022  0.2692  0.2805
18063W        W33957   3.477   9.905   3.713 -0.0511  0.2906 -0.0681
18064W        W33958   8.797   6.459   0.811  0.2147  0.1663  0.1575
18065W        W33959  15.917   6.266   1.150  0.0302  0.0383 -0.0493
18066W        W33960   6.364   7.998  15.067 -0.0419  0.1583  0.2202
18067W        W33961  14.643   5.143   2.254 -0.1477  0.0552 -0.3574
18068W        W33962  17.617   9.978   2.629 -0.0010 -0.1021 -0.2131
18069W        W33963  16.255  16.415  11.312 -0.0504  0.2681  0.2022
18070W        W33964   3.758   2.707   0.732 -0.1928 -0.2679  0.1074
18071W        W33965  12.039  10.540  12.525 -0.0715  0.0991 -0.1539
18072W        W33966  17.167   8.140   3.430 -0.0727  0.2131 -0.0669
18073W        W33967  13.852   3.743  15.487  0.1339 -0.0995  0.0127
18074W        W33968   5.523   3.619   3.842  0.1538  0.0464  0.0842
18075W        W33969  17.924  17.695   3.487  0.2579  0.1325 -0.0519
18076W        W33970   5.418   4.109   0.353  0.5017  0.0335  0.2974
18077W        W33971  12.156  12.279   1.637  0.0469 -0.0129  0.2856
18078W        W33972   5.480  13.805   4.823  0.0751 -0.1162  0.2222
18079W        W33973  18.338   6.256   4.649  0.1527  0.2361  0.0209
18080W        W33974  13.986   3.553  14.364 -0.3944 -0.0146  0.5506
18081W        W33975  11.292  14.695  14.044  0.0867 -0.0084 -0.0893
18082W        W33976   1.108   4.705  16.011  0.0913 -0.0581  0.1391
18083W        W33977   7.072  10.173  11.034  0.2405  0.0502  0.0982
18084W        W33978  11.436   2.112  15.474  0.0705 -0.0839  0.0451
18085W        W33979   3.381  16.786   4.385 -0.2513 -0.0506  0.0944
18086W        W33980  18.144   5.165  11.682 -0.1502 -0.1215  0.1389
18087W        W33981   0.118  18.324  11.441  0.0484  0.1359 -0.2247
18088W        W33982   7.415   2.850  12.748  0.2595 -0.0787 -0.2535
18089W        W33983  10.114   2.354   5.080 -0.4435  0.2668 -0.0067
18090W        W33984  17.891   3.374   3.243 -0.1031  0.0966 -0.1270
18091W        W33985  18.263   8.750   2.755  0.2699  0.0524 -0.4406
18092W        W33986  13.705   7.444   0.938  0.2262  0.2362 -0.2003
18093W        W33987   5.174   0.217  14.072  0.0730  0.0412 -0.0546
18094W        W33988  16.426  10.470   1.899  0.0714 -0.0056 -0.1430
18095W        W33989   0.961   6.667  12.300  0.1078 -0.2214  0.0325
18096W        W33990  18.131  16.895   2.385  0.2092  0.1826  0.0460
18097W        W33991   8.979  13.724   4.676  0.0772  0.0290  0.2680
18098W        W33992   3.165  14.716   1.848 -0.2701 -0.2994  0.1987
18099W        W33993   9.718  17.187   3.233 -0.1003  0.1573 -0.1202
18100W        W33994  11.625   4.820   3.824 -0.0914  0.0008  0.1535
18101W        W33995   7.808   1.269  13.819 -0.1135 -0.0402 -0.2526
18102W        W33996   9.910   6.489  14.879 -0.2678  0.0419  0.1476
18103W        W33997   2.261   3.825   2.303  0.3116 -0.1491  0.0549
18104W        W33998   6.777  17.659  12.275  0.4995  0.1151  0.2193
18105W        W33999  11.489   7.081  15.302 -0.1303  0.1821  0.0263
18106W        W34000  14.454   1.790   4.123  0.1613 -0.0815  0.0932
18107W        W34001  15.250   7.939  15.918  0.3146 -0.0801  0.2665
18108W        W34002   6.992   9.211   0.745  0.2277 -0.3385 -0.1630
18109W        W34003  14.333   9.554   0.588  0.1619 -0.0208  0.2663
18110W        W34004   8.522  16.103   4.528 -0.1719  0.0766  0.1060
18111W        W34005  11.515   6.904   5.948  0.3428 -0.0333  0.2489
18112W        W34006  15.492   9.219  12.789 -0.0748 -0.2153 -0.1221
18113W        W34007   5.629   6.319   2.764  0.2902  0.4808 -0.1745
18114W        W34008   3.764  11.577   1.479  0.2295 -0.1898  0.1972
18115W        W34009  15.695  10.120  11.502  0.1436  0.0279 -0.1711
18116W        W34010  10.689   3.518   3.559  0.0431  0.4604  0.0782
18117W        W34011   5.282  14.750   5.254 -0.2732  0.0288  0.0279
18118W        W34012  10.322   5.024  11.056 -0.0047  0.1845  0.1318
18119W        W34013  16.252  10.541   0.870  0.3895 -0.1005  0.0753
18120W        W34014  11.390   4.436   5.114 -0.1542 -0.0583 -0.1858
18121W        W34015   4.237   6.735   0.022  0.1317 -0.0513 -0.4076
18122W        W34016  17.034  18.024  14.986 -0.2725 -0.0360  0.0330
18123W        W34017  15.200   1.580   6.546  0.0344  0.0827  0.0000
18124W        W34018  16.000  10.451   1.674  0.0206  0.0440 -0.0832
18125W        W34019  10.809   7.951  14.075 -0.0484 -0.3316  0.0348
18126W        W34020  10.717   8.245   4.011 -0.0272  0.0985 -0.0188
18127W        W34021  12.436   9.526   0.261  0.0305  0.0696 -0.0482
18128W        W34022   9.584  10.296  14.902 -0.0273 -0.0937 -0.1229
18129W        W34023  14.544   7.584   4.247 -0.1360  0.1131  0.1363
18130W        W34024   2.271  10.007  12.768  0.0374 -0.2802  0.0990
18131W        W34025   0.244  15.688   3.030 -0.0866 -0.0156  0.0009
18132W        W34026   0.917  10.384   2.756  0.1447  0.0603 -0.1368
18133W        W34027   0.745   9.904   5.580 -0.1358 -0.0988  0.2599
18134W        W34028   5.624   7.199  12.775  0.0148 -0.0659  0.1475
18135W        W34029  13.339   0.165  11.940 -0.0314 -0.1762  0.1278
18136W        W34030   2.090  18.416  11.370 -0.3644 -0.0813  0.1498
18137W        W34031  17.984   7.968   1.016 -0.1973 -0.0310  0.2853
18138W        W34032   7.544  14.538   4.436  0.1137  0.1246  0.0095
18139W        W34033  11.723  17.626   2.852 -0.0533 -0.2177  0.1049
18140W        W34034  17.945   3.954   1.564  0.1312  0.2585  0.0180
18141W        W34035   7.389   5.974  15.039 -0.1825 -0.2821  0.0730
18142W        W34036   6.139  10.053  14.506  0.2302  0.0739 -0.2174
18143W        W34037  13.477  17.806  12.232  0.2567 -0.0302  0.0472
18144W        W34038  13.644  17.873  13.429  0.1339  0.0150 -0.2440
18145W        W34039   1.517   9.655  13.556  0.3364 -0.1460 -0.1331
18146W        W34040   8.840   8.627   0.154 -0.1399  0.1923  0.0809
18147W        W34041  18.395  12.137   2.646  0.0026 -0.2173 -0.0655
18148W        W34042   9.089  12.274  14.243  0.0036  0.0941  0.4428
18149W        W34043   7.583   7.479  13.542 -0.0752  0.1514  0.1510
18150W        W34044  12.671  13.696   1.128 -0.4728 -0.0133  0.0553
18151W        W34045   8.094  14.897   1.087 -0.0160 -0.1625  0.2431
18152W        W34046  13.042  17.490  10.701  0.1712  0.3886 -0.2008
18153W        W34047  12.798   2.164   2.183  0.3200  0.1164  0.4756
18154W        W34048  14.805  11.731  12.710  0.0104  0.0505  0.2450
18155W        W34049  18.236   1.414  12.952  0.0239  0.3440 -0.0087
18156W        W34050  11.414   2.863  15.869 -0.0657  0.0100  0.0651
18157W        W34051  17.913   2.911   3.533  0.2450 -0.0951  0.0111
18158W        W34052   9.920  10.743   1.435 -0.5346 -0.2652  0.0543
18159W        W34053  14.213  17.245  13.715 -0.3688  0.1936 -0.3935
18160W        W34054  18.212   3.214   2.458  0.6066 -0.1731 -0.0153
18161W        W34055  16.795   7.431  15.858 -0.2710 -0.1748 -0.1408
18162W        W34056  17.904   9.234  13.427 -0.1008 -0.2003 -0.1448
18163W        W34057  13.552   7.904  14.985 -0.1792  0.0468  0.0390
18164W        W34058  11.028  10.792  12.894  0.3527  0.1577 -0.1748
18165W        W34059  16.677  10.123   4.115 -0.1818 -0.1426 -0.1249
18166W        W34060   2.440  12.141  13.439 -0.1002  0.1388 -0.1740
18167W        W34061   5.898   3.144  13.306  0.0004  0.0604  0.0967
18168W        W34062   1.344   5.422   1.315  0.1067  0.1950 -0.0296
18169W        W34063   2.810  14.797   1.390 -0.2291 -0.0011 -0.1435
18170W        W34064  10.304  11.755  15.813  0.1005 -0.2766  0.1242
18171W        W34065   4.769  16.441   4.285 -0.1147  0.3126 -0.0038
18172W        W34066   1.650  14.346   3.187 -0.3772 -0.2400  0.2040
18173W        W34067  13.755  12.212  12.061 -0.0098  0.0020 -0.0911
18174W        W34068  12.234  14.338  11.006  0.3475 -0.2192  0.1644
18175W        W34069  13.782  12.707  13.083 -0.0527  0.1405 -0.4103
18176W        W34070  10.547  11.936   0.034 -0.0132 -0.1059 -0.0152
18177W        W34071   6.385  12.554   0.272  0.1935 -0.1725 -0.2621
18178W        W34072   3.850   8.902  15.106  0.0601 -0.1943  0.0752
18179W        W34073   9.859  12.556   4.558  0.0845 -0.4616  0.1034
18180W        W34074  17.642  13.218   1.988 -0.2819 -0.2705 -0.0526
18181W        W34075  13.705  12.718  13.561  0.1993 -0.3988  0.0048
18182W        W34076   7.751   9.871   1.649 -0.1268 -0.0216  0.2145
18183W        W34077  12.924   7.709   3.988  0.0182 -0.0016 -0.2151
18184W        W34078   0.569   1.353   1.504 -0.1197 -0.1412  0.1143
18185W        W34079  18.189   1.229   0.015 -0.1458 -0.0672  0.2616
18186W        W34080  11.109  16.298   1.862 -0.0789  0.2726 -0.3126
18187W        W34081  15.860   8.114   6.322 -0.1453  0.1075  0.2554
18188W        W34082  16.019   2.080   1.851  0.2797 -0.0846  0.0668
18189W        W34083   4.500   7.265  14.180 -0.2975  0.1920 -0.0646
18190W        W34084   3.494   9.003  15.559  0.2587  0.0810 -0.4037
18191W        W34085   9.992  10.692  13.970 -0.2948 -0.0573 -0.0239
18192W        W34086   9.516   4.900   0.276  0.2813  0.0334  0.2329
18193W        W34087   8.345  12.482   2.294 -0.0376  0.1123  0.2000
18194W        W34088  15.168   0.271  11.899  0.2664  0.0999 -0.2102
18195W        W34089   8.345  11.211  14.467  0.0647 -0.1126  0.0909
18196W        W34090  12.386  11.456   4.232  0.2821  0.0004  0.0160
18197W        W34091  15.960   9.557  15.344 -0.0772 -0.2547  0.0997
18198W        W34092   4.876  13.788  11.933  0.1173  0.2619  0.0057
18199W        W34093  17.264  14.063  11.004  0.0730 -0.0592  0.1872
18200W        W34094   8.913   9.803  14.425  0.2741  0.1558 -0.0555
18201W        W34095   0.677  14.583   1.872 -0.2323 -0.0378 -0.0496
18202W        W34096  14.814  10.826  14.984  0.0562 -0.2921  0.1070
18203W        W34097  17.749   9.908   4.269  0.2821  0.2686  0.1176
18204W        W34098   3.947  11.256  13.676  0.0398  0.0840 -0.1530
18205W        W34099   6.794  12.321   4.969 -0.0163  0.0573  0.1028
18206W        W34100  13.838  14.440   3.165 -0.3225  0.2706  0.3559
18207W        W34101  10.460  13.500  15.982 -0.1917  0.0591  0.0900
18208W        W34102  12.893   9.227  16.071 -0.0494  0.0263 -0.0515
18209W        W34103   4.459  15.404   1.432 -0.0609  0.2076  0.1047
18210W        W34104  13.002  14.043  13.073 -0.0328 -0.1757 -0.5298
18211W        W34105  11.896  12.126   0.483  0.0527 -0.1956  0.0625
18212W        W34106   9.575   9.683  13.276  0.1950  0.1921  0.1909
18213W        W34107  14.906   1.456   5.415  0.0114 -0.0761 -0.2288
18214W        W34108  13.657   4.929   4.135  0.0745 -0.0984 -0.1814
18215W        W34109   0.456   0.898  11.600 -0.2181  0.2350  0.3274
18216W        W34110  11.800  11.701   5.147 -0.3023  0.2037 -0.0793
18217W        W34111   7.929  14.012   1.719  0.0820  0.3611 -0.1716
18218W        W34112   8.373  14.059  12.416  0.0051 -0.0726 -0.2813
18219W        W34113  12.988  14.338   5.280 -0.2517  0.2950  0.0418
18220W        W34114  14.278   8.342  13.346  0.1431  0.2927 -0.0630
18221W        W34115  16.459  16.721   1.109 -0.1774 -0.1014 -0.0535
18222W        W34116  16.918  14.456  14.137 -0.1125  0.1083  0.0509
18223W        W34117  15.527   2.418   4.544  0.0443  0.0225 -0.4510
18224W        W34118  18.128   7.328  14.670  0.2013  0.2380 -0.1013
18225W        W34119   8.951  18.353  12.670  0.1582  0.1487 -0.0091
18226W        W34120  11.470  13.381   3.766 -0.1146  0.1495 -0.2371
18227W        W34121   7.111   1.808   3.926  0.2274 -0.2826 -0.2008
18228W        W34122  14.526   4.519  14.157 -0.2618  0.1517  0.0953
18229W        W34123  10.104  16.147   4.743 -0.0569  0.4477  0.1998
18230W        W34124  12.702  11.478  13.524 -0.1779 -0.2146  0.2872
18231W        W34125   3.763   5.048   5.647 -0.0827 -0.3019  0.1173
18232W        W34126   6.604  17.177  10.143  0.0849 -0.0168  0.0244
18233W        W34127  14.931  16.704   4.304  0.1668  0.0732  0.2063
18234W        W34128  14.853  12.009   2.611 -0.0371 -0.0595  0.1784
18235W        W34129  16.949  13.429   2.206 -0.0903 -0.0223  0.2161
18236W        W34130   0.737  17.503  14.048 -0.0025  0.1417  0.2497
18237W        W34131   6.838  15.389   0.099 -0.0860  0.1524 -0.0584
18238W        W34132  10.508   7.670  12.340  0.0142 -0.0248 -0.1097
18239W        W34133   7.726   2.730   1.025 -0.2551  0.3633  0.0488
18240W        W34134   2.821  17.077  11.356  0.2814 -0.1681 -0.0618
18241W        W34135  15.315   0.965   0.819 -0.0627 -0.3600  0.4433
18242W        W34136  11.116  14.029   2.239  0.1257  0.0569  0.0412
18243W        W34137  10.251   2.927  15.742  0.1308 -0.0789 -0.1495
18244W        W34138  15.802  11.381  11.781  0.0568 -0.0701  0.1515
18245W        W34139  14.967   0.662  14.258  0.0580  0.0847 -0.0785
18246W        W34140   3.794  15.373  11.363  0.0986 -0.2953 -0.0594
18247W        W34141  17.572  15.647  11.927  0.0788 -0.2845 -0.1569
18248W        W34142   5.541  18.244   2.184 -0.1662 -0.3653 -0.1017
18249W        W34143  15.577  10.264   2.659 -0.4024  0.1784 -0.1659
18250W        W34144   6.963   4.486   4.081 -0.2672  0.0375 -0.2440
18251W        W34145   3.902   3.520   5.645  0.3705  0.0655 -0.1296
18252W        W34146   6.884   5.712  15.714 -0.0298  0.0603 -0.1024
18253W        W34147   9.589   3.449  16.110  0.1349  0.0319  0.1101
18254W        W34148  13.386  10.168  15.488 -0.1248 -0.0091  0.2328
18255W        W34149  18.222  11.310  12.269 -0.1924  0.1666  0.0026
18256W        W34150   2.926  16.734  14.409  0.1258 -0.0261  0.2434
18257W        W34151  15.551   6.124   3.078 -0.1638 -0.2270 -0.1557
18258W        W34152   0.260   7.256  14.784 -0.1431  0.2409 -0.0407
18259W        W34153  15.845  10.190   4.212  0.2847 -0.0158  0.1581
18260W        W34154   1.726   5.392   3.710 -0.3365 -0.1615  0.0093
18261W        W34155   5.951   8.029  15.354  0.1913 -0.1863 -0.0126
18262W        W34156  16.505  18.324  13.734 -0.1347  0.1270 -0.2509
18263W        W34157   6.221   1.416   5.976 -0.0489  0.2908 -0.0048
18264W        W34158   8.208  11.481  14.009  0.0327  0.0002  0.1934
18265W        W34159  12.260  16.420   2.936  0.1712 -0.0605 -0.2150
18266W        W34160   5.905   5.653   0.537 -0.1525 -0.1662 -0.2129
18267W        W34161   5.022  12.330  14.151  0.2024 -0.0808  0.0768
18268W        W34162   5.066  16.442   1.775  0.1254  0.2971  0.0299
18269W        W34163  16.822   4.182  16.052 -0.1579  0.3376 -0.2134
18270W        W34164  16.609  17.087   4.015  0.1865 -0.4251  0.0896
18271W        W34165   7.012   1.230   5.037 -0.2757  0.0077  0.0909
18272W        W34166  10.674   9.104   2.772 -0.3806 -0.0598 -0.2733
18273W        W34167  12.982  13.855  12.454  0.1162 -0.3011  0.2322
18274W        W34168   9.370  15.980  12.668  0.1203 -0.0529  0.0856
18275W        W34169   8.132   8.723  14.669 -0.0581 -0.0359  0.0672
18276W        W34170   3.882  18.240   0.898  0.2106 -0.1888 -0.0330
18277W        W34171   9.219  17.924   4.329 -0.0583  0.0131  0.2113
18278W        W34172   7.233  13.586   5.561  0.0395  0.1162  0.1446
18279W        W34173   4.115   6.932   3.475  0.0245 -0.0951 -0.1742
18280W        W34174  14.143   8.705  15.624  0.2757  0.0433 -0.0531
18281W        W34175  10.434  13.446   5.251  0.0422  0.2587  0.0640
18282W        W34176   9.001   1.372  11.117  0.0016  0.0044 -0.0070
18283W        W34177   1.102   9.498   3.523 -0.1953 -0.2062  0.3855
18284W        W34178  11.638  13.359   2.530 -0.2248  0.4331 -0.0901
18285W        W34179   9.859   9.726  14.201  0.0494  0.1284 -0.2291
18286W        W34180   9.300   6.435   2.028 -0.0573 -0.0250  0.0135
18287W        W34181  14.682  13.826  14.747 -0.0871  0.1967  0.1987
18288W        W34182  14.397   4.040  11.177 -0.2666  0.1150  0.0891
18289W        W34183   3.044   6.614   4.488 -0.1600 -0.1952 -0.1347
18290W        W34184  14.211   4.299  13.841 -0.0451  0.1217 -0.2324
18291W        W34185   8.007  17.565   1.244  0.0727 -0.2501 -0.2534
18292W        W34186   0.036  14.021  12.617  0.0152  0.1532 -0.2644
18293W        W34187   8.818   2.069   4.451 -0.0266  0.0486  0.0386
18294W        W34188  16.825   7.082   4.822 -0.2846 -0.1430 -0.1616
18295W        W34189  14.182   7.229   0.067  0.3612 -0.0730 -0.2291
18296W        W34190  15.320  17.091   3.468  0.0676  0.0388  0.0665
18297W        W34191   7.362   7.942  14.241  0.0074  0.3721 -0.2245
18298W        W34192  14.812   0.387   3.386 -0.2199 -0.0135 -0.3097
18299W        W34193  17.790  12.026  16.046  0.0755 -0.0821 -0.0625
18300W        W34194   4.520  15.062   4.779  0.1817  0.0938 -0.0403
18301W        W34195   3.634   6.891   5.627 -0.0346  0.0576 -0.1456
18302W        W34196  11.019  17.389  10.821 -0.1540  0.2376  0.1723
18303W        W34197  15.251  11.619  14.261 -0.0065  0.3425  0.3606
18304W        W34198  15.072   4.335  14.168  0.0129 -0.2473  0.0883
18305W        W34199  11.288   0.894  12.537  0.1670  0.2831  0.1389
18306W        W34200   6.380   8.306   1.212  0.1142 -0.2025  0.1246
18307W        W34201  14.624  14.497   0.341  0.2787  0.5124 -0.2337
18308W        W34202  11.108  14.307  10.613  0.3395 -0.1190  0.1959
18309W        W34203   6.548  10.230   4.177 -0.0880  0.5575 -0.1349
18310W        W34204   8.601   1.581   0.292  0.3394 -0.0267  0.0161
18311W        W34205   2.198  16.610  13.882  0.1751 -0.3241  0.0298
18312W        W34206   5.033   0.140   0.210  0.2061  0.0270 -0.0427
18313W        W34207  14.997   1.996   5.204 -0.2816 -0.0200  0.3018
18314W        W34208   4.323  13.072   2.426 -0.0446 -0.1463  0.3821
18315W        W34209   0.559   5.053  11.917  0.0806 -0.1464 -0.2933
18316W        W34210  17.614  17.560  12.677  0.3191  0.2684 -0.1599
18317W        W34211   8.591  17.921  11.526  0.1435  0.1999 -0.1334
18318W        W34212   7.331   1.683   1.021 -0.2119 -0.0366 -0.0310
18319W        W34213   7.560   6.475  14.252 -0.0528 -0.0457  0.0943
18320W        W34214   0.776   4.771   1.289  0.0609 -0.2714  0.0040
18321W        W34215   4.738  11.660   5.148 -0.0299  0.1949 -0.0180
18322W        W34216  14.263   2.132  13.204  0.0438  0.1095 -0.1963
18323W        W34217  15.856   0.101   3.032  0.1938  0.2337  0.0323
18324W        W34218   1.133  15.907  15.104  0.0193  0.0242 -0.2802
18325W        W34219   4.949   8.768  11.773  0.2510  0.1063  0.1620
18326W        W34220  13.016   1.880  15.809  0.0588 -0.0008 -0.2341
18327W        W34221   1.426  14.179  12.160 -0.0859  0.1132 -0.0538
18328W        W34222   9.557  12.513   3.691  0.1441  0.2754  0.0063
18329W        W34223   8.345  17.663   2.622 -0.2453  0.3916 -0.0291
18330W        W34224  17.278  12.915   4.109  0.1278  0.1238  0.0749
18331W        W34225   7.492  13.929   4.150  0.2028  0.3370  0.0739
18332W        W34226   1.186   8.734  12.633 -0.1059  0.3263  0.0930
18333W        W34227   6.068   1.645  15.418 -0.0972  0.1483  0.0685
18334W        W34228  14.638   5.905  12.777  0.0223  0.0869  0.0072
18335W        W34229   8.719  16.396   4.185  0.3196 -0.2173  0.0178
18336W        W34230   5.037   2.288   4.014 -0.0505 -0.0764  0.1673
18337W        W34231  14.829   1.451   3.815  0.0685 -0.3653  0.1582
18338W        W34232  12.737   6.881   0.108 -0.0166  0.2409  0.3580
18339W        W34233  10.300   2.579  15.093  0.0334  0.3236  0.0030
18340W        W34234   6.240  10.905  13.353  0.0563  0.1575 -0.2265
18341W        W34235  16.066  14.165  12.549 -0.0473 -0.0271 -0.0121
18342W        W34236   3.846   5.852   0.479  0.2127 -0.4047 -0.2653
18343W        W34237  13.394   7.935   5.005  0.0470  0.0899 -0.1057
18344W        W34238  14.171  12.007  14.290 -0.3277  0.0680  0.2701
18345W        W34239  16.242  12.088  11.429  0.0231  0.1324 -0.0982
18346W        W34240   8.358   9.995   3.594 -0.2489 -0.0083  0.1790
18347W        W34241  17.101  14.646  12.928  0.2678 -0.2494  0.1271
18348W        W34242   2.106   2.991  12.948  0.1604 -0.1344 -0.1907
18349W        W34243   3.315   2.475  14.820 -0.0264  0.0387 -0.1867
18350W        W34244   5.377   2.912   6.328 -0.0233 -0.1895 -0.2238
18351W        W34245   6.797   0.567   5.658 -0.0508  0.2678  0.3445
18352W        W34246  14.427  11.358  12.479 -0.1751  0.0561  0.0373
18353W        W34247   1.360  13.125   3.658 -0.0900  0.2436  0.0201
18354W        W34248  10.170   3.782  13.377  0.4289 -0.0375 -0.0824
18355W        W34249  12.703   7.414  15.392 -0.2945  0.2265  0.1852
18356W        W34250   9.558  18.116   0.483  0.1066  0.0666  0.0678
18357W        W34251  10.055   1.264   1.271 -0.2438  0.1544 -0.1943
18358W        W34252   2.728  14.566   0.570 -0.0390 -0.3454 -0.0350
18359W        W34253   6.819  18.459  12.583 -0.2071 -0.2374 -0.0257
18360W        W34254  11.456   3.328  11.806  0.3099 -0.0572 -0.2627
18361W        W34255   3.929  14.785  13.951  0.3037 -0.0977 -0.1282
18362W        W34256   6.752   8.757  13.389  0.1831 -0.0257 -0.2657
18363W        W34257   8.849   1.528  14.886 -0.0841  0.0826  0.1319
18364W        W34258  15.345   3.825  12.398  0.1413 -0.1798 -0.2244
18365W        W34259  17.201   4.418  14.414  0.1938  0.1622  0.2671
18366W        W34260   0.154   4.986   4.189  0.0617  0.2296 -0.3466
18367W        W34261   4.927  17.652   4.009  0.1353  0.3937  0.0234
18368W        W34262  17.417   1.060  13.783  0.3030  0.1602  0.0993
18369W        W34263  15.228  15.877   1.350 -0.2344 -0.3178 -0.1032
18370W        W34264  15.813   7.474   2.659  0.3111  0.1179 -0.0366
18371W        W34265  10.943   6.641  12.951 -0.0776 -0.0864  0.0869
18372W        W34266  14.818   2.903   0.259  0.5071 -0.3053 -0.2245
18373W        W34267   2.715  13.377   1.328  0.0147 -0.2328  0.1231
18374W        W34268  10.320   2.882  11.847  0.0925 -0.1857  0.3380
18375W        W34269   8.674   5.547   5.373  0.0704  0.0216  0.1182
18376W        W34270   7.345   9.613   0.742  0.5415 -0.2941  0.1577
18377W        W34271   4.275  15.948   0.750  0.0547 -0.2855 -0.1474
18378W        W34272   0.237  18.029   1.845  0.3067  0.0533 -0.0457
18379W        W34273   3.578   8.800  11.634  0.1450  0.0085 -0.1348
18380W        W34274   7.867  10.607   1.912 -0.2465  0.0856  0.2449
18381W        W34275   2.168   8.581  14.640  0.1978  0.2199  0.1121
18382W        W34276   4.313  12.034  15.991 -0.0761 -0.0552 -0.1518
18383W        W34277  16.420   9.635  14.026  0.2397  0.1333 -0.0031
18384W        W34278   6.852   3.586   2.668  0.1363  0.0611 -0.0040
18385W        W34279  18.375   4.138   5.188 -0.1555 -0.2485  0.3072
18386W        W34280   6.456  17.864   5.927 -0.2352  0.3279 -0.2776
18387W        W34281   0.965   8.614   1.766 -0.1342 -0.2234 -0.0263
18388W        W34282   2.778   8.582  12.592 -0.0146  0.0300  0.1679
18389W        W34283  12.152   7.277   5.306  0.1553 -0.4744 -0.1142
18390W        W34284   4.954   1.806   5.022  0.0239  0.4115 -0.1985
18391W        W34285  12.295   3.732   4.411  0.0322 -0.1605 -0.3468
18392W        W34286   9.512  13.969  11.528 -0.1497 -0.1638  0.3815
18393W        W34287   7.020  16.715   4.460  0.2567  0.0881 -0.0908
18394W        W34288   8.557  12.890  13.263  0.1767 -0.2881  0.4195
18395W        W34289  12.002  16.578   4.642  0.2914  0.1041 -0.0448
18396W        W34290  10.003  12.887   3.715  0.2961  0.2390  0.0776
18397W        W34291  17.100   0.992   5.415  0.2429 -0.1551 -0.0256
18398W        W34292  12.975  16.186   4.820 -0.2230 -0.2394 -0.0012
18399W        W34293   6.889   5.449   0.004 -0.0173  0.0102 -0.1002
18400W        W34294  17.474   1.295   3.037  0.0779  0.1054 -0.0666
18401W        W34295  15.372  12.531  14.031 -0.1174  0.0776 -0.0707
18402W        W34296   5.435   2.268  14.235  0.0126  0.0735  0.1156
18403W        W34297   0.913   4.029   2.168 -0.1551  0.0367 -0.0675
18404W        W34298  18.367  13.718  11.195  0.0645  0.1131  0.0573
18405W        W34299   6.810  15.196   1.142  0.1172 -0.0027 -0.1449
18406W        W34300  11.801   1.072  16.121  0.2482 -0.0874 -0.1591
18407W        W34301   4.983   6.720   5.439 -0.3221 -0.0123  0.2942
18408W        W34302  12.610   9.357   3.950 -0.0575 -0.0850 -0.1634
18409W        W34303   7.074   6.086   9.989 -0.0001 -0.0466 -0.1890
18410W        W34304  11.643  17.157   1.707 -0.1424  0.1996  0.3745
18411W        W34305   9.088   0.245   4.147  0.2576 -0.0151  0.0634
18412W        W34306   6.304   6.238   1.793 -0.0824 -0.0384  0.1859
18413W        W34307  14.860   0.865   5.481 -0.0049 -0.0745  0.0023
18414W        W34308  12.149   7.195  13.705  0.3837 -0.0339  0.0049
18415W        W34309  12.550   7.936   0.262 -0.0331  0.2761  0.1001
18416W        W34310  11.284  11.197   3.064  0.1287 -0.1786  0.0791
18417W        W34311   3.042   4.784   0.069 -0.1042  0.0021  0.3496
18418W        W34312  15.821  15.128   2.240  0.0200 -0.0242  0.0793
18419W        W34313   1.158   5.315  13.885 -0.0419 -0.2552 -0.0595
18420W        W34314  12.610  10.249  11.550 -0.1016 -0.3265  0.2296
18421W        W34315  14.892  13.584  16.053 -0.1655 -0.1307  0.2630
18422W        W34316  15.531  17.562   3.584 -0.1354  0.2207  0.0622
18423W        W34317  16.278  16.950   3.674 -0.0310 -0.0872  0.0642
18424W        W34318   9.711   8.978  13.029  0.2830 -0.0376 -0.0070
18425W        W34319  10.354   3.562   1.530  0.2162 -0.1054 -0.2222
18426W        W34320   0.790   9.610   4.442  0.3076 -0.3369 -0.3092
18427W        W34321  13.495   7.866   3.669 -0.1494 -0.1906  0.3497
18428W        W34322   1.124  11.192   3.619  0.4034  0.0848 -0.1212
18429W        W34323  16.904  13.336  13.525 -0.0720  0.0251  0.3793
18430W        W34324   1.409   9.103   4.296  0.0855  0.1060 -0.1280
18431W        W34325   0.487  10.195  11.332 -0.4242  0.2774 -0.1953
18432W        W34326   5.598   6.962   0.288 -0.0739  0.0202  0.0525
18433W        W34327  14.335   2.853   2.855 -0.0091  0.0962  0.2150
18434W        W34328  13.678   7.245   4.451  0.0401 -0.1889 -0.2387
18435W        W34329   0.297   3.315   4.923 -0.3584 -0.3434 -0.0269
18436W        W34330  14.039   6.054   2.634 -0.2120 -0.0368  0.0947
18437W        W34331  17.096   3.174  14.621 -0.0201 -0.2451 -0.4513
18438W        W34332  10.954   6.163   2.795 -0.0326  0.0707  0.2988
18439W        W34333   5.643   9.803  12.709 -0.0815  0.1571  0.2061
18440W        W34334  14.816  16.522   1.855 -0.1902  0.1523  0.1840
18441W        W34335  10.910   3.968   2.947 -0.0596 -0.0993 -0.0002
18442W        W34336   5.592  12.431  11.338 -0.1355  0.0744  0.1078
18443W        W34337  12.631   0.953   0.583 -0.1978 -0.2680 -0.2056
18444W        W34338   8.563   4.751  14.438  0.0022  0.0529  0.0482
18445W        W34339   6.868   4.534   3.568  0.0151 -0.0008  0.1000
18446W        W34340   6.770   2.425  11.056 -0.1520 -0.3354  0.0442
18447W        W34341   6.741   6.415  16.087  0.1346 -0.0604  0.0916
18448W        W34342  13.795  15.035  15.733  0.2399 -0.1263 -0.1363
18449W        W34343  16.834   9.736   0.704  0.1240  0.1883  0.1501
18450W        W34344   0.000   9.159   1.225 -0.3143  0.4036  0.1369
18451W        W34345  17.251   4.790   5.049 -0.0663  0.0851  0.2755
18452W        W34346  12.213   8.816   1.943 -0.0063 -0.3936  0.1336
18453W        W34347   9.561  17.306  12.360  0.1132  0.0181  0.1248
18454W        W34348   3.895  16.792   0.393 -0.0232 -0.0736 -0.2773
18455W        W34349  10.144  11.239  16.014  0.1598 -0.1424 -0.1269
18456W        W34350   6.867   6.403  14.440  0.4383 -0.3300  0.3131
18457W        W34351   8.784   2.809   1.443 -0.0727  0.1049  0.0377
18458W        W34352   9.500  11.756  16.097 -0.2548 -0.3461 -0.0267
18459W        W34353   7.084   8.912   1.165  0.0971 -0.2396 -0.1339
18460W        W34354  11.786  13.764  14.756  0.0333  0.1547  0.1549
18461W        W34355   5.618   9.113   0.856  0.0259 -0.2866  0.0342
18462W        W34356  16.246  14.641  14.474  0.0999 -0.0311 -0.0049
18463W        W34357   5.898   5.737  12.961  0.1182  0.1051 -0.0652
18464W        W34358  11.935   8.070  14.127  0.0423 -0.2309  0.0390
18465W        W34359   3.129  16.762  15.858 -0.0503 -0.2841 -0.0072
18466W        W34360   0.512   0.085  12.630  0.0323  0.0100 -0.1811
18467W        W34361  12.628  16.776   1.894 -0.1371  0.0554 -0.1961
18468W        W34362   5.489   6.868  15.974 -0.0950  0.1261  0.0238
18469W        W34363  14.502  10.357  11.426  0.4557 -0.0904 -0.1648
18470W        W34364  16.411   7.814  15.714 -0.3099  0.2638  0.0929
18471W        W34365   3.633   3.979   4.931  0.3829 -0.0954  0.0670
18472W        W34366   0.372  10.416  15.976  0.1802  0.0424 -0.2690
18473W        W34367   2.749   4.934   5.515 -0.0981  0.2025  0.0259
18474W        W34368  14.169  13.179  14.015  0.1509  0.0971 -0.0062
18475W        W34369  11.749   1.064   3.781 -0.0182 -0.1344  0.0179
18476W        W34370   6.070  14.856   0.195 -0.0633 -0.0385  0.3246
18477W        W34371  10.133   2.890   3.204 -0.1521  0.0999  0.1187
18478W        W34372   1.024   3.161  11.035 -0.2615  0.1496  0.2029
18479W        W34373  16.166  15.605   3.704  0.0388 -0.2074 -0.0309
18480W        W34374  12.507   1.661  12.949  0.1156 -0.2942 -0.2251
18481W        W34375  12.287  12.413   0.224 -0.0173  0.1280 -0.1365
18482W        W34376   3.432   2.113  15.870  0.0640  0.1909 -0.0691
18483W        W34377   9.851  14.310   3.241 -0.0233 -0.1984  0.0688
18484W        W34378  16.002  15.920  12.909  0.1648 -0.2963  0.1661
18485W        W34379  16.820   8.862   0.122  0.0904 -0.1237  0.0373
18486W        W34380   0.209  12.351  11.775 -0.0928  0.1237 -0.0361
18487W        W34381  17.928  12.015   1.289  0.3662 -0.0500  0.0130
18488W        W34382   1.307   4.925  15.589 -0.4139  0.2054 -0.1718
18489W        W34383   6.131   0.388  13.635  0.3793 -0.1421 -0.1808
18490W        W34384  15.868   5.205  15.475 -0.0612  0.0084  0.1605
18491W        W34385  17.800   0.272   2.875 -0.1232  0.0058 -0.1330
18492W        W34386  17.809   7.929   5.069  0.1342  0.0870  0.0194
18493W        W34387  10.397   7.415  11.291 -0.3167 -0.0173 -0.1559
18494W        W34388  16.754   2.525   2.030 -0.0805  0.0702 -0.1885
18495W        W34389  16.858  17.540  12.747 -0.3736  0.0796  0.1723
18496W        W34390   8.874   0.281  13.090 -0.1372  0.0759 -0.2090
18497W        W34391   6.450  16.059   0.507  0.2937 -0.1976  0.1014
18498W        W34392   3.881  13.720   1.862 -0.1806 -0.1000  0.0280
18499W        W34393   8.310   1.950   3.447 -0.0422 -0.1047 -0.1775
18500W        W34394  12.838   6.749   2.695  0.0037 -0.1222 -0.0637
18501W        W34395  14.203   6.409  15.195  0.0386  0.1094  0.3185
18502W        W34396  16.987  10.267   0.542 -0.1972  0.1435  0.3681
18503W        W34397  17.096  12.858  15.967  0.1331  0.2425  0.2437
18504W        W34398  14.388   4.915  11.928 -0.0752  0.0683  0.0373
18505W        W34399   5.576   9.982   5.212  0.0965 -0.3446  0.1999
18506W        W34400  15.113   9.816  13.141 -0.1143 -0.3370  0.2708
18507W        W34401   7.292  15.971  11.734 -0.0874  0.2336  0.1287
18508W        W34402  13.002  11.781   3.166  0.0705  0.1866  0.0459
18509W        W34403   8.545   4.606  16.072 -0.0515 -0.0855  0.2454
18510W        W34404   2.446  16.409   4.378  0.1108  0.0016  0.4339
18511W        W34405   8.791  12.158   1.951  0.0428 -0.0644  0.0119
18512W        W34406   1.848   6.716  14.720 -0.0204 -0.0427  0.1728
18513W        W34407  11.693   3.405   3.187  0.0472  0.1313 -0.1396
18514W        W34408  11.917  10.957  11.583 -0.0723  0.0948 -0.1478
18515W        W34409  13.644   6.198   0.034 -0.2258  0.0246  0.0808
18516W        W34410   0.478   9.195  14.643  0.5085  0.0630  0.0954
18517W        W34411   4.521   2.756  13.900  0.1145  0.1990  0.0809
18518W        W34412  15.526  10.395  11.944 -0.0443 -0.3114 -0.0953
18519W        W34413   3.789   3.764   3.117  0.1170  0.0895 -0.1400
18520W        W34414   8.637   3.703   2.104 -0.0853  0.2721 -0.2272
18521W        W34415  18.066  15.587   0.038  0.3274 -0.3275  0.2780
18522W        W34416   3.960   9.334  15.445 -0.2319  0.1141 -0.0301
18523W        W34417   6.666   6.500  11.284  0.1263 -0.0968 -0.0283
18524W        W34418  18.033   8.421   5.397 -0.0146  0.0020 -0.1905
18525W        W34419  12.048  17.004  14.614  0.0477  0.0656  0.2788
18526W        W34420  11.785  14.925   4.552  0.0622  0.2518  0.0791
18527W        W34421   6.493  15.911   2.970 -0.3157  0.0029  0.0076
18528W        W34422  17.560  11.378  13.083  0.0610  0.1752  0.4521
18529W        W34423   1.113  15.693   4.409 -0.1864 -0.1304  0.1069
18530W        W34424  13.103  13.001   5.318  0.1280  0.1079  0.0955
18531W        W34425  13.293   7.054  10.751  0.1937 -0.0827  0.2012
18532W        W34426   3.920  17.734   3.150 -0.1283  0.0094 -0.0290
18533W        W34427  16.371  12.791   5.518  0.3080  0.0192  0.1796
18534W        W34428   5.357   7.365   0.272  0.2915  0.0880  0.1288
18535W        W34429  18.312   1.959   3.801 -0.2094 -0.0332  0.0798
18536W        W34430  16.615   9.101  12.517 -0.1157 -0.2007 -0.0980
18537W        W34431   7.227   1.293  15.496  0.0764  0.1111  0.2591
18538W        W34432   4.775   5.398   1.128  0.1410  0.3028  0.2391
18539W        W34433  15.528  18.365  13.612  0.0419 -0.1914 -0.1620
18540W        W34434  16.507   9.687  16.130 -0.0360  0.2585 -0.1796
18541W        W34435   0.517   2.143  11.808 -0.0085 -0.0807  0.1296
18542W        W34436   0.357  11.754   3.273  0.1652 -0.0696 -0.2972
18543W        W34437  11.130  17.303  11.330  0.3542 -0.2658 -0.3281
18544W        W34438  12.382  10.742  12.186 -0.0301  0.1591  0.0269
18545W        W34439   5.031   5.296   4.989  0.0112 -0.3601  0.1298
18546W        W34440   1.680  15.738   1.606  0.1452 -0.4099 -0.0665
18547W        W34441   6.493   8.298   0.241  0.1972 -0.1450  0.0358
18548W        W34442  14.738  15.311  13.529 -0.1117 -0.0169  0.1492
18549W        W34443   8.756  11.373  14.212  0.0371  0.1429 -0.1481
18550W        W34444   3.158   9.335  12.620  0.0021  0.0391 -0.2167
18551W        W34445   6.504   9.093   3.082  0.1009  0.1530 -0.1048
18552W        W34446  12.406   3.076   2.094 -0.0410  0.0439 -0.0558
18553W        W34447  15.547  14.019  13.472  0.2246  0.0141 -0.0580
18554W        W34448  17.838   0.110  10.995  0.0233  0.3949  0.1025
18555W        W34449   6.452   2.071   2.818 -0.1594  0.0000 -0.0257
18556W        W34450  13.569   1.321  15.378  0.2012 -0.0046  0.1686
18557W        W34451   0.574  12.413   5.318  0.1537  0.3885  0.2156
18558W        W34452   9.419  18.441  11.225  0.4753  0.0573  0.2793
18559W        W34453  12.603  14.543  14.883 -0.0448  0.1770 -0.2622
18560W        W34454   7.295  15.230   0.274 -0.0405 -0.0149 -0.1644
18561W        W34455   1.059  17.311  13.208 -0.2559  0.2820  0.0838
18562W        W34456   6.976   6.584  15.589  0.1505 -0.1599  0.3204
18563W        W34457   6.854  11.525   3.560  0.0452 -0.0623 -0.0159
18564W        W34458   9.135   4.987   4.537  0.1480 -0.0374  0.2174
18565W        W34459  10.541  11.047  14.994  0.1224  0.2324  0.0377
18566W        W34460   1.747  11.821   5.098 -0.1217 -0.0856 -0.0334
18567W        W34461  13.256  13.702  12.823  0.1235  0.3796 -0.4603
18568W        W34462  15.391   8.678   4.582  0.0356 -0.1759 -0.1112
18569W        W34463   2.715   2.740   4.270 -0.1334 -0.0309  0.1721
18570W        W34464   2.834  17.721   4.497  0.4447  0.0191 -0.2046
18571W        W34465  14.439   0.598  13.031  0.0852 -0.0593  0.1807
18572W        W34466   4.544  15.979  12.927 -0.1515 -0.1082  0.0498
18573W        W34467  11.504   7.013  12.194  0.0276  0.0567 -0.1042
18574W        W34468   7.395   0.323  11.162 -0.1662 -0.0859  0.0127
18575W        W34469  10.048   7.734  12.678 -0.2321 -0.1588  0.2898
18576W        W34470  17.926   2.633   0.165 -0.1725 -0.0273 -0.1398
18577W        W34471  14.038   1.786   1.663  0.0597  0.0464 -0.3236
18578W        W34472  17.943  11.124  14.047  0.3715 -0.3682  0.3644
18579W        W34473   2.730  16.009   1.870  0.2623 -0.2714 -0.2653
18580W        W34474   5.635  11.083   9.850 -0.0369  0.0762 -0.1986
18581W        W34475   4.346   9.656   3.582 -0.1033  0.2022  0.0456
18582W        W34476   7.893   4.920  15.556 -0.2446  0.0342  0.1845
18583W        W34477   3.620   9.044   1.457  0.0086  0.0674 -0.1873
18584W        W34478   8.734   4.161   4.848  0.1401 -0.1355  0.3058
18585W        W34479   2.590   0.984   0.711  0.3048 -0.2221  0.2045
18586W        W34480   4.760  17.700  15.179 -0.0744  0.1713  0.1654
18587W        W34481  12.911  16.078  15.281 -0.0306  0.0027  0.0676
18588W        W34482  11.586  16.166  10.904  0.0911  0.0363  0.0307
18589W        W34483   4.612   2.759   2.597  0.1776 -0.1182 -0.0476
18590W        W34484   1.482   0.495   1.269  0.1085 -0.0448 -0.1591
18591W        W34485   9.050   4.586   1.998  0.0112  0.0446 -0.0965
18592W        W34486   3.285   9.881  16.026  0.3900  0.0256 -0.1220
18593W        W34487  13.504  13.523   0.622 -0.1269 -0.1668  0.1659
18594W        W34488  15.522  11.675   0.047 -0.1837  0.0070  0.1681
18595W        W34489   3.264   0.778  16.032 -0.0468  0.1521 -0.1042
18596W        W34490   5.584   5.212  13.214  0.4721 -0.0446  0.0488
18597W        W34491  11.324  10.524  11.519 -0.0208 -0.2347 -0.0412
18598W        W34492  11.533   4.593   2.484  0.1057  0.0630  0.0159
18599W        W34493  10.951   9.220   4.137  0.1679  0.4374  0.0201
18600W        W34494   1.550  17.800  12.420  0.0179 -0.1722  0.2381
18601W        W34495  17.869  13.900  15.856 -0.3003 -0.0856 -0.1880
18602W        W34496   3.836   7.186  12.828 -0.3827 -0.2878  0.1437
18603W        W34497  10.143  16.402  14.758  0.1528  0.0319 -0.3011
18604W        W34498  10.739   7.598  15.714  0.1816  0.2381  0.0882
18605W        W34499   2.891   1.187   0.192 -0.0256  0.1430  0.2120
18606W        W34500   1.393   6.217   4.564 -0.1645  0.1366 -0.1994
18607W        W34501  14.446   1.133   1.924  0.0852  0.2075 -0.0639
18608W        W34502   8.512  14.048  14.969  0.0648  0.2874  0.0842
18609W        W34503  16.884   4.305  12.777 -0.1024  0.2690 -0.1592
18610W        W34504  10.692  11.910  12.566  0.4052  0.2707 -0.3079
18611W        W34505   8.861   6.532   3.654  0.1340 -0.0689  0.1403
18612W        W34506  10.507   3.242  16.122  0.2920 -0.1648 -0.2646
18613W        W34507   3.827  14.703  13.267  0.0985  0.1044 -0.2405
18614W        W34508   2.016  14.169   2.248  0.2947 -0.1713 -0.0991
18615W        W34509  10.010   4.233   6.152 -0.2974 -0.1729  0.0412
18616W        W34510  10.377   7.556  15.392 -0.2564  0.1500  0.1786
18617W        W34511   9.481  15.876  11.507  0.3103  0.5048  0.2630
18618W        W34512  14.752   0.765   1.681  0.1639  0.1268  0.2163
18619W        W34513   5.988   5.781   0.045  0.0822 -0.2514 -0.0838
18620W        W34514  18.328  17.143  14.650  0.1335  0.0780 -0.1837
18621W        W34515  17.616   8.673  11.277 -0.0875 -0.3027  0.1974
18622W        W34516  12.640  12.669  15.937 -0.0369 -0.0707 -0.2699
18623W        W34517   1.707   8.990   0.129  0.3120  0.0624  0.0278
18624W        W34518   9.838  10.961  15.585  0.1906 -0.0356  0.1003
18625W        W34519  11.780  13.762   0.696 -0.0748 -0.3228 -0.0764
18626W        W34520   8.149   3.364  13.229  0.0730  0.1640  0.0051
18627W        W34521   0.615  16.483  15.411 -0.1863 -0.0413  0.2570
18628W        W34522   9.798   5.594   2.750 -0.2434 -0.1365  0.0087
18629W        W34523  10.681   1.408   2.559  0.1747 -0.0685 -0.1070
18630W        W34524   2.258   6.495  15.069  0.3491  0.1343  0.0563
18631W        W34525  11.567  16.699   3.987  0.0958 -0.0079  0.0679
18632W        W34526   7.505   9.045  15.036 -0.1809  0.1780 -0.1846
18633W        W34527   0.758  13.441  12.032 -0.0577  0.1873 -0.0092
18634W        W34528   3.419  11.947   0.403 -0.3614  0.1620  0.0753
18635W        W34529   6.415   0.669   3.978 -0.0677  0.2702  0.0805
18636W        W34530  17.530   1.188   4.247 -0.1412 -0.6157  0.2108
18637W        W34531  15.214   8.239   0.418  0.0832 -0.1274 -0.2797
18638W        W34532  14.048   0.981  11.427  0.0997 -0.4992 -0.0481
18639W        W34533  18.385   8.430  12.872 -0.1632 -0.2109 -0.2028
18640W        W34534  15.730  14.996  13.236  0.3790 -0.3499 -0.0889
18641W        W34535   2.038   3.093  14.421 -0.3236  0.1004 -0.1032
18642W        W34536   2.944   8.310   1.678  0.3920 -0.1283  0.1571
18643W        W34537   2.209  10.960   5.502  0.3966 -0.1800 -0.2989
18644W        W34538   8.912   6.392  14.568 -0.2530 -0.0823  0.3559
18645W        W34539  17.392  14.832  11.959  0.0821  0.1846  0.2654
18646W        W34540   3.336  18.016  15.465 -0.1151 -0.0121  0.2936
18647W        W34541   1.768  13.767  14.372  0.0515 -0.1505 -0.1229
18648W        W34542   1.195  16.334  11.440 -0.0547 -0.2290  0.1498
18649W        W34543  10.398  13.571  13.587  0.2400  0.1324 -0.0654
18650W        W34544  16.175  15.392  11.675  0.1381  0.0328 -0.0427
18651W        W34545   5.385   5.849  15.372  0.1020 -0.0215 -0.0875
18652W        W34546  12.129   3.237   1.784 -0.0130  0.1490  0.1450
18653W        W34547  15.907  16.066   5.372  0.1207  0.4475  0.3840
18654W        W34548   9.287   0.576   0.306 -0.1986 -0.1817 -0.0276
18655W        W34549   7.853  13.960  15.407  0.1613 -0.4724  0.2626
18656W        W34550  14.633  12.591  13.696  0.2623  0.0533 -0.1853
18657W        W34551   7.545   4.859  10.952 -0.0211  0.4609  0.2578
18658W        W34552   5.282  15.540   2.514 -0.1027 -0.0386 -0.5026
18659W        W34553   4.636  17.724  13.117 -0.4271  0.3496  0.1957
18660W        W34554  17.188   4.693  14.011 -0.2129 -0.1998 -0.1809
18661W        W34555   9.144   9.504   3.079  0.2594 -0.2233 -0.0074
18662W        W34556   3.724  14.646   3.968 -0.1089 -0.0385 -0.1844
18663W        W34557  11.108  15.779  12.208 -0.1261 -0.0566  0.0776
18664W        W34558  12.514  11.282   2.379 -0.5948  0.1225  0.1284
18665W        W34559   5.897   5.490   1.223 -0.0537  0.2826  0.3669
18666W        W34560  12.660   3.887   2.241  0.2478 -0.3076  0.1381
18667W        W34561  16.737  13.192   0.925 -0.2565  0.1188  0.0391
18668W        W34562   4.275  10.594   0.546  0.2379 -0.0599 -0.0173
18669W        W34563  13.324  10.339   3.731 -0.0063 -0.0446 -0.1082
18670W        W34564   7.984   8.517  12.024  0.1903  0.0232  0.1086
18671W        W34565   6.563   0.781  10.931 -0.0448  0.4892 -0.0030
18672W        W34566   4.605  13.527  10.945  0.1201  0.1794  0.0046
18673W        W34567  15.306   6.773   3.586  0.2027 -0.1219 -0.1614
18674W        W34568   8.712   9.756  12.807  0.3837 -0.0740  0.3823
18675W        W34569   5.408  13.194  15.890  0.0354  0.3975  0.1256
18676W        W34570  15.596   0.358  13.874 -0.0163  0.0301  0.2321
18677W        W34571   8.328  14.796  14.381 -0.1776 -0.3677 -0.0809
18678W        W34572   0.103  14.852  14.717 -0.0533 -0.1575 -0.0496
18679W        W34573  13.708   8.319   0.868  0.0580  0.1414 -0.0893
18680W        W34574   5.230   7.921   1.589  0.0063  0.0173 -0.0150
18681W        W34575  11.612   3.114   1.942  0.0006  0.4020  0.2229
18682W        W34576  14.289  12.500   4.863  0.1233 -0.2750  0.1261
18683W        W34577   1.321  16.544   5.114  0.0068 -0.1301 -0.0543
18684W        W34578   6.293  18.268  13.773  0.0592  0.0990  0.1283
18685W        W34579  15.519  14.746   4.651  0.0866  0.1738 -0.0443
18686W        W34580  15.656   0.956  11.493 -0.1665  0.0534 -0.2783
18687W        W34581   6.541  11.735  14.130 -0.0280 -0.0603  0.2113
18688W        W34582   4.171   0.453  14.810  0.2029  0.2489  0.1213
18689W        W34583  10.158  15.012  15.483 -0.1999 -0.1369  0.0147
18690W        W34584   0.352  11.736   4.597  0.0730  0.1271 -0.0460
18691W        W34585  11.874   6.589   0.226 -0.1096 -0.1839  0.0323
18692W        W34586   0.110  14.118  11.382  0.1707  0.2389 -0.1771
18693W        W34587  13.528   3.272   2.990  0.2127 -0.1302  0.0285
18694W        W34588   9.943   8.545  13.857 -0.0016  0.1091  0.0290
18695W        W34589   7.475   1.634  12.830  0.2328  0.1274 -0.2062
18696W        W34590   0.598   8.310  14.773  0.1709  0.0622  0.0946
18697W        W34591   7.296   1.962   3.498 -0.1680 -0.0642  0.1332
18698W        W34592  12.154  12.193  11.958 -0.0923  0.2124  0.0655
18699W        W34593   5.560   1.997   4.119  0.1337 -0.0937 -0.1181
18700W        W34594   2.466  10.596   3.026 -0.2271  0.1314  0.0153
18701W        W34595  12.067   3.308  13.317  0.3487 -0.0170  0.0482
18702W        W34596   1.870  11.711  14.552 -0.1558 -0.0256 -0.0692
18703W        W34597   7.644   8.748  15.801 -0.0210 -0.2040  0.2774
18704W        W34598   2.002   5.578   1.911 -0.0834 -0.1901  0.0977
18705W        W34599  11.323  10.049   0.388  0.1173 -0.0092  0.0022
18706W        W34600   7.769   5.151   3.145  0.0140  0.1564  0.1892
18707W        W34601  12.593   1.089  14.211 -0.0940 -0.2147 -0.1139
18708W        W34602  15.460  14.799   0.313  0.1385  0.0323 -0.2130
18709W        W34603   3.473   3.965   2.248  0.0049  0.1796 -0.0025
18710W        W34604  13.432  13.739   2.135  0.0275 -0.1043 -0.0052
18711W        W34605   5.995   0.919   0.943  0.3084 -0.1386  0.0871
18712W        W34606  10.150   9.928   5.259  0.0814 -0.0575  0.0185
18713W        W34607   5.493   6.539   0.548  0.0964 -0.1870 -0.0567
18714W        W34608  12.692  13.300  13.369 -0.0562  0.2253  0.3123
18715W        W34609  15.817   1.821  11.878 -0.3735  0.2013 -0.1995
18716W        W34610  10.092  10.042  13.286 -0.3570  0.4324  0.0020
18717W        W34611  16.099  12.347   5.275 -0.3540  0.0428  0.0109
18718W        W34612  11.479  13.072   0.489 -0.0368  0.1737  0.0245
18719W        W34613   8.566  12.028  10.754  0.0961  0.0077 -0.2214
18720W        W34614   9.903   3.852  14.567 -0.2078 -0.1221  0.0799
18721W        W34615   8.131   4.543   1.115 -0.1627 -0.0383 -0.0984
18722W        W34616  12.111   9.232   4.648  0.1247  0.0200  0.1250
18723W        W34617  16.980   8.729  13.442 -0.1330 -0.2233  0.2277
18724W        W34618  15.618  12.288  12.059  0.1330 -0.2099  0.0577
18725W        W34619   8.505   3.266  11.371  0.1956 -0.1446  0.0357
18726W        W34620  16.346  13.695   0.503 -0.1226  0.0705 -0.0124
18727W        W34621  14.717   5.105   1.437  0.2031 -0.2461  0.1833
18728W        W34622   5.302  12.709  14.188 -0.0761  0.1006 -0.0203
18729W        W34623   9.709  13.473   1.179 -0.1485  0.4280 -0.2197
18730W        W34624   5.084  11.493   0.952 -0.6288 -0.0492  0.2346
18731W        W34625   2.923  13.029   3.472  0.1760  0.0176 -0.1119
18732W        W34626   0.617  12.621  11.075 -0.0338  0.0069  0.0417
18733W        W34627  17.747  12.535   2.657  0.1074  0.0416 -0.0942
18734W        W34628   4.429   3.175  12.266  0.1701 -0.1239  0.2796
18735W        W34629  15.824  10.447   0.686  0.1594 -0.0168 -0.0072
18736W        W34630   5.307   2.436  10.971 -0.1004  0.0189 -0.4220
18737W        W34631   2.854   8.919   2.125  0.0592 -0.1108  0.4323
18738W        W34632   6.144  16.385  13.475  0.1254 -0.1996  0.1266
18739W        W34633   7.822   3.036   1.841 -0.2457 -0.2015 -0.0419
18740W        W34634  12.750  11.233  16.090 -0.0988 -0.2101  0.0995
18741W        W34635   1.218   1.457   0.422 -0.0681  0.0447  0.0308
18742W        W34636   3.750   8.139   2.628 -0.3184  0.0416  0.1946
18743W        W34637  18.332   7.507  15.135 -0.1712  0.2220  0.0781
18744W        W34638   5.010  15.911  13.216  0.0765  0.3057 -0.1916
18745W        W34639   8.415  14.885  12.346  0.1097  0.1989 -0.1075
18746W        W34640   0.515   8.569  12.130 -0.1075  0.1477  0.2081
18747W        W34641   8.441  16.993   0.888 -0.1581  0.3709  0.3868
18748W        W34642  15.479   5.288   0.179 -0.2794  0.0339 -0.2802
18749W        W34643   9.063   9.295  15.309 -0.0456  0.2546 -0.1304
18750W        W34644   0.469   1.418   2.978  0.0528  0.0767 -0.2840
18751W        W34645  15.644  16.265   4.074  0.1136  0.2089 -0.2747
18752W        W34646   0.082   5.903  15.185 -0.2554  0.1078  0.1888
18753W        W34647  11.521   6.567   5.034  0.1536  0.1971 -0.1951
18754W        W34648  14.062   8.332  13.865 -0.0648  0.2158 -0.3500
18755W        W34649   5.996  13.506  13.207 -0.0512  0.0779  0.1067
18756W        W34650   1.651   7.783  12.471 -0.0442  0.3451  0.2249
18757W        W34651   7.858   8.983  14.175  0.1331 -0.1343  0.0629
18758W        W34652   2.233   3.545   3.900  0.1114  0.0062  0.0879
18759W        W34653   6.029  10.478  12.252  0.0228  0.0971  0.1198
18760W        W34654   3.143  17.184   5.320  0.3182  0.2368 -0.0730
18761W        W34655   8.793   3.265   1.090  0.0861 -0.1648  0.0585
18762W        W34656   7.710   5.630   3.287 -0.2156 -0.1207 -0.0019
18763W        W34657  13.534   8.069  12.775 -0.1410 -0.0696  0.3266
18764W        W34658   0.969   9.626   0.178  0.0767  0.1861 -0.1664
18765W        W34659   7.318   6.332   5.087  0.1524 -0.1622  0.2833
18766W        W34660  12.948   2.046   2.708 -0.2510  0.0076  0.1774
18767W        W34661   5.722   1.703  14.277  0.0549  0.3154 -0.1469
18768W        W34662   8.143   0.397  16.096 -0.2040  0.3936 -0.0191
18769W        W34663  16.416   2.071   4.617 -0.2181 -0.0452 -0.0298
18770W        W34664   0.445  13.835  11.090  0.2569  0.1481  0.4592
18771W        W34665   7.310  17.504   2.482 -0.0404  0.5272  0.1358
18772W        W34666   5.788  13.605  15.069 -0.2919  0.0462 -0.2457
18773W        W34667  15.545   7.559   3.438  0.2049 -0.1257  0.2251
18774W        W34668  10.534   2.126   0.044 -0.0270  0.0443  0.0680
18775W        W34669  17.463   7.432   2.925 -0.0463  0.2745 -0.1451
18776W        W34670  13.291   5.863   3.675  0.0473  0.0609  0.1796
18777W        W34671   4.624   1.139   1.662  0.0524  0.1858  0.2112
18778W        W34672  10.382  10.254  11.485 -0.1794 -0.0057  0.1648
18779W        W34673   8.325  18.139   4.539  0.0911  0.1040 -0.1127
18780W        W34674  13.837  12.375   2.749 -0.3050 -0.2378 -0.1119
18781W        W34675   9.699   6.954   0.320 -0.4129  0.0631 -0.1234
18782W        W34676   3.924   8.382   5.251  0.0418  0.0917  0.3003
18783W        W34677   9.454  14.443  15.658 -0.3579 -0.0372  0.5057
18784W        W34678   9.705   4.764   1.347  0.2371 -0.1342  0.2496
18785W        W34679  10.710   9.311  15.296 -0.0167  0.2221 -0.0513
18786W        W34680  14.323  11.066  14.176 -0.1118  0.0209 -0.2127
18787W        W34681   6.026   0.163   4.754 -0.0222  0.2959 -0.1309
18788W        W34682  15.318  15.942  16.035 -0.1025 -0.0969  0.0121
18789W        W34683  13.707   0.924  15.923  0.2885  0.1394 -0.1319
18790W        W34684  16.395   3.848  14.090  0.0635  0.0583  0.0322
18791W        W34685   6.075  18.100   1.603 -0.3162  0.2400 -0.0290
18792W        W34686   5.839  13.133  15.429 -0.1108  0.4867  0.0214
18793W        W34687  15.562   5.945   4.465  0.2092  0.1653  0.0755
18794W        W34688   8.922  13.032  12.839 -0.2517 -0.0829 -0.2928
18795W        W34689   7.991  13.797   2.315 -0.0820 -0.2432 -0.0833
18796W        W34690   0.821  12.146   2.688 -0.2673  0.0525 -0.1864
18797W        W34691   6.920   6.186  15.332 -0.1271  0.0810  0.3111
18798W        W34692  18.128   0.448   2.318 -0.4406 -0.2628 -0.0824
18799W        W34693   4.063   1.429  13.463  0.1856 -0.3253 -0.0845
18800W        W34694   0.105   1.652  12.022 -0.0901  0.1727 -0.0540
18801W        W34695   4.330   1.749   2.508 -0.0482  0.1728 -0.1281
18802W        W34696   7.977   3.094  11.417 -0.0039  0.1853  0.0572
18803W        W34697   7.266  12.208  14.710  0.2051 -0.2461  0.0426
18804W        W34698   5.865   3.115   1.151  0.3397 -0.2101 -0.1758
18805W        W34699  12.996  12.040   2.672  0.0047  0.3134  0.4044
18806W        W34700   1.343   1.369  10.816  0.0852 -0.1066 -0.3921
18807W        W34701  17.586  14.298   2.905 -0.0640 -0.4398  0.1531
18808W        W34702   7.463  16.318   4.707  0.2643  0.0458  0.0029
18809W        W34703   3.708  13.408  15.729  0.1336 -0.0633  0.3914
18810W        W34704  15.215   9.123   4.263 -0.3427  0.0205  0.1228
18811W        W34705  10.911   1.065  13.104  0.0784  0.0081 -0.0074
18812W        W34706   8.932  17.209   1.378 -0.0594 -0.2949 -0.0384
18813W        W34707   2.512  12.247   5.780 -0.2433 -0.1874 -0.0680
18814W        W34708   7.169  13.580   3.699  0.2863  0.1813 -0.0836
18815W        W34709   4.181   2.138   5.420  0.1610 -0.3267  0.3866
18816W        W34710   7.055  15.101   3.237 -0.0340  0.1692 -0.3864
18817W        W34711  16.683  15.615  11.576 -0.1847 -0.3219 -0.0918
18818W        W34712  10.265  14.581   4.450 -0.3656 -0.2458 -0.3260
18819W        W34713   1.673   8.813   5.593  0.2107  0.3831 -0.1145
18820W        W34714   7.273  10.269  14.262  0.1044  0.0782  0.1291
18821W        W34715   4.697  17.234   3.920  0.0627 -0.0506  0.1234
18822W        W34716  17.176  12.044  14.761  0.0141 -0.0931 -0.0338
18823W        W34717   2.822  16.111   0.182  0.0222  0.2220 -0.1792
18824W        W34718  17.708   4.675   3.493 -0.4005 -0.1566 -0.0483
18825W        W34719   1.543   3.574  12.670 -0.0072 -0.0252 -0.0936
18826W        W34720   1.210   0.481   4.728  0.1328 -0.1000 -0.2184
18827W        W34721  11.767   0.772  11.778  0.0241  0.2616 -0.1131
18828W        W34722  10.681   4.757   2.829 -0.0857  0.0001 -0.2465
18829W        W34723  17.719   6.224   5.110  0.2105  0.0945 -0.2919
18830W        W34724   8.413  10.101  11.915 -0.1030  0.1561  0.0704
18831W        W34725   3.887   1.688  12.874  0.0457  0.0553  0.3861
18832W        W34726   3.228  13.365  15.489 -0.2024 -0.3380 -0.2357
18833W        W34727   8.894   1.352   1.974  0.3310 -0.0458  0.3137
18834W        W34728  10.104   8.411  14.559  0.0035 -0.0496  0.2978
18835W        W34729   9.693  13.335   3.961 -0.1066  0.0880  0.2588
18836W        W34730   0.595   8.920  13.097  0.1212 -0.2124 -0.0350
18837W        W34731  12.446   4.318  13.681 -0.2918  0.0387  0.3305
18838W        W34732   4.405   0.083   3.067  0.0244  0.2430  0.0309
18839W        W34733   7.459  13.879  14.128  0.0668  0.0655 -0.2981
18840W        W34734  17.261  15.269   1.833  0.0802 -0.0429  0.3953
18841W        W34735   9.489   8.962   3.540  0.3712 -0.2305 -0.1645
18842W        W34736   2.407   5.587  13.276  0.1397  0.2056  0.1320
18843W        W34737   1.206  18.341  15.860  0.4879 -0.0982 -0.2467
18844W        W34738  10.370  16.928   0.557 -0.0187  0.4244 -0.0862
18845W        W34739   7.676   2.614   2.049  0.3528  0.3555  0.1017
18846W        W34740   1.237  12.553   5.890 -0.3494  0.3339  0.1940
18847W        W34741   2.086   7.544  12.246 -0.1174 -0.2302 -0.1553
18848W        W34742  16.777  16.042  12.268  0.0734  0.1938  0.2521
18849W        W34743   5.481  18.233  14.546 -0.1671 -0.0167 -0.2151
18850W        W34744   0.446   0.213   1.110 -0.2808 -0.3605 -0.0218
18851W        W34745   8.178  13.224   4.946  0.0223 -0.0516 -0.1273
18852W        W34746   9.734   9.488  11.774 -0.0681  0.3929 -0.0233
18853W        W34747   6.558   9.867   5.505  0.0123  0.0290 -0.0351
18854W        W34748  10.100  10.693  13.041 -0.2453 -0.1993 -0.1105
18855W        W34749  17.859   2.489  14.820  0.0563  0.0736  0.1321
18856W        W34750   6.320  17.183  15.225  0.1730 -0.1466 -0.0379
18857W        W34751   7.755   6.617  13.760  0.0765 -0.0053  0.1225
18858W        W34752   0.361   9.765  11.219 -0.0456  0.1837  0.1187
18859W        W34753   4.756   5.127   2.613 -0.0481 -0.0863 -0.0113
18860W        W34754   3.080  13.547   3.517  0.0089  0.0083 -0.0700
18861W        W34755   9.614   9.213  15.423 -0.2338  0.5393  0.0768
18862W        W34756   9.885  16.879   4.934 -0.1891 -0.1272  0.0967
18863W        W34757  17.365  11.694  15.400 -0.1296 -0.3965  0.1177
18864W        W34758  13.667  10.655  12.842 -0.0497  0.2133 -0.0717
18865W        W34759  16.417   4.266   3.871  0.0036 -0.0443  0.2041
18866W        W34760  13.709   1.062   0.793  0.1760 -0.2642  0.2664
18867W        W34761  10.511   3.087  11.129 -0.1499  0.1659  0.2627
18868W        W34762   4.678   8.814   0.795 -0.3873  0.1375  0.1814
18869W        W34763  10.393  13.383   2.421 -0.0659  0.0472  0.0957
18870W        W34764  17.154   6.930  12.227 -0.0296 -0.0851  0.0620
18871W        W34765   3.728   5.872   1.950  0.1622  0.1117  0.0286
18872W        W34766   4.328  18.343   4.677 -0.1070  0.3201  0.1196
18873W        W34767   8.175   0.286   1.101 -0.0448  0.2451  0.0681
18874W        W34768   4.568  14.444   1.083 -0.2309 -0.0893 -0.4945
18875W        W34769   2.341  12.812   0.810 -0.0904 -0.0780 -0.0429
18876W        W34770  13.929  11.431  14.293  0.1094  0.1397 -0.0594
18877W        W34771   8.163  16.102   0.761  0.0668 -0.1879  0.1297
18878W        W34772  12.438  15.155   5.728  0.1521  0.0093  0.0086
18879W        W34773  13.270  17.104   3.256 -0.3012  0.4121  0.0125
18880W        W34774   0.940   4.754  13.489 -0.2510  0.0137 -0.0756
18881W        W34775   2.441   7.556  15.681  0.3899  0.1070  0.0345
18882W        W34776   5.701   7.360  11.613  0.1329  0.2594 -0.0574
18883W        W34777  13.233   8.727   3.587 -0.1173  0.0580 -0.3132
18884W        W34778  11.137  15.963   1.318  0.0776  0.0610 -0.0523
18885W        W34779  15.350   8.637  13.825  0.0486  0.0173  0.0069
18886W        W34780   3.779   0.703   0.692 -0.1708  0.1874 -0.0085
18887W        W34781   9.003  18.340  16.079  0.2405  0.1128 -0.3457
18888W        W34782   1.440   2.843   2.854  0.2088  0.1700 -0.0736
18889W        W34783  14.087   7.890  12.848 -0.2157 -0.0743  0.0227
18890W        W34784   3.780   6.489  15.964  0.4011 -0.1250 -0.0213
18891W        W34785   8.910  16.889   1.010  0.1401  0.1160 -0.1096
18892W        W34786  10.914   6.891  14.928  0.0989  0.1365 -0.2986
18893W        W34787  15.235  16.592  14.101 -0.0685  0.1148  0.1000
18894W        W34788  10.725  15.851   3.708  0.0867 -0.0181 -0.1882
18895W        W34789  13.169  18.362  14.124  0.0671  0.1914 -0.2047
18896W        W34790   9.526  10.635   5.711  0.0623 -0.0508 -0.2807
18897W        W34791  13.997   4.878  15.963  0.0099  0.1977  0.2533
18898W        W34792  18.364   2.828  11.110 -0.1376  0.0680  0.1622
18899W        W34793  10.632  10.552   0.042  0.2365 -0.0106  0.0792
18900W        W34794  17.937   0.325   0.026 -0.2043  0.2508  0.0244
18901W        W34795  15.035   1.809  11.021 -0.0340  0.0523  0.0431
18902W        W34796   9.601   5.518  13.696 -0.1979  0.0221  0.1460
18903W        W34797  12.142  11.409   1.159  0.1125  0.2105 -0.0150
18904W        W34798   7.235  13.478  13.806 -0.0111 -0.1444  0.0939
18905W        W34799  15.789  13.120   4.813 -0.1360  0.0571  0.1061
18906W        W34800   8.840   8.811  13.247 -0.0283  0.3331 -0.2297
18907W        W34801  11.097  14.617   2.456 -0.2455 -0.2893  0.2995
18908W        W34802   8.922  15.581   0.766 -0.0441 -0.4501 -0.0380
18909W        W34803  18.133   0.129   1.431  0.3533  0.0701 -0.3521
18910W        W34804  15.967  11.032  11.382 -0.0688  0.1381 -0.2484
18911W        W34805  18.244  17.010  13.388 -0.2012  0.2367 -0.2242
18912W        W34806  10.370   2.083  15.335 -0.1194 -0.0107  0.1075
18913W        W34807  14.242  17.972   5.752  0.1837 -0.1566  0.5282
18914W        W34808  11.067  11.532   5.348 -0.2374  0.1075 -0.0771
18915W        W34809   0.127   0.319   2.190 -0.2164 -0.3325  0.0984
18916W        W34810  12.706  10.460  12.001 -0.0076 -0.2386  0.0528
18917W        W34811   5.226  16.915   1.565  0.0108 -0.0629  0.1963
18918W        W34812  13.456  14.180  13.209 -0.0123 -0.1555  0.0635
18919W        W34813   4.656   2.041  13.231 -0.0457  0.3119 -0.0856
18920W        W34814  16.717   2.331   0.411 -0.1068 -0.1618  0.0317
18921W        W34815   8.701  13.072  16.091 -0.0322  0.0344  0.0533
18922W        W34816   0.694  10.729  15.512  0.0001  0.1011  0.4615
18923W        W34817  12.857  16.825   0.967  0.2361 -0.0387  0.2614
18924W        W34818  16.213   8.142  13.646 -0.0467  0.0386 -0.1546
18925W        W34819  10.842   9.299   4.634  0.0885  0.2837 -0.0743
18926W        W34820  11.711  14.299   1.689  0.2012 -0.3737  0.0708
18927W        W34821  18.133  17.494  14.183  0.1991 -0.4607 -0.0198
18928W        W34822  12.178   3.688  12.897 -0.1581 -0.0224 -0.0507
18929W        W34823   5.175   9.614  13.754 -0.4183 -0.5122  0.1396
18930W        W34824   0.245   7.541  13.248 -0.1067 -0.3321  0.2421
18931W        W34825  18.043   4.632   2.969 -0.2694  0.2075 -0.1947
18932W        W34826  12.578   7.278   2.880 -0.1535  0.3341  0.1434
18933W        W34827  14.461   2.682   0.787  0.1054  0.3037  0.2341
18934W        W34828   8.446  13.830  14.327 -0.1603  0.0814  0.0043
18935W        W34829  10.182  17.029   2.811  0.1447  0.2225 -0.0837
18936W        W34830   4.626  15.179   2.594 -0.0140  0.1237  0.3489
18937W        W34831   7.313   8.730   5.628  0.0231 -0.0661  0.1800
18938W        W34832  11.860   4.250  12.491 -0.0199  0.1055  0.0839
18939W        W34833  18.445   4.979   0.659 -0.2597 -0.1112 -0.0900
18940W        W34834  16.449   0.169  15.106 -0.0217 -0.0042  0.2179
18941W        W34835  16.626  12.828  14.815  0.2602 -0.0724  0.3753
18942W        W34836   1.589  15.861  14.101  0.0715 -0.0697 -0.2157
18943W        W34837   5.650   8.243  12.381  0.0893 -0.1487  0.0745
18944W        W34838   0.752   3.995  12.914 -0.1115  0.0138  0.1273
18945W        W34839   4.225   4.986   5.547  0.1240  0.0177 -0.1235
18946W        W34840   6.332  12.734  10.935 -0.2419 -0.0785  0.0670
18947W        W34841   2.425   9.489  14.677  0.0675 -0.2020 -0.0535
18948W        W34842   0.385  13.915  15.906  0.0045 -0.0394  0.3922
18949W        W34843   5.559   1.039   5.274 -0.0715 -0.0648 -0.1065
18950W        W34844  12.200  18.383   1.223 -0.1785 -0.3947  0.2256
18951W        W34845   2.612  15.602   5.342 -0.2251 -0.1329 -0.3279
18952W        W34846   4.709   2.367   4.420 -0.0166 -0.4048  0.3789
18953W        W34847  10.976   9.404   2.253  0.0554  0.1206  0.1083
18954W        W34848   4.192  10.644  15.372  0.0753 -0.0351 -0.0270
18955W        W34849  11.971  16.598   0.329 -0.0771 -0.0601 -0.0912
18956W        W34850  17.470  16.125  12.742  0.1691 -0.1187  0.1020
18957W        W34851  16.634   1.945   5.344  0.1418  0.1528  0.0043
18958W        W34852  10.572  18.257   3.801 -0.0115  0.3023 -0.2833
18959W        W34853  10.394  14.884  10.172  0.0362 -0.1769 -0.1123
18960W        W34854   8.134  16.656   1.221  0.0134  0.4031 -0.2134
18961W        W34855   6.220   9.777   5.147  0.1428  0.0188 -0.1508
18962W        W34856  10.778  13.090   5.468 -0.1293  0.0429 -0.0670
18963W        W34857  12.667   6.799   4.652 -0.1020 -0.1038 -0.1894
18964W        W34858   5.232   1.761  11.470  0.1424 -0.0662  0.0589
18965W        W34859  14.178   4.367  15.854 -0.1124 -0.0821  0.1227
18966W        W34860   8.432  11.781  12.240  0.4748 -0.0300 -0.0356
18967W        W34861   8.553  10.921  14.066  0.4055  0.0464  0.2895
18968W        W34862  11.441  10.419  12.679 -0.0160  0.0109 -0.0284
18969W        W34863  16.548  11.536  12.854 -0.2393 -0.0706 -0.0015
18970W        W34864  12.311  15.023  12.443  0.1759  0.2661  0.1027
18971W        W34865   9.886   0.263   1.096 -0.1811  0.1478 -0.0522
18972W        W34866  15.764  16.231  13.191  0.2907  0.0616 -0.3267
18973W        W34867   3.947   5.183  12.366  0.1866 -0.2571 -0.0999
18974W        W34868  15.686   8.374   0.414  0.1494 -0.0234  0.0193
18975W        W34869   3.711  15.045   2.416 -0.1926 -0.2003  0.1898
18976W        W34870  15.688  11.457  13.770  0.0104 -0.3066 -0.1774
18977W        W34871   7.961   6.573   4.395  0.1897 -0.1261  0.1609
18978W        W34872   1.826  13.924   4.878 -0.0074 -0.0569  0.0351
18979W        W34873  12.698   6.824   1.995 -0.2896 -0.2846  0.2820
18980W        W34874   9.339   7.618  12.934 -0.0247 -0.1457 -0.2512
18981W        W34875   2.335   7.133  12.437  0.1549  0.0926  0.0651
18982W        W34876  10.660  10.145   5.226  0.1811 -0.2113  0.1636
18983W        W34877   0.513   1.057  12.490  0.2117 -0.2371 -0.0587
18984W        W34878   7.196   7.481  14.031  0.0207 -0.0649 -0.0205
18985W        W34879  14.747  15.778  12.701 -0.3606 -0.1884 -0.0020
18986W        W34880  17.990  13.671  14.461  0.0298  0.4340 -0.3360
18987W        W34881  12.801   9.304  12.440 -0.2278 -0.0955 -0.0199
18988W        W34882   1.280   7.468   5.040 -0.0796  0.0581 -0.1016
18989W        W34883   7.185   1.296   4.142  0.1976  0.0125  0.2014
18990W        W34884  11.220   7.460  11.724 -0.1538 -0.1857  0.1370
18991W        W34885   6.332   7.766  14.527 -0.0219  0.0787 -0.1912
18992W        W34886   5.511  17.483  12.797  0.3972  0.2140 -0.1902
18993W        W34887  16.892  17.840   4.947 -0.0567 -0.0395  0.0418
18994W        W34888   5.536  12.290  14.285 -0.0819 -0.2098  0.1670
18995W        W34889   0.992   0.255   5.097 -0.0828  0.1634 -0.2004
18996W        W34890   9.262  11.152  10.649 -0.5479  0.4571 -0.0901
18997W        W34891   8.528   1.564  15.839 -0.2004  0.0762  0.1235
18998W        W34892  13.741   6.641   4.499 -0.0344 -0.2059  0.1631
18999W        W34893  12.287   9.860   5.656 -0.1663  0.1304 -0.1303
19000W        W34894   3.182   5.626   4.583 -0.0867  0.1041 -0.0530
19001W        W34895   5.598  12.099  12.417 -0.0787 -0.0442 -0.0191
19002W        W34896   5.083  14.557   4.298  0.0798 -0.2620  0.0059
19003W        W34897  14.518  15.847  13.875 -0.4105  0.0400  0.0679
19004W        W34898  14.017   5.871   3.119 -0.0138  0.0712 -0.0875
19005W        W34899   8.918   4.521   3.171 -0.1054 -0.0240  0.1069
19006W        W34900   4.302   4.703  10.571  0.3099 -0.0260 -0.0349
19007W        W34901   9.608  14.343  15.143 -0.2423 -0.0373 -0.1043
19008W        W34902  13.055   4.458  15.540  0.4285  0.0233 -0.0509
19009W        W34903  14.295  17.680  13.337  0.0713  0.4217  0.0609
19010W        W34904  17.103   8.212  13.379  0.1642 -0.2129  0.1390
19011W        W34905   1.502  17.374  14.882  0.0102  0.0740  0.2998
19012W        W34906  10.520  14.641  13.540 -0.0252 -0.1424 -0.0553
19013W        W34907   3.311  13.695   1.861 -0.0786  0.1301  0.4198
19014W        W34908  13.788  10.323   3.911 -0.2179  0.3825  0.2781
19015W        W34909   7.447  14.036  15.752 -0.1138 -0.2363  0.1759
19016W        W34910   8.151  15.918   3.518  0.1162  0.0410 -0.2430
19017W        W34911  13.356   0.518  13.883  0.0678 -0.2068 -0.1770
19018W        W34912   8.792   5.641  12.460 -0.1241  0.1568 -0.3361
19019W        W34913   1.103  15.995  12.423 -0.3475 -0.0096 -0.2221
19020W        W34914   8.289   2.623  13.937  0.0564  0.1962  0.0823
19021W        W34915  15.252  17.567   2.376 -0.1238 -0.0741 -0.1731
19022W        W34916   4.121  11.886   1.615 -0.1120 -0.0197  0.0356
19023W        W34917   4.638   6.876   6.041 -0.0295 -0.0353 -0.1910
19024W        W34918  18.414  10.888   0.495  0.2462 -0.0595  0.2215
19025W        W34919   5.846   8.742  10.949  0.0317 -0.0354 -0.2472
19026W        W34920  12.743  14.724   1.945  0.1806 -0.0016  0.2678
19027W        W34921   3.383  15.092   0.809 -0.0204 -0.1686  0.1312
19028W        W34922   3.991   9.471   3.899  0.2681 -0.1702 -0.1505
19029W        W34923  13.169  15.588   2.473 -0.0148  0.2466  0.2165
19030W        W34924  14.349  14.798  13.053 -0.1203  0.0625 -0.0757
19031W        W34925  11.154   9.584  13.875  0.1505  0.0270  0.1888
19032W        W34926  11.582  17.518   1.321 -0.0406  0.0866  0.1780
19033W        W34927  11.401   8.185   1.727  0.0127  0.1862 -0.0645
19034W        W34928  11.166   0.280  12.948  0.3208  0.2966 -0.0706
19035W        W34929   8.450   4.067   1.126 -0.2216  0.0798 -0.0540
19036W        W34930  11.384  15.825   4.376  0.0500  0.2395  0.0955
19037W        W34931   3.198   8.275   2.997  0.0678  0.2341  0.0126
19038W        W34932  14.008   7.499   4.892 -0.0527 -0.1340 -0.3320
19039W        W34933   2.191  12.448  15.715  0.0144 -0.0430  0.1732
19040W        W34934  13.079   8.880  15.671 -0.1851  0.3089  0.1094
19041W        W34935   8.361   2.911  15.911  0.1823  0.2576  0.1940
19042W        W34936  13.313  14.203  12.699  0.2811  0.0763  0.0085
19043W        W34937   1.276  10.638  12.122  0.1669  0.1380 -0.0192
19044W        W34938  18.000  15.151  15.438 -0.0299  0.0508 -0.0915
19045W        W34939   8.146   9.538   1.843 -0.1716  0.0705  0.1271
19046W        W34940   7.632   5.146  11.358 -0.0213 -0.0941  0.1466
19047W        W34941   6.834  11.603  15.124 -0.2979 -0.0857  0.2408
19048W        W34942   2.498   1.553   2.839  0.0352 -0.1681 -0.0855
19049W        W34943  16.597  13.527  12.069 -0.0234  0.0961  0.2265
19050W        W34944   4.255  17.897   4.481  0.1020  0.1933  0.0146
19051W        W34945   5.393  13.789  12.095  0.1066  0.1254  0.3557
19052W        W34946   8.087  14.515  15.028 -0.1851  0.2087 -0.0420
19053W        W34947  12.910   1.959   0.140  0.1199  0.0352 -0.0336
19054W        W34948   3.755  12.317   2.716  0.0241  0.3924  0.0687
19055W        W34949   7.406   3.420   4.357  0.2443 -0.0745 -0.1367
19056W        W34950  14.020   3.259   6.211  0.3467  0.1744  0.1830
19057W        W34951   8.412   1.565   3.193  0.2020 -0.0543  0.0588
19058W        W34952  11.113   2.270   5.536 -0.0683  0.0304 -0.0447
19059W        W34953  17.268   2.750  12.082  0.0794  0.1479 -0.0397
19060W        W34954  11.925   5.678   3.385  0.0976  0.0373  0.1833
19061W        W34955   0.468   5.034  13.660  0.0267 -0.1488  0.0181
19062W        W34956  17.149  18.137   1.325 -0.0409 -0.0906 -0.3148
19063W        W34957   2.238  10.961   4.991 -0.2376 -0.3541 -0.2716
19064W        W34958  15.217   2.970  11.395  0.2750 -0.0544 -0.2770
19065W        W34959  16.128  17.308  13.609 -0.1386 -0.1259 -0.1040
19066W        W34960  10.371   2.781   3.612 -0.3051  0.0168 -0.0546
19067W        W34961  15.479  17.535  12.448 -0.0235  0.2092  0.0422
19068W        W34962   4.338   3.626  13.971 -0.0719 -0.2320 -0.1036
19069W        W34963  11.517   1.878   4.338  0.1637 -0.0354  0.1211
19070W        W34964   5.978  14.356  15.586  0.0491  0.0073 -0.2202
19071W        W34965   2.520   1.358   3.736  0.2525  0.0035 -0.0282
19072W        W34966   6.818   4.738  12.558 -0.0923 -0.0835 -0.0092
19073W        W34967   6.205   6.602  11.472 -0.1162 -0.3338 -0.2719
19074W        W34968   6.129   4.978   2.943  0.0830 -0.4616 -0.3171
19075W        W34969  10.351  11.544  11.395  0.2883  0.1687  0.0787
19076W        W34970   8.272  11.445  11.871  0.0585  0.0033 -0.3331
19077W        W34971  17.234   2.143  13.973 -0.0204  0.1664  0.1984
19078W        W34972   1.610   1.304   1.449  0.0282  0.0649  0.2439
19079W        W34973  17.859   3.240   2.009  0.0065  0.1221 -0.3179
19080W        W34974   0.032   9.034  14.628 -0.1306 -0.0749 -0.1238
19081W        W34975   4.674  18.106  11.137  0.0572  0.1890  0.0156
19082W        W34976   1.404   6.455  11.941 -0.3080 -0.2255 -0.0784
19083W        W34977  11.882   9.830   1.988 -0.3797 -0.3423 -0.0003
19084W        W34978  10.192  16.234  13.032  0.1469  0.1425 -0.1718
19085W        W34979  15.565   1.618   0.041  0.0985  0.0197  0.1441
19086W        W34980  17.550  12.585  13.762  0.1373  0.0954  0.1682
19087W        W34981   7.550   3.097   2.301 -0.0115  0.0028 -0.0320
19088W        W34982   2.694   1.009  14.404  0.0652 -0.0433 -0.0714
19089W        W34983  17.040  18.030   0.784 -0.3546  0.3361  0.0592
19090W        W34984   8.547   4.603   5.006  0.1346 -0.0096  0.0679
19091W        W34985   2.468   1.979   0.597 -0.2082 -0.2093  0.1289
19092W        W34986   4.766  18.033   4.335 -0.0244  0.3050  0.3362
19093W        W34987   3.693  12.752   2.967  0.0283 -0.2401 -0.1978
19094W        W34988   6.947  18.351   2.036 -0.1471  0.2351  0.0197
19095W        W34989   4.677   7.110   2.722 -0.1756  0.4372 -0.0926
19096W        W34990   6.304   9.373   1.709  0.1040 -0.4293  0.1329
19097W        W34991  10.674   2.551  12.054 -0.0114 -0.0698  0.2075
19098W        W34992  17.696  17.336  10.410  0.2809  0.0452  0.1629
19099W        W34993  14.888   0.255  14.611  0.2102  0.0202  0.4753
19100W        W34994   9.967  15.817  14.582  0.1171  0.2550 -0.0080
19101W        W34995   9.765   1.756  10.822 -0.2415 -0.1423  0.2577
19102W        W34996   0.532   5.077  13.149  0.0222 -0.0402  0.0312
19103W        W34997   5.326  13.065   4.791 -0.1143  0.0760  0.2382
19104W        W34998   2.951  17.129  13.998 -0.0129  0.1829  0.1682
19105W        W34999  16.642  13.237  12.475 -0.0922  0.2158 -0.0974
19106W        W35000   8.956   7.502   2.750  0.0600  0.1722  0.2885
19107W        W35001  11.056   1.815   0.174  0.0487  0.2544  0.1189
19108W        W35002   6.537   8.247   4.911 -0.1674 -0.0123  0.0045
19109W        W35003  15.542   3.091   4.392 -0.0264 -0.2207  0.5799
19110W        W35004  12.457  16.188  15.713  0.4979 -0.0124  0.0797
19111W        W35005  11.378  17.218   4.150 -0.4991 -0.0431 -0.0288
19112W        W35006  18.128  14.931   5.135  0.2106  0.0129 -0.3190
19113W        W35007   2.453  14.462  13.201 -0.1826  0.0412 -0.0903
19114W        W35008  13.035  15.521   0.762 -0.0712 -0.1396  0.3919
19115W        W35009   1.243   9.811   1.029 -0.1198 -0.0968  0.1475
19116W        W35010   3.376   7.315  15.143 -0.1853  0.2322 -0.0359
19117W        W35011   8.524   7.113  11.542  0.0925 -0.1347  0.0480
19118W        W35012   2.700  13.160  11.453 -0.0112 -0.1017 -0.0839
19119W        W35013   7.372  10.685   4.055  0.1455 -0.0034  0.1428
19120W        W35014  17.245   2.967  13.704 -0.1604  0.3529 -0.0949
19121W        W35015   6.809  16.358  12.861 -0.2292  0.3451 -0.2185
19122W        W35016   2.561  13.901   1.276  0.1319 -0.2661 -0.0167
19123W        W35017  18.075  16.101   5.091 -0.3176 -0.0258  0.0672
19124W        W35018  16.764  17.029  13.695  0.0189 -0.1408 -0.1410
19125W        W35019   3.666   5.988   1.274  0.1171 -0.0337  0.1005
19126W        W35020   5.137   2.749  11.963 -0.1489  0.2718 -0.1619
19127W        W35021  11.943   9.539   0.677  0.0881  0.1698 -0.0501
19128W        W35022   5.980  11.764  12.523  0.2834 -0.1733 -0.0727
19129W        W35023   7.263   5.283  15.820  0.2260 -0.2433 -0.0831
19130W        W35024  12.792  15.089  15.886 -0.1065 -0.2975  0.1527
19131W        W35025  10.537  14.423  14.344 -0.0420 -0.1848  0.1435
19132W        W35026   0.529   7.542  14.452 -0.1390  0.0656  0.0487
19133W        W35027   5.333  13.996   1.393  0.2949  0.0454 -0.2019
19134W        W35028  11.432   4.827   5.771  0.1060 -0.4145  0.1217
19135W        W35029   5.899   5.334  16.040 -0.0092 -0.1531  0.3207
19136W        W35030  13.789   8.981   4.244 -0.1547  0.1832  0.2525
19137W        W35031  12.790   3.129  15.610  0.1204 -0.1007  0.0984
19138W        W35032  14.183   2.679  14.019  0.0697  0.0416  0.0897
19139W        W35033  10.202   5.306   2.943 -0.0740 -0.1764  0.3493
19140W        W35034   1.354  10.900   3.967 -0.0777  0.1367 -0.3636
19141W        W35035   0.666  10.554   1.167 -0.0651 -0.1888 -0.1077
19142W        W35036  15.007   2.111  15.202 -0.1474 -0.0265  0.1077
19143W        W35037  15.790   4.624   2.651 -0.0424  0.0129  0.0833
19144W        W35038   7.254  16.405   4.096  0.3836  0.1056 -0.0521
19145W        W35039  16.463   3.074   0.904 -0.2736 -0.2922  0.1747
19146W        W35040  11.517  18.445  10.699  0.0977 -0.0206  0.0289
19147W        W35041   4.003   9.505  16.071 -0.0165  0.0780 -0.1120
19148W        W35042   1.254  12.086   4.994  0.0251 -0.1076  0.2783
19149W        W35043  10.614  18.064   2.197  0.0865  0.0696  0.0225
19150W        W35044  15.771   2.723  12.510  0.0880 -0.1984  0.2784
19151W        W35045  13.742   1.436  13.581 -0.1149  0.3944  0.1711
19152W        W35046   2.984  17.072  15.479 -0.0582 -0.1902 -0.2044
19153W        W35047  14.905  11.217  15.363 -0.1952  0.0470  0.2736
19154W        W35048   3.466  12.543   2.261  0.2870 -0.0466 -0.0326
19155W        W35049  13.782   5.669   1.276  0.2901  0.1094 -0.4130
19156W        W35050  17.756  12.812  14.801  0.1043 -0.2334 -0.3262
19157W        W35051  17.784  15.415  14.644 -0.0522 -0.0106 -0.1161
19158W        W35052   6.482   4.101   3.830 -0.1116 -0.0773  0.1993
19159W        W35053   3.831   0.726   4.393 -0.1211  0.0176  0.1477
19160W        W35054   7.057  12.815  12.456 -0.3294  0.0101 -0.1063
19161W        W35055  17.883  11.702  12.265 -0.1125 -0.1944 -0.0265
19162W        W35056  16.019   5.583   4.554 -0.0274 -0.2613 -0.2437
19163W        W35057   9.904   4.289   5.550  0.0179 -0.0162  0.0727
19164W        W35058  13.249   8.715   0.072 -0.2465 -0.1639  0.2571
19165W        W35059   5.545   4.825  13.626  0.1384 -0.1103  0.0854
19166W        W35060   8.351  17.899   0.406 -0.0216  0.1706 -0.1164
19167W        W35061  16.703   3.904  15.539  0.0559 -0.3113 -0.3214
19168W        W35062   9.035  15.437  10.923  0.2181  0.2172  0.0511
19169W        W35063  12.317   4.111  14.637 -0.2287 -0.0506 -0.0198
19170W        W35064   9.635   4.290  13.894 -0.0599 -0.0791 -0.0715
19171W        W35065   9.844  13.803   4.152  0.2234 -0.0780  0.4353
19172W        W35066   1.317  10.081  12.333 -0.1489 -0.0890 -0.2643
19173W        W35067  17.474   7.232   4.477  0.0246  0.1004  0.1906
19174W        W35068  11.491   8.379  14.368 -0.1171  0.0130 -0.0606
19175W        W35069   2.481  13.045   3.017  0.4324 -0.1496 -0.2253
19176W        W35070  16.599   5.161  13.748 -0.1616  0.0838 -0.0744
19177W        W35071   8.507  12.746   0.823  0.0162  0.1543 -0.0301
19178W        W35072   0.086  11.540  11.942 -0.0796  0.0925  0.1411
19179W        W35073   7.707  10.288  15.737  0.4332  0.0273 -0.0942
19180W        W35074  12.546  10.000   1.239  0.1858 -0.1581  0.0547
19181W        W35075   6.624   8.359   0.709 -0.2277 -0.2216  0.1160
19182W        W35076  16.959   6.910  12.660  0.0083  0.1047 -0.0078
19183W        W35077  12.127  14.633   1.869  0.2060 -0.0282  0.1134
19184W        W35078  11.684  17.368   0.844 -0.1816  0.1748  0.1647
19185W        W35079   9.889  17.602  12.014 -0.2407  0.0200  0.0494
19186W        W35080   1.885   5.242  13.316  0.1682  0.1504  0.1951
19187W        W35081   5.300  18.405   1.318  0.2313 -0.0696  0.0031
19188W        W35082   5.694   2.380   1.886 -0.2078  0.2288  0.1832
19189W        W35083  15.763  13.737   4.178  0.1257  0.0219  0.0391
19190W        W35084  15.297   3.426  15.778 -0.1693 -0.2273 -0.3401
19191W        W35085  15.758  15.562  12.587  0.2043  0.1089  0.2566
19192W        W35086   6.565  13.509  13.086  0.0139 -0.0336  0.3831
19193W        W35087  12.160   0.716   4.462  0.2865 -0.1130 -0.0634
19194W        W35088  11.209  10.555  14.120 -0.0297  0.0640  0.3302
19195W        W35089  15.374   8.157   4.297 -0.4567  0.1510 -0.1890
19196W        W35090  13.169  12.684   1.038 -0.3076 -0.2212 -0.0759
19197W        W35091   0.471   8.006  11.383  0.1229  0.0459 -0.1639
19198W        W35092   4.808   0.799   5.628 -0.3754  0.2431  0.1090
19199W        W35093  16.153  15.844  10.444 -0.1705 -0.1934 -0.0582
19200W        W35094   1.155  12.048  13.631  0.3905 -0.3000 -0.3281
19201W        W35095   9.088   6.324  14.135 -0.2351  0.2141  0.1859
19202W        W35096  11.852  10.542  13.504  0.1707 -0.1037  0.3126
19203W        W35097  17.150   8.438   2.940  0.2431  0.1153 -0.0239
19204W        W35098   7.100   0.772   4.788  0.2262 -0.0371 -0.0671
19205W        W35099  18.378   4.534  14.338 -0.1145  0.0471 -0.0787
19206W        W35100   8.042   3.953  11.766  0.1304 -0.2505  0.0648
19207W        W35101   6.617   2.501  13.068 -0.1252  0.0978  0.2846
19208W        W35102  13.219  12.798   0.470  0.1812  0.0032 -0.3458
19209W        W35103  13.115  12.239   0.432 -0.2016 -0.2601 -0.0701
19210W        W35104  16.809  15.460   5.117  0.4772  0.2304 -0.1994
19211W        W35105  12.036   6.889  15.157 -0.1033  0.2502  0.1347
19212W        W35106  11.940   1.834  12.050  0.1629 -0.0914  0.3091
19213W        W35107  15.271  11.846   3.685 -0.0926 -0.1060 -0.3523
19214W        W35108   6.665  12.211  11.083 -0.0341  0.0098 -0.1412
19215W        W35109  17.929   8.683  13.038 -0.2117  0.2174  0.0449
19216W        W35110  14.017   2.558  12.224 -0.4661 -0.0032  0.0566
19217W        W35111   3.429   5.017  11.604  0.2471  0.2567 -0.1326
19218W        W35112   9.966  13.294  13.687 -0.2063  0.1209  0.3064
19219W        W35113  14.623   0.975  12.770  0.0596  0.1693  0.1509
19220W        W35114  11.439   1.546   2.014 -0.0216 -0.2269 -0.1465
19221W        W35115  18.035   8.425  11.954  0.1749  0.0323 -0.2224
19222W        W35116   1.660  15.407   1.037  0.1880  0.0372  0.0432
19223W        W35117  16.136  17.246   5.991  0.5192  0.0198  0.2960
19224W        W35118  16.682   3.225   5.740 -0.0836 -0.0959 -0.1650
19225W        W35119  14.673  17.457  13.058 -0.0546  0.1384 -0.0673
19226W        W35120   6.064   1.995  10.807  0.2215  0.1288  0.0805
19227W        W35121  12.604  12.933   2.790  0.0526  0.0621 -0.0674
19228W        W35122  11.826   5.224   3.577  0.2143  0.0957  0.3396
19229W        W35123  10.868   3.794   5.497 -0.2506 -0.0991 -0.1501
19230W        W35124   0.598  11.845  11.847  0.0202  0.1171  0.0553
19231W        W35125   1.777   7.805  15.708  0.4116 -0.5345  0.2412
19232W        W35126  16.785  14.252   5.139  0.1362  0.3322  0.1012
19233W        W35127  17.909  13.565   1.510  0.0609  0.1823  0.1271
19234W        W35128  14.535  13.251   0.096  0.1383  0.0096  0.0779
19235W        W35129   8.381  13.727  15.379 -0.2329 -0.2622 -0.2434
19236W        W35130   7.465   9.812  10.948 -0.0400  0.0114 -0.1445
19237W        W35131   7.478   1.938  14.359  0.2283 -0.3204 -0.1337
19238W        W35132  16.660   6.320  12.159 -0.0056 -0.0607  0.1847
19239W        W35133  18.088   8.779  11.582 -0.2333 -0.0005 -0.0901
19240W        W35134  16.846   4.598   5.258  0.0703  0.1331  0.0203
19241W        W35135   5.665  18.417  10.114  0.1338  0.1572 -0.2702
19242W        W35136   9.408  13.873   1.234 -0.0458  0.0094 -0.3327
19243W        W35137  13.847  14.587  11.754 -0.1532  0.2153 -0.0738
19244W        W35138   6.748   7.089   2.576  0.1414 -0.1567  0.2318
19245W        W35139  18.233   4.153   0.902  0.0727  0.0842 -0.2411
19246W        W35140   9.483  11.748   9.958 -0.1936 -0.0981  0.1840
19247W        W35141  11.300  14.577  10.923 -0.4434 -0.3527  0.3616
19248W        W35142  14.549  14.863  13.620  0.0731  0.4598 -0.1510
19249W        W35143   2.374   0.655   2.075  0.0947 -0.1257 -0.1900
19250W        W35144   7.934   0.663  13.273 -0.1312 -0.1065 -0.3137
19251W        W35145   5.004   2.152   0.653 -0.1357 -0.1937  0.2415
19252W        W35146   0.150   4.391  15.145  0.1520  0.2234 -0.2372
19253W        W35147  17.977  14.277   3.259 -0.2538 -0.2693 -0.1912
19254W        W35148   7.774   8.451   0.228  0.0494 -0.1844 -0.1387
19255W        W35149   5.668   4.668   1.789 -0.2494  0.4359  0.1157
19256W        W35150  11.042   4.877   2.073 -0.0822  0.1897  0.1792
19257W        W35151   9.763  15.122   1.032  0.4660 -0.1280 -0.0674
19258W        W35152  12.195  15.441  13.894  0.1086 -0.0845  0.1864
19259W        W35153   4.486   6.580   5.569 -0.0945 -0.1135 -0.0090
19260W        W35154   7.664  13.975   3.644 -0.1705 -0.0392  0.2431
19261W        W35155  15.710   3.224  15.542 -0.0419 -0.0022 -0.0196
19262W        W35156  14.702   2.047   4.502 -0.1919  0.1853 -0.0256
19263W        W35157   8.000   7.509   2.112  0.1595  0.0882 -0.1016
19264W        W35158   3.189   0.809   1.641 -0.0167  0.0840 -0.2800
19265W        W35159  17.415   0.634   5.276 -0.1919  0.3326  0.0216
19266W        W35160   3.007   6.710  10.363 -0.2723 -0.0244  0.2999
19267W        W35161   8.901   7.630  13.710 -0.1536 -0.2753  0.2182
19268W        W35162   1.356  13.130   2.965  0.3188  0.3422 -0.1065
19269W        W35163   1.963  11.564  14.001  0.2347  0.0340 -0.0749
19270W        W35164   3.880   5.267  12.907  0.6927 -0.0163  0.0067
19271W        W35165   6.421   4.362  15.499  0.1288  0.0788  0.0683
19272W        W35166  15.137  11.424   4.956  0.0176  0.1686  0.5373
19273W        W35167   1.087  11.665   3.888  0.1561  0.3624  0.0519
19274W        W35168   2.797   6.553   1.103 -0.3468  0.0696  0.0661
19275W        W35169  11.803  17.587   4.373  0.0029  0.0497 -0.0544
19276W        W35170   0.563  14.848  11.239 -0.5452  0.1454  0.0744
19277W        W35171   2.846   0.745   2.522  0.2572  0.1310  0.0726
19278W        W35172  11.672   0.105   5.244 -0.0456  0.0167  0.2055
19279W        W35173   5.007  14.427   0.865 -0.0570 -0.1418 -0.0190
19280W        W35174  14.141   1.733   0.804 -0.2131  0.0076  0.3182
19281W        W35175  18.146   5.107  15.075  0.0847  0.0870  0.1380
19282W        W35176   6.589  13.567  11.551 -0.1443 -0.0021 -0.3912
19283W        W35177   2.273   7.276   4.539  0.3056  0.1951 -0.0193
19284W        W35178   3.045  10.375  11.769  0.2662 -0.3543 -0.3145
19285W        W35179   5.053   2.756   4.368  0.0779 -0.0271 -0.0943
19286W        W35180   2.556   4.207  15.122 -0.2328  0.1722  0.2662
19287W        W35181  15.211  13.260   2.865 -0.0888  0.1417 -0.1118
19288W        W35182  12.972   2.113   3.725  0.0534 -0.0812 -0.1369
19289W        W35183  15.405  16.001  14.568  0.2020  0.0416  0.1479
19290W        W35184  13.516   9.981   1.425 -0.0322  0.1883 -0.0617
19291W        W35185  11.438   6.755   0.844  0.1620  0.0687  0.0970
19292W        W35186   3.814  17.642   4.618  0.0159  0.2876  0.0814
19293W        W35187   6.776   3.467   3.397 -0.0687 -0.2331  0.3744
19294W        W35188   2.474  12.833  13.043 -0.0970  0.2586  0.2016
19295W        W35189   0.976  14.870   4.852 -0.0636  0.2225  0.3255
19296W        W35190  11.715   2.874   0.129  0.0714  0.4158 -0.1527
19297W        W35191  16.964   9.514  15.414  0.0965 -0.0349  0.1140
19298W        W35192  13.553   4.796   1.682 -0.3035  0.0745  0.1286
19299W        W35193   7.137  12.246   5.304  0.2431 -0.0599 -0.2413
19300W        W35194  16.501  17.695  15.587  0.1055  0.0332  0.0127
19301W        W35195  14.621   3.229   1.758 -0.0265  0.0465 -0.3814
19302W        W35196  14.540   1.890  14.194  0.4019 -0.0761 -0.2632
19303W        W35197  16.323   6.744   2.882 -0.2476 -0.1099 -0.4187
19304W        W35198   1.971   2.824  13.453 -0.0854 -0.1288  0.0745
19305W        W35199   4.860  14.288   3.949 -0.3655  0.3997 -0.2558
19306W        W35200   6.748   6.682  13.211 -0.1946  0.0105  0.0619
19307W        W35201  11.840   5.733   4.398  0.3529 -0.1793 -0.0900
19308W        W35202  14.725  13.106   1.951 -0.3436  0.2967 -0.0011
19309W        W35203   0.386   5.549   1.198  0.1514 -0.3155  0.0680
19310W        W35204   9.437  14.054   4.495  0.1394 -0.0266  0.0726
19311W        W35205  10.180   7.342  14.485  0.0615 -0.1269 -0.1756
19312W        W35206   9.820   7.031  14.136  0.1427 -0.0343 -0.0958
19313W        W35207   6.280  12.448   0.816  0.0576  0.0944  0.0580
19314W        W35208   0.845  11.872   4.737  0.2634  0.3984 -0.3003
19315W        W35209  13.602  10.279   2.865  0.1517  0.0031 -0.0400
19316W        W35210  18.376  10.222   3.669 -0.3279 -0.0162 -0.0699
19317W        W35211   9.283   5.506  12.299  0.3778 -0.1714 -0.2512
19318W        W35212   0.975   3.244  14.430 -0.1066  0.1268 -0.2065
19319W        W35213   4.540  15.968   4.528  0.0680 -0.4013 -0.2314
19320W        W35214  10.020   2.723   5.429 -0.1288  0.2330  0.0727
19321W        W35215   3.925   0.805  14.491  0.3134 -0.2556  0.2026
19322W        W35216  14.914   5.547   5.729  0.4201 -0.1263  0.2967
19323W        W35217  11.147   8.632  14.717  0.0788  0.1465  0.0566
19324W        W35218  15.092  11.121  14.177 -0.2530 -0.0680 -0.1943
19325W        W35219   9.166  15.066   2.372 -0.3465 -0.1558 -0.0051
19326W        W35220  11.628  13.849  11.998 -0.0832  0.2832 -0.1465
19327W        W35221   0.550   0.981   0.412  0.1827 -0.1888 -0.2890
19328W        W35222  11.389   1.706  14.097 -0.0613  0.0623  0.1290
19329W        W35223   4.698  10.958   2.312 -0.1075  0.2264  0.0402
19330W        W35224  10.280  12.220  15.516  0.2671 -0.3088  0.2835
19331W        W35225   8.304   5.264  15.346 -0.2030 -0.0161  0.1545
19332W        W35226   4.202  13.975  13.423 -0.1078 -0.2534 -0.1878
19333W        W35227  13.048   4.021   4.827  0.3148 -0.2609 -0.1931
19334W        W35228   6.313   2.385   3.202  0.0270  0.0082 -0.2021
19335W        W35229  17.188  13.910  13.238 -0.4053 -0.1281  0.2434
19336W        W35230  13.384  10.222  16.020 -0.1244  0.1309  0.2831
19337W        W35231   4.676   1.982   3.605  0.0697 -0.1623  0.0252
19338W        W35232  11.151   9.976  13.463  0.0614  0.0723 -0.2014
19339W        W35233  11.725  12.152   3.260 -0.0225 -0.0708 -0.3219
19340W        W35234  16.113   9.367  16.061  0.0991 -0.3302 -0.0957
19341W        W35235   0.875   9.121   1.634 -0.1726 -0.1214 -0.0835
19342W        W35236   5.919  10.477   5.580  0.2596  0.1824 -0.2404
19343W        W35237   8.274  13.283   3.849  0.0965 -0.3376  0.1065
19344W        W35238   8.414   9.511   5.396  0.3258 -0.3531  0.1070
19345W        W35239   4.523   3.638   2.647 -0.1442  0.0834  0.3518
19346W        W35240  11.810   7.438  13.402  0.2249  0.2019 -0.0796
19347W        W35241  14.369   3.239   5.237  0.2668 -0.4564 -0.4443
19348W        W35242   4.279  18.053   2.397 -0.0363  0.1220  0.1265
19349W        W35243  15.710   2.215  10.519  0.3420 -0.3022  0.1895
19350W        W35244   0.535  16.601  12.134  0.0118  0.0836 -0.3052
19351W        W35245   8.082  16.497  13.392 -0.1808  0.2896  0.1971
19352W        W35246   1.935   1.820  11.562  0.0116  0.3273 -0.0489
19353W        W35247  12.485   4.314  15.461 -0.3729  0.0895  0.0136
19354W        W35248   2.883   7.819   3.032  0.1393  0.0880 -0.1909
19355W        W35249   8.550  15.351  15.100  0.0795  0.1140 -0.0218
19356W        W35250   2.182  17.679   5.118  0.1316  0.0435 -0.1064
19357W        W35251  11.195   5.775   3.009 -0.1038  0.1354 -0.3254
19358W        W35252   6.868   2.838  14.400 -0.2687  0.1327  0.2048
19359W        W35253  13.159   8.197  11.962 -0.0549 -0.4151  0.2480
19360W        W35254   4.077  16.796   3.544 -0.1297 -0.2176 -0.2996
19361W        W35255   0.804   2.872  12.502  0.1471  0.1449  0.1631
19362W        W35256  12.124   1.006   0.477 -0.1860 -0.0070 -0.0856
19363W        W35257  13.169   1.174   4.060  0.0112  0.1864 -0.1871
19364W        W35258   6.155  16.852   6.204  0.1035  0.0550  0.2789
19365W        W35259   7.732   3.413  14.593  0.2264  0.0069  0.0798
19366W        W35260  10.759   6.039  11.166 -0.1337 -0.2012  0.1866
19367W        W35261   4.125   7.508  12.420  0.2581  0.1039 -0.0443
19368W        W35262  15.894  16.734  15.219  0.1923 -0.1921  0.5590
19369W        W35263   3.094  18.215   3.754 -0.2007 -0.1674  0.0176
19370W        W35264  10.526   5.253   4.819  0.0636 -0.0216  0.2256
19371W        W35265  17.378  18.080   0.434  0.1449 -0.0665  0.1721
19372W        W35266  10.678  14.168   4.461  0.0098 -0.1427 -0.0531
19373W        W35267  14.959   0.721   4.621  0.2177  0.2270  0.1182
19374W        W35268   5.355  13.186  11.762 -0.1139 -0.1725 -0.1190
19375W        W35269  14.549  15.804   4.728 -0.2180 -0.4275  0.2512
19376W        W35270   7.752  14.719   0.618 -0.3218 -0.3483 -0.0760
19377W        W35271   4.289  12.600  13.019 -0.0485  0.2191  0.1513
19378W        W35272   7.806   3.736  15.488 -0.0404  0.2247  0.1038
19379W        W35273  13.337  12.312  14.481 -0.0056  0.0410 -0.1641
19380W        W35274   8.755  14.871  12.647 -0.0675  0.2937 -0.2685
19381W        W35275  12.061   2.893  15.908 -0.0185  0.0129 -0.1047
19382W        W35276   1.606   3.876  15.885  0.3014 -0.1220  0.0118
19383W        W35277   0.011   2.601   0.036 -0.0904 -0.1409  0.2142
19384W        W35278   4.274  16.732   2.117 -0.1333 -0.1802 -0.3545
19385W        W35279  14.660  14.067   4.223 -0.0710 -0.0680  0.2507
19386W        W35280   9.696   3.024  13.323  0.0679 -0.0233  0.2714
19387W        W35281   2.353  12.300   0.080 -0.2568  0.1613  0.2102
19388W        W35282  14.018   3.807   3.100  0.0856  0.2504 -0.0567
19389W        W35283   4.713  14.511  13.624 -0.2152  0.3242 -0.0702
19390W        W35284   7.200   5.371   5.793 -0.1605 -0.0717 -0.2398
19391W        W35285   1.764   7.571   5.218 -0.2407 -0.4963 -0.2051
19392W        W35286   0.214   4.879  12.865  0.2265  0.3717 -0.2219
19393W        W35287  11.006  12.650  14.338  0.1901  0.2428 -0.3115
19394W        W35288   1.772   1.375  12.012 -0.1194 -0.3277  0.1977
19395W        W35289   3.840   2.004   1.200 -0.0530  0.0343  0.1643
19396W        W35290  13.626   3.879  12.339  0.1231  0.2681  0.1566
19397W        W35291   6.439   0.389  14.602  0.1241 -0.3367  0.1269
19398W        W35292  12.871   4.679  14.619 -0.1634 -0.1930  0.1834
19399W        W35293   7.679   9.691   1.123  0.3142  0.1286  0.0975
19400W        W35294   6.654   1.705  10.829  0.1811 -0.0033 -0.2771
19401W        W35295  14.135  13.499   4.480  0.1078 -0.1786 -0.1062
19402W        W35296   2.562  12.123   1.834  0.3625  0.1081 -0.1399
19403W        W35297  10.700   2.608  14.105  0.0589 -0.2023 -0.1264
19404W        W35298  12.873   7.230  12.081 -0.2074  0.0031  0.0659
19405W        W35299  13.099   5.296   0.438 -0.0705 -0.0780  0.1459
19406W        W35300  15.384   1.559   0.868  0.4042 -0.0830 -0.0116
19407W        W35301   6.736   8.839  12.897  0.2116  0.0302 -0.1145
19408W        W35302   3.735   4.873  15.401 -0.1552 -0.2809  0.1178
19409W        W35303   4.377   9.975  13.808 -0.0622 -0.0062 -0.2554
19410W        W35304   0.643   4.933  15.999 -0.0475 -0.2917 -0.2850
19411W        W35305  10.620   0.373  10.812  0.1999 -0.2439 -0.2833
19412W        W35306   3.538  12.481  15.801  0.1527 -0.0898  0.3712
19413W        W35307   2.516   8.509  11.434  0.1661 -0.0979  0.0984
19414W        W35308  13.024   1.102   0.977 -0.3058  0.1201 -0.0883
19415W        W35309  16.924  12.924   1.481 -0.1219 -0.0946 -0.0299
19416W        W35310  18.207  10.605   0.103  0.0244 -0.1520  0.3822
19417W        W35311   0.938   6.967  11.898 -0.4072 -0.2712  0.0453
19418W        W35312   0.152   3.652   3.678  0.0756 -0.2956  0.2076
19419W        W35313  10.472  15.923   1.093 -0.0684 -0.0599  0.1945
19420W        W35314  11.024   1.596   4.429  0.1685  0.4411 -0.1773
19421W        W35315  10.646   4.566   2.295 -0.2417 -0.0767 -0.0591
19422W        W35316   5.324   3.638  11.978  0.2525 -0.0195  0.1070
19423W        W35317  16.892  12.595   3.675  0.2933  0.1277  0.2114
19424W        W35318  14.051  13.037   1.173  0.4394 -0.1325  0.0050
19425W        W35319   8.444   9.968   1.950 -0.1862 -0.0642  0.0238
19426W        W35320   5.005  16.439  11.897 -0.2117  0.0302 -0.0442
19427W        W35321  13.670  14.320   2.575  0.1092  0.1595 -0.0555
19428W        W35322   8.701   2.753   0.952 -0.1157  0.1263 -0.4934
19429W        W35323   1.109   2.870   5.502  0.0145  0.2690  0.1023
19430W        W35324  18.069   3.147  12.224  0.0537 -0.0864  0.1855
19431W        W35325   7.453   1.105   4.733  0.1371  0.1573 -0.3218
19432W        W35326   3.063   5.581   2.049 -0.0212  0.0053 -0.1119
19433W        W35327  14.187  14.460   2.758 -0.1019  0.1174  0.0024
19434W        W35328   2.342   8.110  13.172  0.1500  0.0144  0.1378
19435W        W35329  14.263  17.456  11.132 -0.1394 -0.0180  0.0744
19436W        W35330   6.991  10.793  13.264 -0.1849 -0.2524 -0.1262
19437W        W35331  11.631  13.314   4.309  0.3523  0.0896  0.0999
19438W        W35332   4.446  15.887   1.260  0.0342  0.1678 -0.1024
19439W        W35333   6.911   6.029  14.842  0.0970  0.1070 -0.0748
19440W        W35334   3.598   7.321   5.349 -0.1695  0.1246  0.2236
19441W        W35335   8.084   9.013  15.062  0.1353  0.3815 -0.2001
19442W        W35336   0.078   1.131  14.187 -0.0187  0.2897  0.1382
19443W        W35337  10.648  10.637   3.796  0.2999 -0.0095 -0.0095
19444W        W35338  10.802   7.161   2.285 -0.0876  0.1087 -0.3676
19445W        W35339   9.669   1.110  12.932 -0.0785  0.4323  0.1858
19446W        W35340  13.399   8.930  13.182 -0.1708  0.1267 -0.1366
19447W        W35341   7.308   4.883  13.616 -0.0612  0.2630  0.1075
19448W        W35342   5.752  14.453   0.370 -0.0108  0.1194  0.0344
19449W        W35343   5.983  15.799   3.471 -0.0602 -0.0275  0.1772
19450W        W35344  13.787  13.263   1.563  0.0393  0.2792 -0.1311
19451W        W35345   7.697  12.462   3.938 -0.0881 -0.1168  0.0039
19452W        W35346  16.083   8.975   3.219 -0.1031  0.0077 -0.0315
19453W        W35347  13.536  11.690  15.035 -0.0832  0.2530  0.1528
19454W        W35348   6.036   4.060  15.713 -0.0503  0.1716 -0.1753
19455W        W35349  11.466  10.423  11.026 -0.1240  0.0755 -0.0215
19456W        W35350   0.588  11.415  13.873 -0.0087 -0.0687 -0.0162
19457W        W35351  11.158  13.766  11.377 -0.2490 -0.0371  0.0508
19458W        W35352  16.164   7.235   0.344  0.1952  0.2029 -0.1198
19459W        W35353  15.640   6.091   5.748 -0.2571  0.2204 -0.0273
19460W        W35354  13.821  10.794   2.011  0.1052 -0.0969  0.3447
19461W        W35355  13.093  14.985   2.188 -0.0578  0.0268  0.0114
19462W        W35356  10.857   6.946   1.075  0.0243  0.2146  0.0129
19463W        W35357   7.686   9.427   2.783 -0.1469 -0.1325 -0.0422
19464W        W35358  11.799   8.125  13.416  0.2172  0.0962  0.0784
19465W        W35359  16.355  16.396  12.242  0.0823  0.1651 -0.0111
19466W        W35360   8.484   9.209  11.669 -0.3778  0.1190  0.2736
19467W        W35361   6.521  16.744  13.254 -0.1157 -0.0858  0.1194
19468W        W35362   5.721   2.785  11.809 -0.3414  0.1263 -0.0777
19469W        W35363  14.642  15.106  11.926 -0.0848  0.2105  0.3271
19470W        W35364   9.324  15.571   0.420  0.0356  0.0422  0.0408
19471W        W35365   4.359  16.668  10.889  0.2588  0.0548  0.0364
19472W        W35366   1.308  17.649   4.354  0.0666  0.0827  0.0509
19473W        W35367  14.897   8.834   1.886  0.1657  0.1509 -0.0162
19474W        W35368  14.810   4.930   3.737  0.2683 -0.1608 -0.2907
19475W        W35369   9.930   4.660  12.850 -0.0469  0.0418 -0.0220
19476W        W35370  18.117  15.501   1.134 -0.1843  0.1397 -0.3181
19477W        W35371   1.628  14.700   2.746  0.0906 -0.1190 -0.2789
19478W        W35372  11.523  10.059  11.348 -0.1024  0.1888 -0.1228
19479W        W35373  10.940   5.344   0.339  0.3003 -0.0813  0.0179
19480W        W35374  11.668  16.040   3.482  0.3561  0.0359 -0.2679
19481W        W35375   7.174  16.236   6.416 -0.0201  0.0752  0.0414
19482W        W35376   7.054   9.537  16.101  0.0516  0.0914 -0.0633
19483W        W35377   4.458   2.940  11.484  0.1391  0.1368 -0.1845
19484W        W35378   7.272  12.846  11.370 -0.0788  0.0002 -0.2321
19485W        W35379  10.657   3.635  11.373 -0.0591  0.3371 -0.1872
19486W        W35380  15.229  12.219   2.942 -0.4062 -0.2223  0.0609
19487W        W35381   9.302   2.321   5.048  0.0289 -0.5546 -0.3013
19488W        W35382   8.087  13.644  14.913  0.1645  0.4045  0.0823
19489W        W35383  14.342   9.231  15.432  0.0824  0.0235 -0.2521
19490W        W35384   5.091   8.216   1.975  0.1610 -0.2810 -0.0644
19491W        W35385   3.745   4.705   3.476 -0.1435  0.1854 -0.1043
19492W        W35386   6.221  17.418   2.358 -0.0464 -0.1873 -0.0181
19493W        W35387   6.049   3.928  14.695  0.0656 -0.1081  0.0772
19494W        W35388  12.865   1.984   0.678  0.1734 -0.1268 -0.2841
19495W        W35389  17.590   6.128   2.304 -0.1875 -0.0630  0.0495
19496W        W35390   1.853   8.476  13.416  0.2950  0.0394 -0.1235
19497W        W35391  12.368  15.709  11.971  0.1780  0.2052  0.4455
19498W        W35392  17.478   3.829   1.377 -0.2880 -0.1479 -0.0191
19499W        W35393  13.315   2.860  14.778 -0.0108  0.3284 -0.1600
19500W        W35394  15.969   8.969  12.882  0.2458  0.2567  0.0754
19501W        W35395   4.489  13.912  15.892 -0.1703  0.1186  0.0268
19502W        W35396   9.764  14.625   0.004  0.5433 -0.0266  0.4689
19503W        W35397  13.558   0.902  14.208 -0.6374 -0.1878 -0.4501
19504W        W35398   1.077  13.393   4.166 -0.2023 -0.2507  0.0863
19505W        W35399   5.332   0.081  12.974 -0.1939 -0.0654 -0.1383
19506W        W35400  12.751   2.102  15.222 -0.2069 -0.0313  0.1400
19507W        W35401   9.473   1.421  13.711  0.0353 -0.0315  0.1108
19508W        W35402  13.947  13.455   5.555 -0.2961  0.1415 -0.1094
19509W        W35403  14.759  17.922  13.568 -0.3595  0.2576  0.1178
19510W        W35404  12.155   9.959   4.787  0.1138  0.2958 -0.3654
19511W        W35405   6.886  10.617  12.012 -0.1113 -0.0878  0.0036
19512W        W35406   6.112   9.621  15.931 -0.1909  0.1653 -0.1066
19513W        W35407  17.734   7.622  13.165  0.2544 -0.0770  0.2439
19514W        W35408  13.414   9.156  16.013  0.1123 -0.1624  0.0530
19515W        W35409   6.159  12.032   1.012  0.2803  0.0342  0.1627
19516W        W35410   4.272  16.311   6.298  0.1542  0.0916 -0.0147
19517W        W35411   3.409   8.367   5.041  0.0022 -0.0618  0.0242
19518W        W35412   3.242  13.276   1.247  0.0022 -0.1106  0.0112
19519W        W35413  15.780  14.255   1.153  0.0556  0.0163  0.0653
19520W        W35414   5.096   2.149   2.474  0.0134  0.1418  0.2122
19521W        W35415   2.893   6.573   3.273 -0.1103 -0.1181  0.0029
19522W        W35416  16.347   9.529   4.688 -0.1409 -0.3786 -0.1343
19523W        W35417   1.163   2.478   3.750  0.1035  0.1513 -0.2256
19524W        W35418   3.012   5.643   0.577  0.0327  0.0722  0.0344
19525W        W35419   2.528   4.604  12.855  0.0345 -0.0474  0.1923
19526W        W35420   0.262   5.708   5.280 -0.4091 -0.0131 -0.0238
19527W        W35421  11.436   9.070  13.629 -0.3944 -0.3556  0.2494
19528W        W35422   3.439   3.281   5.260 -0.1013  0.1032  0.4087
19529W        W35423  16.792  13.077   3.298  0.0483 -0.2547 -0.0326
19530W        W35424   4.742   5.510  14.081 -0.2487  0.0220 -0.2370
19531W        W35425   4.036   3.321  13.036 -0.0714 -0.1473  0.1279
19532W        W35426  11.558   6.703   1.992 -0.4917  0.2390 -0.0287
19533W        W35427  14.296  16.891   4.520 -0.1028 -0.1671  0.0374
19534W        W35428   4.997  16.813   0.327  0.0322  0.2063  0.2379
19535W        W35429  17.936   7.031  11.885 -0.0310  0.2352  0.0496
19536W        W35430  15.530   9.958   2.036  0.1396  0.1643  0.3421
19537W        W35431  10.428   4.313  11.678  0.4572 -0.2275  0.1706
19538W        W35432   3.293   2.794   2.593  0.0004 -0.1220  0.0248
19539W        W35433   7.613   2.596   0.103 -0.2779 -0.0555 -0.0353
19540W        W35434   6.063   9.305   1.261  0.0656  0.0954 -0.1307
19541W        W35435   3.624  16.884   2.324 -0.2312  0.1714  0.1028
19542W        W35436   9.748   8.120   3.606 -0.2926 -0.2165  0.2482
19543W        W35437   3.847   6.324  13.678  0.0296  0.0156 -0.2749
19544W        W35438  15.527  11.359   2.544 -0.1513  0.1564 -0.1705
19545W        W35439   3.156   1.985   2.271 -0.0181 -0.1603  0.0210
19546W        W35440  14.216  11.202   5.329  0.0155 -0.2438  0.0133
19547W        W35441   6.217   7.650   1.422  0.0842 -0.0171 -0.1830
19548W        W35442  13.449   2.173  12.427 -0.1102  0.2310  0.0703
19549W        W35443  16.359  15.107   5.345  0.0093  0.0683  0.0791
19550W        W35444   3.210  10.109  14.133 -0.2006  0.0022  0.0518
19551W        W35445  17.123  13.604   1.076  0.3080 -0.0757  0.0734
19552W        W35446  15.295   6.173   1.587 -0.0340 -0.1188 -0.1331
19553W        W35447   2.699  13.865  15.961  0.2688 -0.2115 -0.3065
19554W        W35448  15.292   7.480   5.207 -0.0846  0.1734 -0.1545
19555W        W35449  15.696  11.257   0.280 -0.0192 -0.2279  0.0801
19556W        W35450   9.297  17.195  11.884 -0.1958  0.0513 -0.0491
19557W        W35451  15.486   3.484  15.060 -0.1168  0.1636  0.2121
19558W        W35452  14.154  10.693   3.481  0.1931  0.2998  0.0873
19559W        W35453   1.262  14.825   0.489 -0.0050  0.0890 -0.2294
19560W        W35454   1.557   6.086  14.337  0.1235 -0.1190 -0.0309
19561W        W35455   8.471   5.503  14.524 -0.1550  0.1709 -0.1305
19562W        W35456   0.255  16.523  11.492 -0.0490  0.1117 -0.1222
19563W        W35457   9.736  12.791   2.667 -0.0921 -0.1102  0.1465
19564W        W35458   8.589   8.490   1.798  0.1388 -0.0476  0.0092
19565W        W35459  17.690  15.871  14.377 -0.1020 -0.0934  0.1193
19566W        W35460  17.490  14.104   3.362  0.0523 -0.0631  0.3071
19567W        W35461  11.301  13.280  13.637 -0.1206 -0.1712 -0.0105
19568W        W35462  13.235   0.702  16.134  0.1248  0.1795 -0.0866
19569W        W35463   3.971  17.954   4.960  0.0853 -0.3657 -0.1186
19570W        W35464   1.545   1.694   5.152 -0.1067  0.5270  0.0533
19571W        W35465   6.210  15.696  12.281 -0.3039  0.0438 -0.1471
19572W        W35466  10.123   4.709   5.352 -0.2135  0.0250  0.0199
19573W        W35467  17.054   7.482   1.894  0.1600  0.1693 -0.1085
19574W        W35468   7.250   2.638   1.595 -0.1437  0.3079 -0.0515
19575W        W35469  14.382  16.164   0.134 -0.2044  0.1072  0.4698
19576W        W35470  13.182  13.295  14.379  0.2112 -0.4460  0.0531
19577W        W35471  17.836  18.046   3.972 -0.3327  0.0287 -0.1696
19578W        W35472  14.481  18.114  15.004 -0.0028  0.3120 -0.0563
19579W        W35473   9.612   6.111  14.254 -0.2004 -0.1275 -0.0617
19580W        W35474  11.103   8.395   0.027 -0.0080  0.2419  0.1354
19581W        W35475   3.488  12.976  15.439 -0.0753  0.0518 -0.2101
19582W        W35476  14.061  16.950  15.489 -0.1546 -0.1147  0.0206
19583W        W35477  15.071   7.351  15.238 -0.0402  0.0040 -0.1528
19584W        W35478   9.572   4.735   5.314 -0.3728 -0.1919 -0.0443
19585W        W35479  17.651   2.465   3.358 -0.0527  0.0335  0.1763
19586W        W35480   2.870   2.448  14.651 -0.0378  0.2913 -0.1547
19587W        W35481  17.710  13.469  15.378 -0.2603 -0.0272 -0.2460
19588W        W35482   1.371   5.873   2.231  0.4420  0.0415  0.0857
19589W        W35483  13.226  14.564  13.542  0.0145  0.3340  0.0856
19590W        W35484   1.122  17.114   5.174  0.2171 -0.0153 -0.3566
19591W        W35485   2.460  11.974   5.122 -0.1429 -0.0441 -0.0654
19592W        W35486  15.824  10.949  15.538 -0.1682  0.0350 -0.5028
19593W        W35487   4.487  11.311  13.812 -0.0004 -0.0454  0.1677
19594W        W35488  16.092   8.330   5.929  0.0103 -0.0458 -0.3295
19595W        W35489  17.593  17.661  15.769 -0.1561 -0.3636  0.0351
19596W        W35490   3.260  12.452  14.644  0.2795  0.1243 -0.0720
19597W        W35491  15.680  14.289  12.126  0.1686 -0.1084 -0.1388
19598W        W35492   4.255   8.042  11.681  0.2692 -0.0329 -0.0992
19599W        W35493   8.982  15.307   4.832 -0.0273  0.0893 -0.1101
19600W        W35494   0.534   2.530  12.716  0.3525  0.1130 -0.2362
19601W        W35495  18.136   3.553   2.799  0.1903  0.0860  0.2651
19602W        W35496   8.482   8.957  16.065  0.0802  0.1690  0.0594
19603W        W35497  18.230   5.331   2.311  0.0325 -0.3247  0.0394
19604W        W35498  11.253   8.176   4.251  0.0215  0.2455  0.2299
19605W        W35499   8.084  18.189   4.958  0.2958  0.0160 -0.1473
19606W        W35500   6.042   0.554   0.055  0.1883 -0.1070 -0.3677
19607W        W35501   2.263  11.405   2.366  0.2853  0.1076 -0.5018
19608W        W35502  14.666   1.506   0.298  0.3698 -0.0746 -0.0116
19609W        W35503  13.520   8.432  13.965 -0.0504  0.1123 -0.0988
19610W        W35504  12.642   4.647   2.897  0.0917 -0.1410 -0.0057
19611W        W35505   2.446   9.328  14.152  0.0443  0.0389  0.1892
19612W        W35506  13.537   8.553   4.058 -0.1609  0.0772  0.0701
19613W        W35507   7.434   7.542   5.894  0.3103 -0.1856  0.4081
19614W        W35508  12.391  12.848  14.063  0.1017 -0.0643  0.1504
19615W        W35509   9.096   5.149   4.058  0.1029 -0.0876 -0.0330
19616W        W35510   9.450   2.887   4.705 -0.2035  0.0416  0.2935
19617W        W35511   2.636  11.505   2.715  0.0582  0.1692  0.1561
19618W        W35512  18.187  12.246   0.922  0.1482 -0.4136  0.2001
19619W        W35513  12.876  17.057   4.219 -0.0578 -0.3459  0.2591
19620W        W35514  16.791  10.473   2.361  0.0297  0.1245  0.0278
19621W        W35515   8.437   0.808  15.830  0.0815 -0.1683 -0.0149
19622W        W35516   6.306   3.164   2.066  0.1559 -0.0962 -0.2117
19623W        W35517  18.028   4.811  13.470  0.1039 -0.0500 -0.3433
19624W        W35518   5.296   7.778   2.797  0.0933 -0.0909  0.0743
19625W        W35519   2.415   7.169   0.739  0.1462 -0.0125  0.1014
19626W        W35520  13.222   8.248   3.664  0.3574 -0.0408 -0.2332
19627W        W35521   6.688  16.747   3.521  0.3481  0.3320 -0.2509
19628W        W35522   8.067   2.962   3.625  0.1967  0.0246 -0.3729
19629W        W35523   0.102   3.791   0.642 -0.0670  0.2097 -0.1336
19630W        W35524   0.532  13.465   4.453  0.1984 -0.1026  0.0039
19631W        W35525   0.669   9.149   5.366  0.0168 -0.1178  0.1952
19632W        W35526   3.134   3.296  13.401  0.1254  0.1584  0.0660
19633W        W35527  14.311   3.161   1.018 -0.3259 -0.3463  0.1368
19634W        W35528   9.865   0.827   4.396  0.0169  0.3525  0.1840
19635W        W35529   8.850   8.846   5.122 -0.1501 -0.0410 -0.0934
19636W        W35530  12.521   9.555  15.540 -0.1931  0.0873  0.2583
19637W        W35531  17.645  18.295  13.665 -0.4760  0.1728  0.0297
19638W        W35532  15.338  13.391  15.702 -0.3183  0.2485 -0.1594
19639W        W35533  13.759   5.726  13.953  0.1212  0.0294 -0.0150
19640W        W35534   2.524  10.499  13.092 -0.0666 -0.1998 -0.0113
19641W        W35535   8.452   1.119   0.513 -0.4915 -0.1109  0.0205
19642W        W35536  16.181   2.113  15.869  0.1848 -0.1983 -0.2455
19643W        W35537   0.783   0.110  15.478 -0.0389  0.1570  0.0025
19644W        W35538  10.286   9.949   4.145  0.1606 -0.2235  0.1158
19645W        W35539   8.140   9.318   1.138 -0.0138  0.1302 -0.3512
19646W        W35540   1.883   9.568   3.443  0.2541 -0.0297 -0.0919
19647W        W35541  11.246   1.676  15.242 -0.2694 -0.1472  0.0539
19648W        W35542   5.845  17.877  14.574  0.5092  0.2399 -0.0751
19649W        W35543   1.384   6.486  14.924 -0.1503 -0.1422 -0.2384
19650W        W35544   5.123   5.786   4.228  0.1681 -0.1977 -0.0798
19651W        W35545   4.799   8.655   2.753  0.2575 -0.0655  0.0321
19652W        W35546  10.559   7.768   2.508  0.0241  0.1811 -0.1082
19653W        W35547  11.034   4.385   1.672 -0.0338 -0.2096  0.1893
19654W        W35548  16.303  17.415  15.185 -0.3533  0.1159  0.1381
19655W        W35549  14.511  13.394  13.222  0.0174 -0.0790  0.1854
19656W        W35550   3.262   7.701  15.858 -0.0012 -0.1436 -0.1831
19657W        W35551  13.409  12.984  12.391  0.1843  0.4602 -0.2919
19658W        W35552   1.553  12.976  15.902 -0.1036 -0.0627  0.0527
19659W        W35553  16.249   9.649   2.176  0.1725 -0.0444  0.0261
19660W        W35554   1.818  15.294  11.289 -0.0225 -0.1504  0.0341
19661W        W35555  18.381  10.675   4.173 -0.0488  0.3651  0.1334
19662W        W35556  13.378  11.382  13.219  0.0180 -0.2026  0.1281
19663W        W35557   5.829   6.557  15.733 -0.0954 -0.0363  0.3480
19664W        W35558  11.898   8.965  12.290 -0.1045 -0.0546  0.0701
19665W        W35559  14.154  11.599   4.592 -0.1684 -0.1104 -0.3506
19666W        W35560  17.319  10.173  14.443  0.0271  0.1580 -0.0008
19667W        W35561   4.003  14.145  11.358  0.1839  0.1611  0.0527
19668W        W35562   9.701  13.221  16.110  0.0328 -0.0416  0.1142
19669W        W35563   4.803  14.654  13.169  0.3558  0.0313 -0.2416
19670W        W35564  12.975  15.956  15.751  0.1809 -0.1936  0.0664
19671W        W35565  14.064  18.194  11.559  0.2380 -0.0384  0.2173
19672W        W35566   7.971   9.116  15.910 -0.4772  0.2155  0.2700
19673W        W35567   0.752  17.121   2.305  0.0443  0.0474 -0.4556
19674W        W35568  11.675  17.273   2.434 -0.1965  0.3528 -0.0553
19675W        W35569  12.486  16.782   3.293 -0.2100 -0.1064 -0.0011
19676W        W35570   8.190   8.133   0.303  0.2250  0.0157  0.0264
19677W        W35571  13.875   7.827  11.303  0.1442  0.2925  0.2176
19678W        W35572   3.726   1.277  10.931 -0.0446 -0.2336 -0.0499
19679W        W35573   0.269   9.513   2.652  0.0856 -0.5117  0.0666
19680W        W35574   0.844   4.322   1.532 -0.4012 -0.0705  0.2839
19681W        W35575   4.597   1.782   9.978  0.0309 -0.1369 -0.0217
19682W        W35576   1.197   2.515  15.055  0.1235  0.1041 -0.0101
19683W        W35577   4.025   9.117  14.273  0.0433 -0.1226 -0.3199
19684W        W35578   3.321   4.654  13.398 -0.0393  0.0278  0.2531
19685W        W35579   6.349   7.652  11.628 -0.1896 -0.4267  0.2078
19686W        W35580   3.881   6.055   3.054  0.1530  0.1840  0.0645
19687W        W35581   6.442  16.988   0.823 -0.1722  0.0594  0.2104
19688W        W35582  12.138   5.600   2.147  0.1329  0.0147  0.1290
19689W        W35583  14.830   2.015   5.765 -0.0448 -0.0723 -0.1868
19690W        W35584  17.316  14.099  14.117 -0.0842  0.0094  0.2010
19691W        W35585   4.872  13.465  14.935  0.1402  0.1645 -0.2827
19692W        W35586  11.202  17.999   1.438  0.4423  0.2280  0.2062
19693W        W35587  13.155   2.399  11.167 -0.0393 -0.1739  0.1184
19694W        W35588   1.161  12.067   1.592  0.3706 -0.0218  0.1768
19695W        W35589   3.467  14.556  11.896  0.0437  0.1809  0.0773
19696W        W35590   1.621  18.221  13.379  0.3507 -0.0434  0.1003
19697W        W35591   9.138   3.075   0.141  0.1590 -0.0140 -0.3267
19698W        W35592  14.674   3.862   3.782  0.0450 -0.1152  0.0186
19699W        W35593   8.329   3.327  14.667  0.0579 -0.0140 -0.0767
19700W        W35594  16.840  10.508  12.699 -0.1450  0.1956  0.0229
19701W        W35595   7.088  11.079  10.389 -0.0417 -0.2057 -0.2533
19702W        W35596   6.542   4.923  12.934  0.0603  0.3873 -0.1331
19703W        W35597  11.706   3.304  15.960 -0.3387 -0.0464 -0.1571
19704W        W35598  15.273   3.851  16.108  0.1625 -0.2043 -0.2545
19705W        W35599  18.381   8.060  15.232 -0.1907 -0.2956  0.0635
19706W        W35600  15.702   4.825   1.659 -0.2992 -0.1779 -0.3745
19707W        W35601  14.817   1.333   2.262 -0.0131 -0.2555  0.1020
19708W        W35602   1.102  16.367  10.897 -0.0683  0.4014 -0.0907
19709W        W35603  14.174  13.563   1.206 -0.0557  0.0897 -0.1383
19710W        W35604   3.217   2.281   5.286  0.0021 -0.1601  0.1614
19711W        W35605   5.802  17.095   4.300  0.0461 -0.1174  0.1891
19712W        W35606   6.406   5.576   1.246  0.5461  0.0182  0.0443
19713W        W35607   1.086   4.708  15.162 -0.0856 -0.1238  0.0487
19714W        W35608   9.357  14.575  11.293  0.2099  0.1046 -0.1693
19715W        W35609   1.293  14.180  14.244  0.1179 -0.2481 -0.0642
19716W        W35610  15.499  15.533  15.787 -0.3233 -0.1390  0.0595
19717W        W35611  17.179   7.595   6.163 -0.2787  0.4170  0.6535
19718W        W35612  16.698   6.853  14.077  0.1674  0.0702  0.0457
19719W        W35613  16.184  10.970   1.073 -0.1069  0.1393  0.4299
19720W        W35614   3.879  12.906   3.442 -0.1855 -0.0981  0.3598
19721W        W35615   9.739  13.037  15.564 -0.1459  0.2607  0.3651
19722W        W35616  11.074  11.385  11.761 -0.0027 -0.4169  0.0326
19723W        W35617  12.761   4.448   1.532 -0.1540 -0.0132  0.2699
19724W        W35618   1.032  10.023  14.227 -0.1738 -0.2398  0.0488
19725W        W35619  18.303   3.237  12.951  0.1164 -0.1415 -0.2380
19726W        W35620   5.961   1.838   1.888  0.0452  0.0874 -0.0864
19727W        W35621   0.701  18.135  13.250  0.0017 -0.1343  0.4589
19728W        W35622   5.141  15.852   3.830 -0.4459 -0.0760 -0.1485
19729W        W35623   4.689  17.240   0.471  0.2396 -0.0083 -0.0494
19730W        W35624   9.330  16.120   4.685  0.2416  0.1432  0.1141
19731W        W35625  16.680  14.464   3.810 -0.2273 -0.5057 -0.1599
19732W        W35626  11.768   5.711   1.803  0.0454  0.0115 -0.1608
19733W        W35627   9.141   3.379  15.910  0.0284 -0.0468  0.1857
19734W        W35628   2.860   1.104  13.020 -0.2382  0.0257  0.2907
19735W        W35629  12.020   1.921   0.341  0.2066 -0.0460 -0.2583
19736W        W35630   9.924  11.562  12.264  0.0042 -0.5274 -0.0731
19737W        W35631   4.703  15.725  15.868 -0.2187 -0.0768  0.1387
19738W        W35632   6.348  16.351  15.322 -0.0354 -0.0528 -0.1128
19739W        W35633   8.291   2.683  11.272  0.2815 -0.1217 -0.2147
19740W        W35634   1.925  12.314   3.860 -0.0564 -0.0371 -0.1607
19741W        W35635   1.856   4.658  14.075  0.0974 -0.0574 -0.1572
19742W        W35636  10.317  12.819  11.104  0.2556 -0.1304 -0.1465
19743W        W35637   7.866   3.768   2.695  0.0140 -0.4937 -0.2412
19744W        W35638   2.869   6.440   0.598 -0.2101 -0.1679 -0.0153
19745W        W35639   4.906   0.274   2.163  0.0462 -0.0139  0.0803
19746W        W35640  15.927  11.623   5.148 -0.0428  0.0256  0.1550
19747W        W35641   9.672  10.716   5.259 -0.2392  0.1633  0.2296
19748W        W35642   1.531  12.398  10.897 -0.1791  0.2649 -0.1464
19749W        W35643  12.523   2.261  16.033  0.2375 -0.1909 -0.1045
19750W        W35644  11.544   3.045   2.410  0.3596  0.3008  0.0406
19751W        W35645  10.105   9.282   1.073  0.0149  0.1154 -0.2732
19752W        W35646  18.031  15.941   2.900 -0.0558  0.4209  0.2012
19753W        W35647   4.808   5.294  11.991  0.1367 -0.1335 -0.1119
19754W        W35648   5.951  12.677  12.997  0.2846 -0.2424  0.2760
19755W        W35649  15.505   6.638   3.157  0.0743  0.2702  0.1409
19756W        W35650   0.533  17.467   2.710  0.0673 -0.1687  0.0375
19757W        W35651   4.448   3.336  14.624  0.1996 -0.0066 -0.3886
19758W        W35652  11.144   1.229   2.238  0.0110 -0.2470 -0.0771
19759W        W35653  11.019  11.569  12.817  0.1635  0.0802  0.0896
19760W        W35654   0.084   3.045   0.832 -0.0367 -0.0129 -0.1545
19761W        W35655  11.562   6.223  14.995 -0.1170  0.0516  0.0899
19762W        W35656  11.477  12.587   4.176 -0.4217 -0.2169  0.2562
19763W        W35657  12.890   3.307   2.126 -0.0383 -0.0968 -0.1336
19764W        W35658   2.499   3.211  12.646  0.2394  0.0632  0.0010
19765W        W35659  10.422   0.748   1.461 -0.0028  0.0653 -0.2123
19766W        W35660   0.609  10.300  13.442 -0.2793 -0.1802  0.0443
19767W        W35661  17.651   0.722   2.855 -0.0217 -0.1035  0.0225
19768W        W35662  11.274  15.138   3.236  0.2331 -0.0399  0.1653
19769W        W35663  15.889   7.836   4.885  0.1330 -0.0285 -0.0164
19770W        W35664   0.686   7.457   0.421  0.1699  0.0489 -0.3955
19771W        W35665   5.588  17.868   4.563 -0.0271  0.0114 -0.2114
19772W        W35666   2.046  17.063  12.645  0.0698 -0.1796 -0.0728
19773W        W35667   5.065  12.193   4.402  0.0169 -0.0069  0.3059
19774W        W35668  14.245   9.311  12.414  0.1557 -0.1267 -0.0091
19775W        W35669   2.179  11.412  14.893  0.2239 -0.2460 -0.1724
19776W        W35670   8.011  18.432  11.373  0.2352 -0.4110 -0.0282
19777W        W35671  16.218  14.522   3.593 -0.2418 -0.0590  0.2918
19778W        W35672  17.336  15.718   0.532 -0.1052 -0.0873  0.2095
19779W        W35673  12.764   8.728  16.084  0.0476  0.3568 -0.1835
19780W        W35674  16.245  15.089  14.744 -0.0286 -0.0093 -0.0306
19781W        W35675  13.429  10.070  12.178 -0.1033 -0.0908  0.0157
19782W        W35676   5.998  16.119   5.126  0.0591 -0.4239 -0.1550
19783W        W35677   5.627   9.331   4.760  0.2394  0.3495  0.1326
19784W        W35678   5.346  12.437  12.166 -0.3326 -0.1641  0.2011
19785W        W35679   6.889  14.445  14.665  0.1437  0.1075  0.1880
19786W        W35680  12.305  16.499   5.400  0.1457 -0.0614 -0.2709
19787W        W35681  16.196  13.760   2.646  0.0947  0.4263 -0.0470
19788W        W35682  12.886  10.088   4.828 -0.1197 -0.0304  0.0237
19789W        W35683   4.525   0.048   2.534 -0.1755 -0.0533  0.1661
19790W        W35684  11.156  10.478   5.958 -0.1481  0.2240 -0.0463
19791W        W35685   8.897   8.008   4.765 -0.0877 -0.2636  0.2131
19792W        W35686   3.699   9.733   5.272 -0.0448  0.2329 -0.4853
19793W        W35687  12.058   1.222  15.091 -0.0952  0.1466  0.0155
19794W        W35688   7.845   2.780   0.539  0.3772  0.2542  0.0770
19795W        W35689   0.832   4.652  12.138  0.0585  0.0245  0.0530
19796W        W35690   7.895   4.464  10.735 -0.2707  0.0231  0.0563
19797W        W35691   8.275  10.576  12.849 -0.3571  0.3060 -0.0085
19798W        W35692   9.566  18.107   3.993  0.0787  0.0646 -0.1991
19799W        W35693  12.883  16.318   0.363 -0.1128  0.1015  0.0685
19800W        W35694  14.230  15.430   2.922 -0.0752  0.1641  0.2140
19801W        W35695   1.459   5.585  14.218 -0.2266 -0.1700 -0.0815
19802W        W35696   9.450   7.195  13.834 -0.1176 -0.1090  0.1944
19803W        W35697   9.210   9.107  10.459  0.1421 -0.1246 -0.0739
19804W        W35698   1.512   7.289  12.810  0.1381  0.0244  0.0831
19805W        W35699   0.121   9.301   4.935  0.2824  0.0032  0.0448
19806W        W35700  10.744   1.609  13.855 -0.0184  0.2677  0.0282
19807W        W35701   2.943   5.310  15.370  0.1532 -0.0137 -0.1261
19808W        W35702   2.341  11.325   0.644 -0.5906 -0.2628 -0.1460
19809W        W35703   9.775  16.238   4.400  0.1610  0.3921 -0.0498
19810W        W35704   2.087   2.747   1.916  0.3229  0.0698 -0.1302
19811W        W35705   8.601  11.658  15.661  0.2732 -0.1305  0.1361
19812W        W35706  15.768  13.442  14.384  0.0311  0.2535 -0.0593
19813W        W35707   0.271  18.447  15.908 -0.0437  0.2866 -0.2901
19814W        W35708   4.622  10.732   0.994 -0.3832 -0.3125  0.1234
19815W        W35709   0.797   2.031   5.467 -0.1476 -0.1391  0.3584
19816W        W35710  13.434   0.317   2.097  0.0341 -0.1951 -0.1864
19817W        W35711  17.676   6.446   2.839 -0.1776 -0.0175  0.3231
19818W        W35712   3.714  14.185   4.296 -0.0633  0.1592 -0.0070
19819W        W35713   8.449   7.043  14.125  0.1574  0.2382  0.1011
19820W        W35714   8.435   0.475   3.714  0.0419  0.0413 -0.0363
19821W        W35715   8.908   0.082  15.573  0.3760  0.1780  0.1049
19822W        W35716   7.204  16.744   1.460 -0.0305  0.1819  0.2077
19823W        W35717   4.515   4.960   1.207  0.1388  0.2878 -0.2937
19824W        W35718  17.548   7.254   5.196  0.0889 -0.0851  0.0592
19825W        W35719  10.482   8.632  13.442  0.3037 -0.0647 -0.1207
19826W        W35720   2.210   5.480  11.624 -0.1479 -0.4282  0.2904
19827W        W35721   1.220   8.526   5.515 -0.0993  0.0269 -0.1764
19828W        W35722  14.984  13.124   4.598 -0.0729  0.2263  0.4290
19829W        W35723  13.510   3.456  12.706 -0.0444  0.0273  0.1349
19830W        W35724   3.303   0.583  12.311  0.0326  0.1194 -0.0258
19831W        W35725  16.515  12.668   2.417 -0.1444 -0.2516 -0.1478
19832W        W35726   4.070   3.217  13.531  0.2864 -0.1449  0.0656
19833W        W35727   4.046   2.492  12.231  0.0735  0.1594  0.1845
19834W        W35728  17.382   9.851  14.110 -0.1470 -0.0729  0.0240
19835W        W35729  16.299   1.676   2.530 -0.2618  0.0459  0.2710
19836W        W35730  13.095  16.223  12.488 -0.0657  0.2171 -0.1518
19837W        W35731  12.860   1.690  14.925 -0.1133  0.3689 -0.0873
19838W        W35732  15.442   0.421  12.678  0.0153 -0.0171  0.0096
19839W        W35733  17.232   2.377  15.775  0.1696  0.2411  0.1401
19840W        W35734  14.407   0.199   2.984 -0.0310  0.2994 -0.2925
19841W        W35735  12.125  14.647  14.434 -0.1524  0.4124 -0.0290
19842W        W35736   8.402  18.240   3.185  0.0918  0.2853  0.1530
19843W        W35737   4.409   7.092  12.597  0.0685 -0.0247 -0.1381
19844W        W35738   6.315  16.407   5.455  0.1495  0.1260  0.0027
19845W        W35739   9.720   2.161  12.153 -0.1103  0.0316  0.2417
19846W        W35740  16.113  16.201   4.935 -0.2142 -0.2172  0.3571
19847W        W35741   7.436   0.146  14.534  0.0075 -0.1947  0.0496
19848W        W35742  12.311   9.640   4.326 -0.0667  0.0807  0.2725
19849W        W35743   2.895  11.732  16.055 -0.0892 -0.0336  0.1587
19850W        W35744   3.148   8.943   2.819 -0.1249 -0.0158 -0.1349
19851W        W35745   5.800   1.795   5.322 -0.0882 -0.1064 -0.4387
19852W        W35746  16.532   2.860   0.447  0.0410 -0.1170  0.1707
19853W        W35747   5.661   6.915   6.143 -0.0904 -0.1949  0.0324
19854W        W35748  14.923  10.267  11.745 -0.2251 -0.0428  0.1970
19855W        W35749   0.710  14.425   4.637 -0.0335 -0.1318  0.1573
19856W        W35750  11.673   5.047   2.637 -0.1877 -0.0057  0.1050
19857W        W35751   6.976  11.190   2.950 -0.0032 -0.1739  0.0053
19858W        W35752   0.709   6.207   2.302  0.1272  0.1219 -0.1871
19859W        W35753  12.309   4.550  12.112 -0.3760 -0.4716 -0.0456
19860W        W35754   0.144   9.541  12.455 -0.1316  0.2371  0.0604
19861W        W35755   2.940   9.149  15.077  0.0224  0.0672 -0.1092
19862W        W35756   9.952  13.733   0.754 -0.2358 -0.0599 -0.1928
19863W        W35757  17.174  14.916   2.329  0.1015 -0.0117 -0.2277
19864W        W35758  16.238  13.245   1.357 -0.2124  0.0621 -0.1678
19865W        W35759   6.860  14.382   3.842 -0.0232 -0.0378  0.1149
19866W        W35760  13.234   3.027  13.766 -0.1089 -0.0672 -0.1596
19867W        W35761  18.056  12.111  13.426  0.1082 -0.3668 -0.1145
19868W        W35762  12.066  11.202   1.708  0.0081  0.0867 -0.0275
19869W        W35763  15.021  12.255  12.789  0.2137 -0.2925  0.2394
19870W        W35764   8.333  12.835   2.581  0.0182  0.0477  0.1620
19871W        W35765   9.348   2.472  12.235 -0.0097  0.0821  0.1296
19872W        W35766   5.143   7.921   4.011  0.0911  0.0232  0.1416
19873W        W35767  12.486  16.383  14.213 -0.0554 -0.0281 -0.1790
19874W        W35768  16.189   4.314  12.207  0.1084  0.0041 -0.1713
19875W        W35769  10.247  13.939   4.879 -0.0160  0.2473  0.0833
19876W        W35770   8.709  14.643  13.948 -0.3313 -0.1884  0.3487
19877W        W35771  12.599   8.124  15.973 -0.0225  0.3380  0.1200
19878W        W35772   0.251  12.327  13.676  0.0121  0.0757  0.0555
19879W        W35773  16.807  11.067   5.056 -0.0740  0.3141  0.1845
19880W        W35774   1.112  10.007   1.911  0.3629  0.4691 -0.0404
19881W        W35775  13.180  16.371  13.751  0.0026  0.0413  0.1591
19882W        W35776  12.470  17.534  12.558 -0.1400 -0.2346 -0.0247
19883W        W35777  17.103  14.570   5.991  0.0541 -0.1094  0.0055
19884W        W35778  11.936  11.504   4.380 -0.1313 -0.3894 -0.4384
19885W        W35779   6.897  15.348   0.671  0.0331 -0.1154 -0.0421
19886W        W35780   5.769   6.896  11.571  0.1874  0.2298  0.1344
19887W        W35781   7.575  12.680  10.981 -0.0853 -0.0799  0.0101
19888W        W35782   2.731  16.137   0.794  0.0673  0.0825  0.1177
19889W        W35783  10.797   6.780   2.622  0.2539  0.1357 -0.0201
19890W        W35784  14.222   1.129   0.880  0.1320  0.0435 -0.0994
19891W        W35785  13.349  16.253   3.041  0.2130 -0.1132 -0.2186
19892W        W35786  15.050  16.402  16.051  0.0196 -0.1943  0.1752
19893W        W35787   5.571  10.892  14.471  0.0716 -0.1401 -0.0421
19894W        W35788   1.269  16.957  12.764 -0.0018  0.0161 -0.0367
19895W        W35789  18.338   9.722  12.012  0.1439  0.1280  0.0166
19896W        W35790   8.199  15.504   3.254  0.0789  0.1860 -0.0125
19897W        W35791  11.153   4.652   3.793  0.0814 -0.2216 -0.2010
19898W        W35792  14.898   9.345  14.710  0.0167 -0.1396  0.1097
19899W        W35793   2.854  15.630  16.128 -0.0530 -0.2378 -0.2434
19900W        W35794   2.654   3.418   2.104  0.1059 -0.0590  0.0844
19901W        W35795  17.121   6.707  15.986  0.0510 -0.0505 -0.2415
19902W        W35796   4.104   9.828   4.499 -0.0020  0.2130  0.0574
19903W        W35797  12.607   8.907   2.263  0.0230 -0.0536  0.1156
19904W        W35798  16.615  10.474   2.951 -0.1100 -0.0533  0.2586
19905W        W35799   1.923   6.679   2.351  0.0509  0.2199  0.0466
19906W        W35800  10.539  10.607   5.185  0.2137  0.0988  0.2039
19907W        W35801  17.267   8.634  12.241  0.0922  0.1205 -0.0097
19908W        W35802   7.847   9.474  14.996  0.1901 -0.0690  0.0032
19909W        W35803  13.376   0.649  12.148 -0.0280 -0.1505  0.2230
19910W        W35804   2.756  13.885  14.004  0.3066 -0.1712 -0.3365
19911W        W35805  11.065   6.685   5.166 -0.0096 -0.1269 -0.0854
19912W        W35806   0.035  15.364  12.894 -0.0674 -0.2326 -0.1387
19913W        W35807   0.261   1.830  15.730 -0.3026 -0.0693  0.2863
19914W        W35808   9.905   1.400  13.497  0.2952  0.3793  0.0528
19915W        W35809   7.017  11.988  11.894 -0.1788  0.3793  0.2588
19916W        W35810   3.773   3.136  15.085  0.1611  0.1310 -0.0170
19917W        W35811  12.186  11.662   1.541  0.2766  0.1285 -0.0728
19918W        W35812   4.977   6.971  13.991 -0.2119 -0.1161 -0.0167
19919W        W35813   6.165  11.201  12.405 -0.1783 -0.0083 -0.2603
19920W        W35814  17.740   9.606  13.144 -0.1292 -0.1409  0.1799
19921W        W35815   0.330  11.464  14.266  0.1318 -0.1669 -0.1161
19922W        W35816   3.514   6.841   4.609 -0.2798 -0.2444 -0.0539
19923W        W35817  10.907  12.908  12.159 -0.2574 -0.1284 -0.1284
19924W        W35818   8.059   2.198  15.989 -0.0424 -0.5487  0.3133
19925W        W35819  15.982   2.477   0.221 -0.0791 -0.0627 -0.1420
19926W        W35820   2.883   1.979  14.286 -0.0261  0.0704 -0.1036
19927W        W35821   7.685   0.582  12.794  0.0990  0.1633 -0.0286
19928W        W35822  10.388  14.774   1.831  0.1946 -0.1023  0.1594
19929W        W35823   1.208  17.886  15.582 -0.0645 -0.0560 -0.0027
19930W        W35824   1.121   4.739   5.925  0.1694  0.2863  0.3645
19931W        W35825  10.586   6.289  12.589  0.1749  0.0633 -0.0359
19932W        W35826   8.285   2.131   5.784 -0.1691 -0.1741  0.0648
19933W        W35827  12.054   3.509  11.932  0.0406  0.1786  0.1571
19934W        W35828  10.540   6.956  15.344  0.1099  0.2130 -0.0451
19935W        W35829   8.839  10.624  15.472 -0.0270  0.0372  0.1753
19936W        W35830  16.204   5.522  13.123 -0.0839  0.1692 -0.1039
19937W        W35831  16.917  13.930   2.266  0.2226 -0.0851  0.3466
19938W        W35832  14.515   5.084   0.139  0.2119 -0.3281 -0.0480
19939W        W35833  11.724   1.955  12.520  0.1780 -0.0801  0.1245
19940W        W35834   6.747   1.054   0.484  0.0470  0.1535  0.0119
19941W        W35835  16.898  17.001  11.798  0.3115 -0.1842 -0.0026
19942W        W35836  15.187  16.704   6.292  0.1117  0.0439  0.1510
19943W        W35837   4.631  15.987   4.021 -0.1282 -0.0789 -0.1231
19944W        W35838   0.023  13.930  14.514  0.1574  0.2520  0.1227
19945W        W35839  15.663  13.864   3.192 -0.0905  0.2975  0.1468
19946W        W35840   5.072   9.138   0.949  0.0307  0.1606  0.1882
19947W        W35841   2.534   4.061  16.051  0.3232 -0.1524  0.4579
19948W        W35842   7.912   2.188   5.379 -0.1054 -0.3289 -0.0546
19949W        W35843  10.225   4.597   5.904 -0.1216  0.1951  0.1180
19950W        W35844  12.356  16.905  14.018 -0.1290  0.2789  0.0996
19951W        W35845   5.270   5.019  12.189 -0.0693  0.0381  0.2762
19952W        W35846   6.089   1.347   3.142 -0.3706 -0.4820 -0.0007
19953W        W35847   5.982   1.833  13.544 -0.1943 -0.0904  0.0076
19954W        W35848   9.417  17.271  13.778  0.1876 -0.2477 -0.2747
19955W        W35849   3.726  12.610   0.844  0.0305  0.4236 -0.0495
19956W        W35850  13.073  17.479   5.569  0.0972 -0.0315 -0.0283
19957W        W35851   4.397   4.935  11.053  0.2397 -0.1301 -0.0410
19958W        W35852  11.717  11.970   4.097  0.3371 -0.2760  0.1322
19959W        W35853  12.552   9.761  11.061  0.1808  0.0317 -0.2944
19960W        W35854  17.534   2.762   0.481 -0.1365 -0.0138  0.0095
19961W        W35855   9.285  17.105   4.590 -0.0354 -0.2587 -0.3110
19962W        W35856   6.038   1.213   1.416 -0.0705  0.0958 -0.0245
19963W        W35857  15.085  15.601   1.741 -0.1692 -0.2677  0.0834
19964W        W35858   8.952   4.396  15.802  0.1138 -0.0860 -0.0291
19965W        W35859   2.869  11.857   5.899 -0.1460  0.0561 -0.4318
19966W        W35860  12.328   4.529   3.683 -0.0940  0.1502  0.0538
19967W        W35861  11.974   8.689   3.117 -0.1590 -0.1642  0.2386
19968W        W35862  12.848   5.849  14.819 -0.2625  0.0210  0.2077
19969W        W35863   2.050  17.608  15.642 -0.0079  0.0484  0.1997
19970W        W35864   6.956   6.653   3.249  0.1538 -0.1244 -0.3785
19971W        W35865   4.283   8.160  15.952 -0.1107  0.0853  0.1185
19972W        W35866   9.451   8.862  14.535  0.2014  0.0013 -0.4003
19973W        W35867  17.672  15.479   5.804  0.3381  0.0799  0.0436
19974W        W35868  12.747   5.522  11.987 -0.0392  0.3518 -0.2742
19975W        W35869  10.289  11.738  11.880 -0.3249 -0.0351  0.2011
19976W        W35870  13.684   1.556   0.725 -0.1800 -0.2452 -0.3214
19977W        W35871   7.681  11.039  10.247 -0.3299  0.1503 -0.3200
19978W        W35872   1.412   3.914  14.739  0.1767  0.1663 -0.0833
19979W        W35873  15.566   2.078   4.110 -0.4404 -0.2404  0.2138
19980W        W35874   5.809  16.227  14.345  0.1278  0.2010 -0.0425
19981W        W35875   8.957  18.464   3.152 -0.2826 -0.1583  0.0204
19982W        W35876  11.079   8.744  13.724 -0.0451 -0.1289 -0.3777
19983W        W35877  18.086   0.347   5.784 -0.1232  0.1789 -0.0345
19984W        W35878  15.591  11.218  12.287 -0.2606  0.0974 -0.1701
19985W        W35879   3.657  17.393   0.696  0.2391 -0.0291 -0.0227
19986W        W35880  10.923  13.783  14.709  0.4562 -0.0132 -0.1313
19987W        W35881   0.345  17.551  15.273 -0.2295 -0.2630 -0.2228
19988W        W35882   4.761   4.721  15.165 -0.1176  0.3228 -0.2133
19989W        W35883   2.304  13.339   3.492  0.0620  0.0036  0.2572
19990W        W35884   1.660   2.098  13.311 -0.0878 -0.1413 -0.4982
19991W        W35885   4.337   5.300  12.749  0.4030  0.0246 -0.0437
19992W        W35886   2.247   2.268  12.681  0.0622  0.1155 -0.1438
19993W        W35887   1.632   0.541   5.208 -0.0556  0.1047  0.0703
19994W        W35888  17.780  18.389   4.946  0.4118 -0.2471  0.0206
19995W        W35889   2.911   7.858   1.117 -0.1301  0.1079 -0.1013
19996W        W35890  14.598   6.090  14.298  0.0215  0.1939  0.0061
19997W        W35891  17.105  13.361  12.264 -0.1144 -0.0096 -0.2009
19998W        W35892  14.222  14.173   0.414  0.0927  0.0320  0.2097
19999W        W35893  11.795   4.596  13.653  0.1651  0.1312 -0.0091
20000W        W35894  16.025   3.156  12.196  0.3158 -0.0624 -0.1374
20001W        W35895   6.793  16.261   5.446 -0.0728 -0.1732 -0.2025
20002W        W35896   6.096  16.502  11.346 -0.2800 -0.0764  0.2213
20003W        W35897  12.139  14.678   2.389  0.4205  0.3127  0.4099
20004W        W35898   7.799   8.714   5.109 -0.1195  0.1251  0.2675
20005W        W35899  13.905   8.070   3.846 -0.4679 -0.0663  0.0021
20006W        W35900   3.572  17.947   1.597 -0.1968  0.1569 -0.1032
20007W        W35901   3.319  16.847   4.975 -0.0363  0.1458 -0.0324
20008W        W35902   4.446   5.769  12.994  0.0603 -0.0806  0.0985
20009W        W35903  17.430  16.660   5.294 -0.1316  0.2829 -0.0753
20010W        W35904   3.575  18.142   3.043  0.2259  0.0709  0.0959
20011W        W35905   3.938  11.217  15.401 -0.0255  0.0171  0.1060
20012W        W35906   8.091   1.343   1.354  0.0359  0.1894 -0.0087
20013W        W35907   7.855  16.572  14.879 -0.0280  0.1582  0.3207
20014W        W35908  14.904  16.494  11.098 -0.0824 -0.0602  0.3738
20015W        W35909  17.250   7.215  14.077  0.1416  0.3924  0.1344
20016W        W35910   7.817  12.347  14.546  0.0496 -0.1712  0.1569
20017W        W35911  14.063   2.251   0.837  0.0555 -0.0503  0.0071
20018W        W35912   7.226  17.067  12.550 -0.0306  0.0133  0.0086
20019W        W35913  11.170  13.116   2.257 -0.1386  0.0906  0.0010
20020W        W35914   6.727  15.924  12.231  0.1206 -0.1803  0.0684
20021W        W35915   0.207  15.704   2.446 -0.0297 -0.3724  0.0180
20022W        W35916   4.175  17.131   5.299 -0.1349 -0.0271  0.2589
20023W        W35917   6.246   7.755   3.827 -0.0182  0.0531 -0.0108
20024W        W35918   6.222   8.018   2.964  0.0469 -0.0508  0.0543
20025W        W35919  15.873   0.025  11.457 -0.0928 -0.0844  0.0672
20026W        W35920  17.959  15.958   1.901  0.1005  0.0750  0.0262
20027W        W35921   6.466   0.071   4.560  0.0613 -0.0404  0.0437
20028W        W35922  16.409   0.560   5.102 -0.2873  0.3264  0.2711
20029W        W35923   4.071   7.074   2.554 -0.1631 -0.3270 -0.1861
20030W        W35924   5.869  10.603  15.131  0.3263 -0.1392  0.1665
20031W        W35925   0.019  10.587  12.877 -0.1156 -0.1866  0.0490
20032W        W35926  18.365  18.049  14.734  0.0001  0.1070  0.1547
20033W        W35927   1.026   6.279   4.839 -0.0221  0.0325 -0.2764
20034W        W35928   5.500  11.621  10.766  0.0160  0.3711 -0.2647
20035W        W35929   2.838   8.230  15.076  0.2318 -0.0679 -0.0058
20036W        W35930  16.579   0.761   4.482  0.3204 -0.0334  0.3556
20037W        W35931   6.204  10.648  12.690  0.0196 -0.4365  0.0501
20038W        W35932  13.367  12.721  12.838 -0.0503  0.0030  0.2328
20039W        W35933   4.307  17.100   2.628 -0.2060 -0.1425  0.0346
20040W        W35934   6.521  18.361  14.563  0.1008 -0.0138  0.2894
20041W        W35935   5.851  12.953  11.550  0.1039 -0.1030  0.2272
20042W        W35936   2.774   9.934   0.783  0.3458 -0.3141  0.0761
20043W        W35937  11.621  12.189  12.113  0.0382  0.2750  0.0324
20044W        W35938   5.735  14.701   5.491 -0.1143  0.0252 -0.1027
20045W        W35939  10.142   2.409  11.928 -0.1128  0.2393 -0.2614
20046W        W35940   5.087   2.741   0.628 -0.0310  0.0008 -0.0624
20047W        W35941   0.065  15.356   0.895  0.1005  0.0452  0.2342
20048W        W35942  14.605  10.049   4.383  0.4606  0.1066 -0.3145
20049W        W35943   9.714  11.814  15.311  0.1331 -0.0333 -0.3457
20050W        W35944   8.390   0.878  14.324  0.2272 -0.1554  0.1405
20051W        W35945  15.445   9.198  14.925  0.0294  0.2642  0.0431
20052W        W35946   6.804   7.181  14.995 -0.1180  0.0899 -0.2013
20053W        W35947   6.138   7.936  13.682 -0.0602  0.1908 -0.1887
20054W        W35948   4.799  16.379   3.768  0.1290 -0.0242  0.2199
20055W        W35949  11.180  12.874   3.860  0.0046  0.1713  0.2076
20056W        W35950  17.021   5.216   2.961 -0.0757 -0.0096  0.1807
20057W        W35951  12.407  16.295   3.419 -0.1413  0.0483  0.1467
20058W        W35952   8.668  18.018   0.918  0.1563  0.0995 -0.1226
20059W        W35953  12.519   3.904   5.654  0.0532 -0.0427  0.1853
20060W        W35954  16.032  10.117  11.878  0.1142  0.0022  0.0442
20061W        W35955   8.121   1.845  11.638 -0.0368 -0.4387  0.2063
20062W        W35956  13.661   7.140  15.363  0.0077  0.2086  0.1040
20063W        W35957   9.954   6.650  11.947 -0.0721  0.1190  0.0275
20064W        W35958  17.033   5.332   5.072 -0.2981 -0.2747 -0.1908
20065W        W35959   7.539  10.259  11.847  0.3066  0.1285 -0.0744
20066W        W35960  15.609   9.883  11.074  0.2182 -0.1177 -0.0135
20067W        W35961  14.680   8.645  13.237 -0.0392 -0.2256 -0.0052
20068W        W35962  12.809  12.146   2.169  0.0207  0.2107 -0.0534
20069W        W35963  10.594   5.966   2.489  0.0253  0.1341 -0.1736
20070W        W35964  11.598  14.809   1.761 -0.0259  0.0523 -0.0518
20071W        W35965   3.793  13.512  14.287 -0.1339 -0.1585  0.1911
20072W        W35966  13.405  15.946  16.052 -0.0776 -0.0652  0.0546
20073W        W35967  16.795  16.067  15.661  0.0176 -0.3283  0.0354
20074W        W35968   9.554  14.398  13.812  0.0939  0.2758 -0.1991
20075W        W35969  11.749  16.803   2.604  0.2971 -0.2730  0.1538
20076W        W35970  16.258  15.118   0.957 -0.0830  0.1336 -0.1033
20077W        W35971  11.410   9.594   4.131 -0.0744 -0.0755 -0.2428
20078W        W35972   1.076  18.441  13.566  0.1290  0.1194  0.1735
20079W        W35973  14.032   8.899   2.160 -0.0399  0.3365  0.0174
20080W        W35974   1.075  10.614   0.429 -0.1446 -0.2604  0.1032
20081W        W35975   0.250  13.010   0.943 -0.2046 -0.2251  0.2700
20082W        W35976  18.249   9.012  13.227 -0.0168  0.0186  0.1141
20083W        W35977   5.770   6.069  12.551  0.0209  0.0480  0.1671
20084W        W35978   2.426  14.998  12.501  0.1909  0.3546  0.2343
20085W        W35979  13.039  11.432  10.964 -0.0027  0.0782  0.1018
20086W        W35980  10.767   6.638  14.526 -0.0018 -0.0184 -0.0447
20087W        W35981  15.819   8.494  15.119  0.2693 -0.4301  0.2141
20088W        W35982   6.767   4.689   4.707 -0.0686 -0.1418 -0.1339
20089W        W35983  17.483  18.337  14.920  0.2164 -0.1123 -0.0140
20090W        W35984   2.016   3.392  15.613 -0.1804  0.0689  0.1821
20091W        W35985   3.474  14.817  15.176  0.0283 -0.3841 -0.1982
20092W        W35986   4.823   8.991   0.374  0.0028 -0.0751 -0.0767
20093W        W35987   2.817  18.346  10.742  0.0616  0.5088  0.0385
20094W        W35988  14.455  16.842   0.554 -0.2542 -0.1369 -0.2151
20095W        W35989   6.702   5.924   0.005 -0.0972  0.3518  0.1146
20096W        W35990  14.473  12.491  14.326  0.0655 -0.1542 -0.2105
20097W        W35991   9.908  15.409   2.586  0.0590 -0.3389 -0.0519
20098W        W35992  11.259   7.762  14.760  0.3217  0.0965  0.1217
20099W        W35993   7.372  14.653  11.178  0.3056 -0.0416 -0.0235
20100W        W35994   1.247   1.342  15.206  0.2110  0.2087  0.1813
20101W        W35995   5.549   5.456  12.739 -0.0200  0.1419 -0.2431
20102W        W35996  15.936   4.042   3.548  0.2273 -0.2485  0.0477
20103W        W35997  12.426   8.811  13.226 -0.0568 -0.0377  0.0868
20104W        W35998  13.920   7.894  15.375 -0.1575  0.0008 -0.1823
20105W        W35999   7.606  18.066  15.302 -0.1049 -0.0989 -0.0602
20106W        W36000   6.817  12.103  12.853  0.1421  0.0315 -0.3153
20107W        W36001  16.877  13.009  13.913 -0.3949 -0.1490 -0.1721
20108W        W36002  13.990   4.752   2.003 -0.0581  0.5178 -0.0968
20109W        W36003   1.326   1.125  13.844  0.1927  0.1238  0.1475
20110W        W36004   8.621  16.057  13.311  0.0193 -0.0220  0.2051
20111W        W36005   8.425   5.979  14.778 -0.0629  0.1127  0.2766
20112W        W36006   7.781   4.587   5.542 -0.1422  0.0078  0.4568
20113W        W36007   8.649   2.948  13.977 -0.3340 -0.1580  0.0191
20114W        W36008  12.572   5.772   1.965  0.1452  0.0256  0.1854
20115W        W36009   1.710  14.355  13.789  0.0783  0.1296 -0.0244
20116W        W36010  12.480   4.455  14.985  0.1208  0.0732  0.5273
20117W        W36011   0.073   9.051   0.737  0.3792  0.3063 -0.0358
20118W        W36012   0.238  14.266   3.383  0.0166  0.3493  0.0206
20119W        W36013   6.401   6.887  15.034  0.0706  0.0730 -0.3824
20120W        W36014  11.817  15.770   2.483  0.2111 -0.1359  0.0054
20121W        W36015  17.088   2.637  13.979 -0.0396  0.3010  0.0263
20122W        W36016   0.278  11.151  14.992 -0.0401  0.1150 -0.0662
20123W        W36017   1.022  10.070   6.153  0.0350  0.1363  0.0457
20124W        W36018  16.703   5.487  11.617  0.0771 -0.4624  0.2486
20125W        W36019   4.453  10.488  14.045 -0.2127  0.1717 -0.0462
20126W        W36020   6.108  12.275  11.761 -0.0023  0.4778 -0.0786
20127W        W36021  11.945   2.159  14.762  0.1467  0.1409 -0.1022
20128W        W36022  10.627  14.038   5.745  0.0544 -0.4181 -0.4224
20129W        W36023   8.341  12.357  12.200  0.1741 -0.0996 -0.0030
20130W        W36024  13.433   6.223   4.476 -0.1173 -0.1331 -0.1773
20131W        W36025  16.487  17.131  14.810  0.0257  0.1420 -0.1466
20132W        W36026  18.167  15.520  11.203  0.1657  0.0328 -0.2424
20133W        W36027   5.328  14.704  12.002 -0.0135 -0.5664  0.2963
20134W        W36028  18.408   6.443  15.296  0.1604  0.1271 -0.1719
20135W        W36029   5.284  11.967   5.393 -0.0211 -0.1522 -0.0718
20136W        W36030  17.836  12.314   3.689 -0.1437  0.2119  0.2508
20137W        W36031   2.324   5.835   4.531 -0.0188 -0.2108  0.0121
20138W        W36032  16.909  16.970   5.093  0.2666  0.0434  0.2494
20139W        W36033   9.098   2.070   4.023 -0.0878  0.3687  0.0452
20140W        W36034  15.901  15.775   4.974 -0.2138 -0.0760 -0.1134
20141W        W36035   6.377   1.301   0.146  0.1550  0.3370  0.0315
20142W        W36036  17.292   7.649  12.183  0.0415 -0.1653 -0.0085
20143W        W36037  12.996   9.596   3.729 -0.0598 -0.1326 -0.3030
20144W        W36038  12.511   2.019  12.594 -0.2315 -0.0142  0.0268
20145W        W36039  15.884   5.582  12.751 -0.1617  0.0573 -0.1349
20146W        W36040   0.088  16.680  13.620  0.1716 -0.1860  0.1121
20147W        W36041  13.605  10.697  12.322  0.1959  0.2095 -0.0382
20148W        W36042   5.953   4.821   3.395 -0.4301  0.4440 -0.0382
20149W        W36043  15.757  17.334   6.350  0.1457  0.1866 -0.0589
20150W        W36044   2.536  13.155  13.645  0.2154 -0.1403  0.0891
20151W        W36045   1.576   6.569  13.518 -0.0212  0.1392  0.3029
20152W        W36046   9.241  12.366   1.993 -0.1425 -0.3774  0.3281
20153W        W36047   9.722   0.824  14.711 -0.2006 -0.3300  0.1742
20154W        W36048   4.864  12.464  15.470  0.0065 -0.2419  0.2948
20155W        W36049  10.226   4.670  11.975  0.0636 -0.2696  0.1215
20156W        W36050  12.571   3.300   1.217 -0.2779  0.1263 -0.0931
20157W        W36051   4.794   4.354  14.763  0.0249  0.0384  0.0493
20158W        W36052  14.285   8.468   2.091 -0.3236  0.3170 -0.0636
20159W        W36053   2.511  17.587   3.614 -0.3139  0.0820 -0.0936
20160W        W36054  16.314   4.333  13.399  0.0522 -0.1242  0.2221
20161W        W36055  12.818   7.826  12.136 -0.2387  0.0339 -0.1126
20162W        W36056  14.619   3.204  12.254 -0.0009 -0.2594  0.2514
20163W        W36057  17.145  10.725  13.508  0.2534 -0.0475  0.0851
20164W        W36058   5.537  17.069   1.090 -0.0401  0.0092 -0.0643
20165W        W36059  13.936  10.055  11.910  0.1633  0.2429 -0.1941
20166W        W36060  12.070  17.949   4.025  0.1222  0.0740 -0.2516
20167W        W36061   2.841   1.278   5.152  0.0003 -0.0823  0.2127
20168W        W36062  13.411   8.020   0.077 -0.1794 -0.1881  0.3557
20169W        W36063   2.815   3.185   0.000 -0.2199 -0.0319 -0.0386
20170W        W36064   8.942   6.042   0.060 -0.0372  0.0135 -0.1032
20171W        W36065   2.123  17.017   0.165 -0.1646 -0.0954  0.2208
20172W        W36066  11.664  12.167  15.453  0.2850 -0.0276  0.0010
20173W        W36067  13.484   6.770  13.923  0.1896 -0.0114 -0.1970
20174W        W36068   1.277   0.025  11.794 -0.0217 -0.1566  0.2478
20175W        W36069  13.643   7.783   4.548  0.4219  0.1530 -0.1990
20176W        W36070  11.041   2.423   2.720  0.1424  0.5339  0.2624
20177W        W36071  16.703  18.242  15.296 -0.0556  0.1663 -0.0927
20178W        W36072   5.616   3.802  11.581  0.0610  0.0511  0.1593
20179W        W36073  10.310   7.227   4.975 -0.1829  0.1059 -0.1516
20180W        W36074   9.803   0.617  11.315 -0.0412 -0.0848  0.1450
20181W        W36075   4.646  10.974  14.165  0.0918  0.0904 -0.0568
20182W        W36076   1.874   0.671   4.289 -0.1047 -0.1957 -0.2217
20183W        W36077  12.697   0.764   4.480  0.0249  0.1321 -0.2678
20184W        W36078   0.524   0.380  14.577  0.0349 -0.0564  0.1418
20185W        W36079  17.112   2.885  15.552 -0.3180 -0.0151  0.3267
20186W        W36080  12.493   8.877  14.247  0.3598 -0.0209  0.2487
20187W        W36081  13.342   5.680  14.268  0.0986  0.0145  0.2730
20188W        W36082  15.789   0.044  14.518 -0.2586 -0.1994  0.0009
20189W        W36083   8.645   5.727   3.065  0.0410  0.0140  0.3482
20190W        W36084   6.138   2.014  11.970 -0.0190 -0.0271  0.2077
20191W        W36085   0.390   3.996   0.262  0.3350 -0.2385 -0.1746
20192W        W36086   5.518   8.308  15.456  0.0769  0.0355  0.0120
20193W        W36087  17.503  16.377  12.280  0.0350 -0.1531  0.1133
20194W        W36088  16.897   5.632  14.400 -0.3425 -0.1051 -0.2663
20195W        W36089   6.291  14.386   1.730  0.2321 -0.0335  0.1352
20196W        W36090  11.470   8.095  15.888 -0.1231  0.3042  0.1318
20197W        W36091  12.453  17.404  13.703  0.1034  0.1583 -0.0395
20198W        W36092   8.675   3.617  12.960 -0.0009 -0.1688  0.0388
20199W        W36093   1.989  12.222   1.035 -0.2197 -0.0569 -0.2091
20200W        W36094   9.294   8.163   1.931 -0.1911 -0.0784 -0.1257
20201W        W36095  12.353  16.407   1.706  0.0760 -0.0738  0.4974
20202W        W36096  11.562   6.457   4.294  0.1176 -0.2366 -0.0335
20203W        W36097  11.874  16.944  11.043 -0.1918 -0.1163  0.0767
20204W        W36098   2.456   7.784   2.484 -0.0501 -0.0204  0.4443
20205W        W36099   5.842   6.077   1.951 -0.3300 -0.0833  0.0714
20206W        W36100   7.508  14.795   1.591  0.0625  0.2359  0.0242
20207W        W36101  18.362   2.786   2.623 -0.0490 -0.0185 -0.2247
20208W        W36102   7.064   3.041   3.421  0.1102  0.3292  0.2443
20209W        W36103   0.002   4.253   0.451  0.0464 -0.0057 -0.0211
20210W        W36104  13.181   0.197   1.184  0.0303  0.1205  0.0326
20211W        W36105  14.323   8.664   4.833 -0.0020  0.4126 -0.3518
20212W        W36106  15.035  11.007  13.574  0.0555 -0.0509 -0.3002
20213W        W36107  12.585  14.961   0.737 -0.3011  0.0130  0.0899
20214W        W36108  12.947   3.772   2.681  0.2155 -0.0091 -0.0145
20215W        W36109  16.865  10.756  11.862 -0.2899  0.0057  0.2032
20216W        W36110  16.312   8.951   5.352  0.2412  0.4242  0.0839
20217W        W36111   7.934   3.056   0.062  0.0829  0.0541 -0.0018
20218W        W36112   0.161   5.421   2.675 -0.0837 -0.2830  0.1497
20219W        W36113   8.006  15.246  14.220  0.0943  0.1105 -0.0322
20220W        W36114   4.480  14.213   0.178  0.1648  0.1753  0.3427
20221W        W36115  13.299   8.885  14.909  0.1925  0.1924  0.0664
20222W        W36116  10.884  15.883  13.240  0.2306  0.1975  0.2620
20223W        W36117   6.544  14.495   3.394  0.2849 -0.1228  0.2361
20224W        W36118  16.962   1.630  13.715 -0.0982 -0.1168 -0.2038
20225W        W36119   9.008   4.973  13.448 -0.3942 -0.4250 -0.3673
20226W        W36120   1.810   3.338  13.613 -0.2682  0.0310 -0.2803
20227W        W36121   7.423   8.669   3.765  0.1335  0.0295 -0.1820
20228W        W36122   2.039  16.369  13.383 -0.0979 -0.1602  0.0484
20229W        W36123  15.166  13.699  11.464 -0.2634 -0.0088 -0.0064
20230W        W36124  12.664  14.205  10.853  0.1154 -0.0703 -0.2229
20231W        W36125   6.477   3.887   0.934  0.2971 -0.1835 -0.0204
20232W        W36126   4.672  13.881   4.166 -0.1741 -0.1694 -0.2963
20233W        W36127  13.641  14.709   4.993  0.1941 -0.1385  0.2409
20234W        W36128  16.264  16.468   0.775  0.2403  0.0213  0.0183
20235W        W36129   1.864   5.719  14.472 -0.0605  0.1369 -0.1661
20236W        W36130   1.407   4.079  13.895  0.3892  0.1201 -0.0051
20237W        W36131   9.872   0.141   1.747 -0.1444  0.1633 -0.0331
20238W        W36132   1.013   5.444   4.422 -0.1237  0.1950 -0.1429
20239W        W36133  12.736   1.477  15.968  0.2899 -0.2749 -0.1659
20240W        W36134  13.256   4.643  13.768 -0.2858 -0.1171 -0.2497
20241W        W36135   0.190   9.642  14.793 -0.3613 -0.1957  0.0555
20242W        W36136   9.810  17.274  10.324  0.2111  0.1738  0.5303
20243W        W36137   8.276   5.314   3.894 -0.0736  0.0552 -0.0981
20244W        W36138  17.548   6.005   0.724  0.0869 -0.0185  0.1516
20245W        W36139   8.343  11.899  13.777  0.0195 -0.2658  0.2293
20246W        W36140  12.471  11.082  13.277 -0.0027  0.0535  0.3255
20247W        W36141   9.478  10.608  13.672 -0.1197 -0.1697 -0.0623
20248W        W36142   9.821   7.049  12.229 -0.4120 -0.0881  0.2318
20249W        W36143  17.738   5.376   2.454  0.0166 -0.2587  0.1343
20250W        W36144  13.885  14.271   0.785  0.0086 -0.0397  0.3156
20251W        W36145   9.932   1.075   0.774 -0.1173 -0.0997  0.1330
20252W        W36146  11.495  11.687  15.712 -0.0575 -0.2036 -0.1964
20253W        W36147  16.308  12.927  13.877  0.0830 -0.1161  0.1082
20254W        W36148   1.758   7.429   1.958 -0.0081  0.1818 -0.2155
20255W        W36149   9.827   1.183  12.333  0.3727 -0.2330  0.3263
20256W        W36150   4.263  15.541   0.483  0.3245 -0.1747  0.1685
20257W        W36151   1.874   8.186  12.308 -0.1738  0.0646  0.0333
20258W        W36152   1.846  18.308   4.598  0.3261  0.0767 -0.2832
20259W        W36153  12.249   5.521  12.181 -0.0163  0.2395  0.2301
20260W        W36154   9.382  18.360   4.434 -0.0931 -0.1216 -0.2046
20261W        W36155   0.697   5.333   5.622  0.0034  0.1845  0.1230
20262W        W36156   5.666   2.134  11.265  0.1284  0.0993  0.0857
20263W        W36157   5.886  13.928  12.869  0.0334 -0.0425 -0.0664
20264W        W36158   4.124  17.308   3.082 -0.2999 -0.1157 -0.2567
20265W        W36159  16.391   5.701   2.501  0.1079  0.4292 -0.4936
20266W        W36160  17.266   6.135   3.614 -0.0836 -0.1721 -0.1841
20267W        W36161  10.475   8.222  13.848  0.3821  0.0965  0.2433
20268W        W36162   1.086   0.715  16.027  0.3140  0.0318  0.2529
20269W        W36163   8.563   3.709   1.525  0.4230 -0.2350 -0.0584
20270W        W36164  10.092   1.533   0.872  0.0108 -0.1659  0.3796
20271W        W36165  15.794  13.523  15.332  0.2833  0.0254  0.0780
20272W        W36166  14.447   8.485  14.354 -0.2006 -0.1683 -0.1071
20273W        W36167  18.312   7.093   5.069 -0.2687  0.0843 -0.2306
20274W        W36168   3.144  17.750   5.581  0.1773 -0.1914  0.1476
20275W        W36169  12.537  16.983  14.485 -0.1128  0.2469  0.0433
20276W        W36170   7.309  15.584   3.487 -0.1128  0.0407  0.4045
20277W        W36171  16.718  12.326   4.711  0.2554  0.1345 -0.3024
20278W        W36172  15.960   4.086  12.635 -0.2021  0.1913 -0.2292
20279W        W36173  17.864   0.482  15.694 -0.0616 -0.2265  0.0907
20280W        W36174   9.820  11.957  13.047 -0.0585  0.0743 -0.1377
20281W        W36175   5.557  15.316  11.223 -0.0329  0.1393 -0.0730
20282W        W36176  16.051   7.434   2.219 -0.0604 -0.0837 -0.3506
20283W        W36177   2.844  17.452   1.252  0.0424 -0.1351  0.2460
20284W        W36178  13.149   9.976   2.021 -0.1996 -0.2385  0.2451
20285W        W36179  12.275   5.695  14.911 -0.1584 -0.1043  0.0151
20286W        W36180  11.733  12.758   0.836  0.4232  0.1129  0.0196
20287W        W36181  10.582  12.446  14.560 -0.1479  0.0352  0.1454
20288W        W36182  12.749   0.261   0.432 -0.1510  0.0353 -0.2380
20289W        W36183   6.498   0.853  15.469  0.0174  0.0181  0.1839
20290W        W36184  17.910  14.975  12.110 -0.1152 -0.0097  0.0318
20291W        W36185   2.631  14.170   5.071 -0.2029 -0.1235 -0.3507
20292W        W36186  17.092   6.107  12.021  0.1922 -0.2079 -0.1275
20293W        W36187   9.381  13.621   4.992  0.2237 -0.1944  0.1428
20294W        W36188   4.285  14.898   3.194  0.1191 -0.0602  0.2073
20295W        W36189  13.962   4.525   1.055 -0.0389 -0.1217 -0.0639
20296W        W36190   0.778   2.644  13.758  0.2030  0.0386 -0.0424
20297W        W36191   5.146  13.846   3.794  0.0357  0.4676  0.3010
20298W        W36192  13.920  10.970   2.497  0.1620  0.0771  0.0023
20299W        W36193  11.985   0.330   3.835 -0.6101  0.2547  0.2424
20300W        W36194   8.660   8.045   3.519  0.0108 -0.1853  0.0707
20301W        W36195   1.660   1.844   4.662  0.1597 -0.1209 -0.2234
20302W        W36196   1.857   0.764  14.797  0.0056  0.1388  0.1336
20303W        W36197   2.819   7.145  15.009  0.1157  0.0526  0.1736
20304W        W36198  12.493  15.197  15.438  0.0846  0.0274  0.1120
20305W        W36199  13.686  14.824  12.222 -0.1298  0.3252  0.0893
20306W        W36200   2.101  18.414   0.484  0.2556 -0.1993 -0.0279
20307W        W36201   0.993   3.840   1.692  0.1639 -0.2516  0.0395
20308W        W36202   1.105   4.270  13.428 -0.1645  0.2234 -0.1254
20309W        W36203  15.240  14.988   1.118  0.0202  0.2400  0.0756
20310W        W36204  14.377  12.090  13.346 -0.0793  0.2013  0.1869
20311W        W36205  16.990  10.084   5.696 -0.2083 -0.0247 -0.0838
20312W        W36206   5.370   2.131  15.032  0.3689  0.2724 -0.1236
20313W        W36207   9.169  10.948   1.261  0.1152 -0.2846 -0.0977
20314W        W36208   0.658   2.763  11.402  0.0431  0.0926 -0.0278
20315W        W36209  18.173   3.788  14.375 -0.0789 -0.1893  0.2293
20316W        W36210   1.146   9.881  13.364  0.0272 -0.2585 -0.0191
20317W        W36211   7.618   9.759   3.248  0.2209 -0.1322  0.1301
20318W        W36212   7.381   8.823  14.108 -0.2464  0.1055 -0.0873
20319W        W36213  12.000  12.120  15.087  0.1784  0.2156  0.0243
20320W        W36214   0.416  18.239   0.710  0.0252  0.2029 -0.0434
20321W        W36215  16.660   5.696  13.935  0.0649 -0.0114  0.0205
20322W        W36216   9.427   6.954  16.059 -0.0803 -0.0677  0.1699
20323W        W36217  11.904   3.191   3.673  0.0930 -0.1129  0.1439
20324W        W36218   6.855   1.710   1.017  0.2971  0.1414 -0.2122
20325W        W36219  10.688   4.315  13.798 -0.2628  0.1216  0.0572
20326W        W36220  13.865  17.242   3.226 -0.0918 -0.2766  0.0477
20327W        W36221   6.886  15.951  13.910  0.0607 -0.1694  0.0320
20328W        W36222   3.151   2.406  12.250  0.2233  0.0295  0.2587
20329W        W36223  15.159   4.108   4.602 -0.0103 -0.0463  0.0732
20330W        W36224  10.827   7.195  13.616 -0.0509 -0.1524 -0.0185
20331W        W36225   0.746  14.414   2.883 -0.0030  0.1711  0.0242
20332W        W36226  12.060  13.673  12.327 -0.0135 -0.0029  0.1384
20333W        W36227   7.527   1.092   0.555 -0.0527 -0.5178 -0.0897
20334W        W36228  14.726   6.796   4.925  0.0436  0.1838  0.2383
20335W        W36229   1.077  12.775   1.728  0.3821 -0.2420 -0.0257
20336W        W36230   5.642  14.382   5.098  0.1307  0.1971 -0.1783
20337W        W36231   6.722  11.678   4.819 -0.1623 -0.4879  0.1389
20338W        W36232   5.203   7.467   3.788  0.0113 -0.1976 -0.1298
20339W        W36233   2.216  13.554   3.069 -0.0219 -0.1411  0.1611
20340W        W36234   8.655  11.773   0.375 -0.1071 -0.1364 -0.0925
20341W        W36235   8.977   6.560  16.055  0.0157  0.1886 -0.4909
20342W        W36236  16.425   1.228   2.248 -0.1422  0.3402  0.1729
20343W        W36237   8.583   8.024  11.214  0.0708 -0.0763  0.0358
20344W        W36238  15.151  15.733   0.471  0.0015  0.2594  0.0030
20345W        W36239   7.498  14.791   3.188  0.0092  0.2050 -0.3138
20346W        W36240   1.962  16.896   0.975 -0.0557  0.0640  0.0431
20347W        W36241   0.059  14.469   5.291 -0.1310  0.2024  0.1332
20348W        W36242   4.195  13.928  10.359  0.1904 -0.2080 -0.0718
20349W        W36243   9.027   3.743  14.381 -0.2638 -0.1596  0.1090
20350W        W36244   2.013   1.058  10.991 -0.4929  0.2298 -0.0317
20351W        W36245  18.261   5.663   0.173  0.0668 -0.1382 -0.0270
20352W        W36246   0.898   7.158  13.071  0.0231  0.0474  0.0060
20353W        W36247  12.526   0.998   3.165  0.1005  0.1593 -0.4251
20354W        W36248  13.532   9.979  14.168  0.0923  0.0694  0.2287
20355W        W36249   6.200  12.798   3.314  0.3865 -0.0195  0.1363
20356W        W36250  17.990   4.029  12.567  0.0095  0.1603  0.4095
20357W        W36251   9.324   9.755  11.064  0.0188  0.0875 -0.0364
20358W        W36252   0.786  15.902   2.120  0.0075 -0.1384 -0.0867
20359W        W36253   9.863  18.445   4.287  0.0089  0.2346 -0.3075
20360W        W36254   2.435  13.939  13.223 -0.2150  0.0269  0.0403
20361W        W36255  16.045   6.130   4.574 -0.7824  0.2517 -0.2403
20362W        W36256  12.076  16.104  14.289  0.0027 -0.1267 -0.0048
20363W        W36257  10.123   4.893   2.041  0.0662  0.1226 -0.1997
20364W        W36258   4.085  15.042   1.559  0.0291  0.1638  0.0944
20365W        W36259  17.220   6.040   2.643 -0.0868 -0.0331 -0.1667
20366W        W36260  10.327   1.036  12.359  0.2548  0.0544  0.0678
20367W        W36261   4.348  14.881  12.360  0.0304 -0.5675  0.0615
20368W        W36262  17.163   8.435  12.936  0.0204  0.1326  0.0722
20369W        W36263   4.444   1.445   2.092  0.1249 -0.3009  0.0071
20370W        W36264   6.505   7.064  12.686 -0.0750  0.0826 -0.2562
20371W        W36265  11.121   3.613  11.548 -0.0910  0.3237  0.1415
20372W        W36266   8.550  13.828  13.370 -0.0193  0.0684  0.2624
20373W        W36267   0.553   0.147  13.122 -0.1009 -0.4593  0.1595
20374W        W36268  14.202  12.152   3.002 -0.0896  0.0607  0.3282
20375W        W36269   2.234   5.732   3.211  0.0026  0.3641  0.1483
20376W        W36270   8.522  12.219  14.325 -0.0064 -0.3131 -0.0971
20377W        W36271   1.979  15.303  15.573  0.2176 -0.1975 -0.1969
20378W        W36272   0.219  11.557  14.716  0.0281  0.1115 -0.3249
20379W        W36273  10.472   6.461   2.284 -0.0441 -0.1248 -0.1087
20380W        W36274   9.726  13.843   0.345 -0.0707  0.1399  0.3399
20381W        W36275   2.670  12.983   5.438 -0.1186  0.2172  0.0711
20382W        W36276   0.412  16.908  15.210  0.1165 -0.0421 -0.0655
20383W        W36277  13.178   5.799  13.288 -0.1263 -0.4585  0.0095
20384W        W36278   4.398  15.466  11.182  0.0215 -0.1094  0.0354
20385W        W36279   0.937   1.208   0.802 -0.2914  0.0781  0.0879
20386W        W36280  12.086   2.321  12.670  0.4169  0.2942  0.0576
20387W        W36281  11.963   0.611  11.278 -0.3099 -0.0761  0.2887
20388W        W36282  16.065  14.528  14.994 -0.0132  0.1734 -0.0025
20389W        W36283   3.795   7.983   1.100  0.3106 -0.2765 -0.1465
20390W        W36284   2.113  18.040   1.423 -0.2073  0.0928  0.2663
20391W        W36285   9.734  10.009  13.735  0.4416  0.1529  0.2284
20392W        W36286   7.323   8.028  13.469 -0.3383  0.0556 -0.0696
20393W        W36287   1.566   9.522  12.117  0.0880 -0.2517 -0.4308
20394W        W36288  10.319  10.677   4.687  0.0534  0.1568  0.1614
20395W        W36289   5.663   5.069  14.665  0.0680  0.0045  0.2038
20396W        W36290  12.873   4.178  14.687  0.6371 -0.1785  0.3817
20397W        W36291   5.154   2.519   0.233  0.1571 -0.1774  0.2522
20398W        W36292   5.852   2.827   1.968  0.0870 -0.2112  0.1713
20399W        W36293  11.797  13.942   1.325 -0.1507  0.3524  0.0912
20400W        W36294   8.124   2.766  13.453 -0.1242  0.0146  0.1338
20401W        W36295  10.835  15.234  14.824 -0.0643 -0.0605 -0.0617
20402W        W36296   0.513   6.687   4.064  0.1553  0.0568  0.2951
20403W        W36297   0.729  17.296   0.426 -0.2004  0.2724 -0.2915
20404W        W36298   3.963  16.586  14.557  0.2468  0.0245  0.0396
20405W        W36299  12.919  12.860  12.614 -0.0037 -0.1656  0.1661
20406W        W36300  12.577  14.052  14.545  0.1295  0.0601 -0.0278
20407W        W36301   2.911   3.657   4.371  0.0790  0.3944 -0.1656
20408W        W36302  13.793   2.790  11.770  0.0592 -0.0814  0.1529
20409W        W36303   2.005   2.809   3.677  0.3371 -0.0402  0.0971
20410W        W36304  13.683   7.046   6.320 -0.0368  0.2003  0.0624
20411W        W36305   4.783   1.182  11.765 -0.1439  0.3202  0.1045
20412W        W36306  13.036   6.260  13.528 -0.2790  0.1091 -0.1481
20413W        W36307  17.056   4.135   4.070 -0.3207  0.0175 -0.0028
20414W        W36308   4.818  14.794  14.035 -0.1286  0.0439  0.1482
20415W        W36309   1.430   9.338   5.681  0.1511 -0.4495  0.0712
20416W        W36310   8.259  14.944  15.294 -0.1275  0.1353 -0.1092
20417W        W36311   6.893   6.717   0.469  0.3738 -0.1709  0.1127
20418W        W36312   5.126   7.173  14.423 -0.2236 -0.2049  0.3009
20419W        W36313   4.385   9.886  11.756 -0.0087  0.1023  0.0221
20420W        W36314  11.174  12.228   2.431  0.1836  0.1915  0.2647
20421W        W36315   4.447   1.978  11.499  0.3067  0.0300 -0.2763
20422W        W36316  13.597  11.882  15.521 -0.2427  0.0904 -0.0463
20423W        W36317   1.475   7.564   2.674 -0.2946  0.0423  0.1502
20424W        W36318   6.647  15.971  14.904  0.3367  0.0315  0.1021
20425W        W36319   0.930   9.878   3.221 -0.2014  0.0741  0.2202
20426W        W36320   3.316  18.039  14.405 -0.1778 -0.4118  0.1742
20427W        W36321   7.816  15.245  10.585  0.1853 -0.0452  0.0070
20428W        W36322   3.642   1.349  13.225 -0.0410  0.4041 -0.0218
20429W        W36323  18.386   9.870  14.039 -0.0878 -0.1099  0.0169
20430W        W36324  17.716   9.215   0.307 -0.1470  0.1265  0.0933
20431W        W36325   0.561   9.410   3.627  0.2658  0.2273 -0.0136
20432W        W36326  15.450  13.243  13.626 -0.2082 -0.3471 -0.0607
20433W        W36327   7.543  12.715  14.740 -0.2112 -0.0190 -0.0789
20434W        W36328  16.821   0.040   5.126 -0.0774 -0.1445 -0.0712
20435W        W36329   9.093  16.995   3.646  0.5798 -0.2939  0.3294
20436W        W36330  16.515   0.112   4.666 -0.0562  0.2678  0.4714
20437W        W36331  17.850   4.897   2.527  0.1050 -0.0657  0.1013
20438W        W36332   9.992   9.438   0.627  0.1665  0.1009 -0.0059
20439W        W36333   4.049  17.507  12.035  0.2437 -0.2680 -0.2256
20440W        W36334  14.411   3.072  10.688  0.3092 -0.0928 -0.0106
20441W        W36335  10.945  14.871   1.101 -0.1129  0.0978  0.0562
20442W        W36336  13.649  13.627  14.432 -0.0258  0.0047 -0.0468
20443W        W36337  12.960  13.520   2.084 -0.3737 -0.0519 -0.0701
20444W        W36338  15.197  10.658  13.857 -0.0750  0.0618  0.1827
20445W        W36339  10.838   2.474   4.498 -0.1246 -0.1793  0.1238
20446W        W36340   4.457  17.713  13.623 -0.1228 -0.0268  0.0085
20447W        W36341  13.540  12.100   0.595 -0.0112  0.3285 -0.1122
20448W        W36342   0.655   7.845   4.160  0.1307  0.0664  0.1762
20449W        W36343   3.554   4.468   4.428  0.2074  0.1429  0.1428
20450W        W36344   0.035  12.988   1.824 -0.0487  0.6240 -0.1537
20451W        W36345  10.238   0.451  11.604 -0.0010  0.1731 -0.2373
20452W        W36346   8.835  14.612  11.513 -0.0607 -0.1690 -0.3330
20453W        W36347  10.641   1.345  14.745  0.0564 -0.2705 -0.2994
20454W        W36348  18.298   9.742  15.784 -0.2042 -0.3395 -0.1567
20455W        W36349  17.864  17.299   4.994  0.0538  0.0073 -0.0322
20456W        W36350   3.689  11.823  11.354 -0.0384 -0.1768  0.0742
20457W        W36351   2.081  17.494  15.058  0.2223  0.2804 -0.0894
20458W        W36352  15.381   0.640   3.440  0.1994  0.2550 -0.2290
20459W        W36353   9.029   4.527   4.610 -0.1195 -0.0353 -0.1396
20460W        W36354  16.959   8.605   4.921  0.0130  0.1120  0.1786
20461W        W36355   7.360   4.526  11.430  0.3297 -0.0824 -0.0607
20462W        W36356  17.130   7.524   2.490 -0.0466  0.0006  0.0127
20463W        W36357   5.263   6.900  12.985  0.1584 -0.0891 -0.0668
20464W        W36358   9.632  10.504   4.034  0.0974 -0.3130  0.3577
20465W        W36359   5.914   3.721   3.100  0.0616  0.0410  0.0480
20466W        W36360  13.835  11.070   4.465  0.0618 -0.1855 -0.2918
20467W        W36361   9.920   5.782  14.513  0.4689  0.1399  0.0155
20468W        W36362   4.794   7.743  15.204 -0.1610 -0.0408 -0.2249
20469W        W36363   8.282  12.727   0.384  0.1963  0.1365  0.0789
20470W        W36364   5.329   3.588   5.021  0.4337  0.0875  0.3186
20471W        W36365  17.934  13.660   4.540  0.0031  0.0157  0.3824
20472W        W36366   0.736  14.889  13.428 -0.1412  0.2893  0.2127
20473W        W36367  10.362   1.498   3.625  0.3519 -0.0040 -0.0658
20474W        W36368  18.320   5.512   6.045 -0.1664  0.0121 -0.0096
20475W        W36369   1.308   4.287  15.283 -0.2698 -0.0881  0.0593
20476W        W36370   5.703   8.662  11.446  0.1327 -0.1161  0.2258
20477W        W36371   4.298  13.276   4.911 -0.1330 -0.3732  0.1267
20478W        W36372  13.643   3.054  15.096 -0.1157 -0.0049 -0.2887
20479W        W36373   0.407   8.986   3.406  0.3710 -0.1449 -0.1292
20480W        W36374  15.170   6.676   4.888 -0.1734  0.0569  0.0859
20481W        W36375  14.780   6.010   0.521 -0.0314  0.1039  0.1654
20482W        W36376   8.534   9.892   5.042  0.0002  0.0667  0.4695
20483W        W36377   9.181   9.962   5.316  0.2247  0.3367 -0.0719
20484W        W36378   4.252  13.440  15.643  0.1390  0.1224  0.2841
20485W        W36379  10.476  16.183   3.196  0.4026  0.3885 -0.1242
20486W        W36380  11.440   1.417   3.605  0.2640 -0.0634  0.0979
20487W        W36381  15.081  14.538  12.265 -0.2196 -0.2466 -0.0609
20488W        W36382  16.072   4.312  15.051 -0.0177 -0.0251  0.1069
20489W        W36383   7.536   3.467  13.507 -0.2187  0.0033 -0.1367
20490W        W36384  11.990  18.115   0.787  0.1038 -0.0069  0.2390
20491W        W36385  17.802  15.216   4.004  0.0456 -0.1303  0.0468
20492W        W36386  10.723  15.534  15.245 -0.2891  0.1177 -0.2253
20493W        W36387  13.341   1.384   2.221  0.1716  0.1661 -0.1608
20494W        W36388  14.650  15.666  14.804  0.0271 -0.1668  0.0504
20495W        W36389  14.576   1.006  13.281  0.0747 -0.0330  0.0013
20496W        W36390  10.767  10.491   5.636 -0.0137 -0.1705  0.1609
20497W        W36391  15.362  14.381  15.785 -0.2379 -0.1517 -0.1632
20498W        W36392   2.971  12.259   0.314 -0.0415  0.0586  0.3226
20499W        W36393  16.649   1.929  15.071 -0.2597  0.1451  0.0287
20500W        W36394   0.778   2.167  14.525  0.2741 -0.1304  0.0662
20501W        W36395   5.407   0.777  11.462  0.4746 -0.3475  0.0510
20502W        W36396   2.800  18.020  15.114  0.0947 -0.2623  0.0425
20503W        W36397   7.295  13.597  15.799 -0.0911 -0.1707 -0.1246
20504W        W36398   1.602   7.531   6.001 -0.2499 -0.2199  0.0893
20505W        W36399  10.378  12.847  12.054 -0.0246 -0.1573 -0.0945
20506W        W36400  15.051   9.042   5.233 -0.0373  0.0310 -0.2208
20507W        W36401   1.767   8.730  12.796 -0.2989 -0.3569 -0.4307
20508W        W36402  11.149   7.726   0.136  0.0033 -0.0194 -0.0432
20509W        W36403   4.790  16.691   5.199 -0.1497  0.1930 -0.0291
20510W        W36404  16.003   6.423   2.706 -0.2880 -0.0592 -0.1036
20511W        W36405   3.639  14.968  11.613 -0.0838 -0.0266  0.1382
20512W        W36406  13.987  12.055  11.670 -0.2420  0.1773 -0.1126
20513W        W36407   2.998  16.078   4.492  0.0319  0.4015 -0.3026
20514W        W36408  10.323   8.814  14.011  0.1977  0.0972  0.0344
20515W        W36409  16.644  14.644   4.589  0.0360 -0.2802  0.2235
20516W        W36410   9.976   8.537   2.347 -0.2064  0.0522 -0.2961
20517W        W36411   9.463   5.352   3.128 -0.2321 -0.1658 -0.2632
20518W        W36412   9.170   1.539  13.320  0.0357  0.1944  0.0740
20519W        W36413  11.568  16.474   4.426 -0.1019 -0.2015  0.3688
20520W        W36414   6.627   8.695  14.199  0.1056  0.0158 -0.1337
20521W        W36415   6.907   0.479  13.329 -0.2079 -0.2030 -0.1289
20522W        W36416  14.725  14.470   3.568  0.1040  0.0774  0.1680
20523W        W36417   5.566  18.328  12.505  0.1542  0.0159  0.2724
20524W        W36418   3.436   5.059  12.719 -0.0894 -0.3467 -0.4503
20525W        W36419   3.397  10.609   2.062  0.2944 -0.1575  0.0618
20526W        W36420   5.721   1.619  11.396 -0.0154 -0.1749 -0.0219
20527W        W36421   0.617  10.782  13.168 -0.1913  0.2657 -0.2568
20528W        W36422   5.154  10.348   1.573  0.0910  0.0919  0.0013
20529W        W36423  13.932   5.932  13.087 -0.0247 -0.0852 -0.1122
20530W        W36424  11.279  17.590   4.458  0.2728  0.3794  0.1890
20531W        W36425   4.213  13.827   0.357  0.3374 -0.1827  0.1297
20532W        W36426  12.151   3.497   0.124 -0.2376  0.2823 -0.2444
20533W        W36427   8.872   0.666  14.339  0.1143 -0.1920  0.2204
20534W        W36428   1.451  13.617   3.657  0.0536 -0.3744 -0.1567
20535W        W36429   6.296   0.825   0.387 -0.1760  0.1220 -0.0438
20536W        W36430   4.004   5.779  14.420  0.0010 -0.2630  0.0922
20537W        W36431  16.475   1.066  13.085 -0.2502 -0.0311  0.1484
20538W        W36432   1.626  17.311   3.690 -0.1209 -0.3590  0.2512
20539W        W36433  10.764  16.249   3.994 -0.0759  0.0058  0.1096
20540W        W36434  14.375   7.801   0.531  0.1287 -0.0274 -0.2623
20541W        W36435  10.721  16.231  15.651 -0.1567 -0.5456  0.0031
20542W        W36436   6.164  14.803  14.780 -0.1603  0.0435  0.2133
20543W        W36437   7.762   2.609   5.154  0.1096 -0.0615  0.0178
20544W        W36438  16.257   4.559   0.365  0.1126  0.2492 -0.1488
20545W        W36439   2.755   6.414  15.837  0.4253  0.1715  0.2573
20546W        W36440  14.713   2.383   0.423 -0.2292  0.0252 -0.0086
20547W        W36441   2.919   8.508  13.884  0.0050  0.1615 -0.0645
20548W        W36442  10.370  14.919  13.968  0.0590  0.0038 -0.2381
20549W        W36443  14.775   2.032  13.217  0.2331  0.4164 -0.1030
20550W        W36444   4.234  15.709   4.038 -0.0857 -0.1118  0.1501
20551W        W36445  10.682  10.916   2.329  0.1057 -0.4217 -0.2501
20552W        W36446   5.002   0.229  15.202 -0.2356  0.0170  0.1216
20553W        W36447   8.622  10.227  12.709  0.1543 -0.0731  0.1478
20554W        W36448   5.109  12.480  11.272  0.3502  0.2853  0.3255
20555W        W36449   4.773  14.311  14.212  0.1709  0.0956 -0.1733
20556W        W36450   9.984  11.745   1.702 -0.0306  0.2996 -0.0685
20557W        W36451  11.111   9.304  10.748  0.1153  0.1151  0.0688
20558W        W36452  14.374  14.499  11.699 -0.3386  0.0098 -0.2102
20559W        W36453  15.877   1.517  12.740  0.1211  0.2351  0.0719
20560W        W36454   2.072   2.178  15.396 -0.1938  0.0669  0.2187
20561W        W36455   8.550  14.800  11.865  0.0359  0.0691  0.0237
20562W        W36456   7.608  16.322  11.573  0.0007 -0.1770  0.0423
20563W        W36457   7.203   2.902   0.291  0.0593 -0.3364  0.0084
20564W        W36458  17.848  14.981   3.068 -0.1638  0.0641  0.0109
20565W        W36459   1.860   8.291   1.301  0.0106  0.1070 -0.1079
20566W        W36460  17.923  11.534   1.983 -0.2579 -0.1724  0.0709
20567W        W36461  11.572   4.635   6.217 -0.4692  0.4460  0.1858
20568W        W36462   7.249   5.431  13.604 -0.3208  0.1065 -0.0760
20569W        W36463   6.764   1.099   1.846 -0.0255 -0.2364  0.1067
20570W        W36464  12.166   5.091   1.992 -0.0951 -0.2988 -0.1212
20571W        W36465   6.571   9.435  10.778  0.0689  0.1146 -0.3434
20572W        W36466   0.077   1.913   4.788 -0.3586 -0.5812  0.1568
20573W        W36467   1.535   0.771  12.222 -0.1805 -0.0902  0.0538
20574W        W36468  17.303  10.391   2.099  0.0664 -0.1352 -0.0881
20575W        W36469   3.202   1.852  15.179  0.2371 -0.1231  0.0611
20576W        W36470   6.278  11.289  11.913 -0.2376  0.3225 -0.0013
20577W        W36471  13.425  13.653   1.469 -0.1386 -0.1428 -0.0823
20578W        W36472  13.760  16.498  15.255  0.2559 -0.1929  0.0077
20579W        W36473   6.437  13.178  10.733 -0.1234  0.0169 -0.0365
20580W        W36474   8.061   1.178  13.402  0.1277 -0.0084 -0.0544
20581W        W36475   3.349  14.660  13.123  0.1131  0.2798 -0.0218
20582W        W36476  14.994   3.646   0.373  0.2028  0.0882 -0.2348
20583W        W36477   6.625   1.618  13.106 -0.0168  0.0902 -0.0136
20584W        W36478   6.846  17.463  13.991 -0.1981 -0.1229  0.0739
20585W        W36479   1.875   9.116   5.191  0.0489 -0.2979 -0.2674
20586W        W36480   9.787   6.219   5.638 -0.0023 -0.1265 -0.1614
20587W        W36481   6.434  17.633  12.962  0.2657 -0.0619  0.0176
20588W        W36482   0.020  11.247  15.882  0.2100 -0.0072 -0.0497
20589W        W36483   9.528  13.027  12.140  0.0959 -0.1784  0.0703
20590W        W36484   8.940   8.394  11.069 -0.0763  0.1314  0.2213
20591W        W36485   6.544   1.440  12.640 -0.4468  0.1573 -0.3392
20592W        W36486   4.089  11.261   0.136 -0.2487 -0.1907 -0.0006
20593W        W36487   8.416  17.067  12.096  0.1925 -0.1776 -0.0682
20594W        W36488   2.377   1.883  12.936  0.1832 -0.1608  0.0255
20595W        W36489  16.166   5.463   5.023  0.3625  0.2797 -0.0571
20596W        W36490  12.956  10.248  13.552  0.0698 -0.2281  0.2463
20597W        W36491  17.318  12.955   2.752  0.2249 -0.0176 -0.1351
20598W        W36492   0.262  17.589  13.927  0.1093 -0.1408  0.4431
20599W        W36493   3.231  10.610   0.659  0.5069  0.2622  0.0636
20600W        W36494   1.845   4.586   5.701  0.2256 -0.0555 -0.0183
20601W        W36495   8.387   2.160   0.387 -0.0184  0.1491  0.0040
20602W        W36496  12.876   8.517   2.589  0.0729  0.0422 -0.0805
20603W        W36497  10.026   4.210   0.718  0.2302 -0.0731  0.2380
20604W        W36498  11.300  11.110   3.846 -0.3340  0.0167  0.0962
20605W        W36499   6.243   7.612  15.510  0.2035 -0.0208  0.1467
20606W        W36500   7.694   7.508  12.064 -0.3346 -0.1555  0.0913
20607W        W36501   4.244  14.844  10.721 -0.1782  0.1021 -0.0595
20608W        W36502   0.494  12.247   2.133 -0.0661  0.1007 -0.0152
20609W        W36503  15.719  11.303   4.290 -0.0289  0.3350 -0.2219
20610W        W36504   8.310   5.593   3.406 -0.0144 -0.0643  0.0228
20611W        W36505   9.080   4.174  12.307 -0.0322 -0.1408 -0.3031
20612W        W36506   9.741  17.529  11.212 -0.0408 -0.1952 -0.0014
20613W        W36507   8.963  18.251   3.978  0.0354 -0.0470 -0.1255
20614W        W36508   5.858  17.057   2.956  0.0854 -0.2469 -0.0192
20615W        W36509  16.774  13.043  12.044 -0.0253  0.0258 -0.0503
20616W        W36510  17.162   7.986   2.037  0.0873  0.1587  0.3778
20617W        W36511   5.736   0.529   2.342  0.1938 -0.1381  0.0382
20618W        W36512  15.621  16.694  13.611 -0.0188  0.0035  0.1295
20619W        W36513  16.956   1.223   4.402 -0.0365  0.0361 -0.1452
20620W        W36514   9.481  15.430  14.160 -0.1519 -0.2768  0.1821
20621W        W36515  11.988  11.744  12.179  0.0346  0.1633 -0.2632
20622W        W36516   5.644  13.409  11.412  0.2790  0.1393 -0.0606
20623W        W36517  14.609  13.624  13.664 -0.2339  0.0522 -0.2930
20624W        W36518  11.658  10.881   1.726  0.0084 -0.0470 -0.4615
20625W        W36519   4.769  10.297  15.477 -0.0704  0.1285  0.2070
20626W        W36520   7.540  17.668   0.323  0.3513  0.2496 -0.0352
20627W        W36521   9.081  15.862  15.526 -0.0855 -0.2018 -0.1060
20628W        W36522   0.110   0.292   5.783  0.0827  0.0273  0.5630
20629W        W36523   9.942   7.137  11.218  0.2418  0.2499 -0.3815
20630W        W36524  15.124   5.108   5.517 -0.3430 -0.1648  0.0906
20631W        W36525   8.394  15.461   2.155 -0.1439 -0.0122 -0.0412
20632W        W36526   7.952  18.231   4.238  0.0465  0.1398 -0.0125
20633W        W36527  13.613  18.389   4.847 -0.0729  0.3551  0.1307
20634W        W36528  14.366   3.144  13.054 -0.0120 -0.0094 -0.0575
20635W        W36529   1.428   7.210   0.485  0.1962  0.0869 -0.1478
20636W        W36530   6.228   6.050  11.300 -0.1023 -0.2960  0.0712
20637W        W36531   4.785  13.270   2.450 -0.1964 -0.2846  0.0127
20638W        W36532   2.387   4.808   3.214  0.2184  0.2766  0.0609
20639W        W36533   6.728   8.812  10.972 -0.1032 -0.2243  0.2028
20640W        W36534   9.288  10.978   0.083 -0.1138  0.0397  0.1087
20641W        W36535  14.978  17.681  12.685 -0.0762 -0.0168  0.1455
20642W        W36536   6.480  12.321   5.456  0.0666 -0.0059 -0.0761
20643W        W36537  16.883   7.721  15.278 -0.2812 -0.0134  0.3975
20644W        W36538  11.521  11.516   2.631  0.1247  0.1819 -0.6947
20645W        W36539  12.467   6.867   1.157  0.1583 -0.0524 -0.1750
20646W        W36540  10.782  10.918  11.919  0.4251  0.0865 -0.3569
20647W        W36541  16.110   7.357  13.553 -0.1221 -0.0108  0.3023
20648W        W36542   4.363  16.032  14.268  0.2775  0.0087  0.2688
20649W        W36543   5.905   2.328   0.531  0.3935 -0.0665 -0.2217
20650W        W36544  17.793   6.896   3.463 -0.4472  0.1105 -0.0602
20651W        W36545   2.697  14.783  15.275 -0.0261  0.3402 -0.1634
20652W        W36546  11.358   9.155  11.450  0.1275 -0.3362  0.2679
20653W        W36547  12.810   9.440  14.310 -0.2058  0.2052 -0.1243
20654W        W36548   2.077   7.440   2.470  0.0301  0.1637  0.4163
20655W        W36549   4.398  17.411  12.479  0.2835 -0.1457 -0.3456
20656W        W36550  16.874  12.976  13.080  0.0817 -0.1264  0.0608
20657W        W36551  15.897   3.214  13.472 -0.0501  0.0576  0.0536
20658W        W36552   9.131  11.014   5.586  0.1909  0.2977 -0.1079
20659W        W36553   6.778  15.465  13.773 -0.1434 -0.1492  0.0419
20660W        W36554   9.961   3.858   1.679 -0.1618 -0.0106  0.3690
20661W        W36555  11.786   9.050   1.931 -0.1827 -0.2751 -0.0882
20662W        W36556   4.731   1.852   0.946 -0.2157 -0.0185 -0.0181
20663W        W36557  13.525  16.837  15.019  0.1542 -0.1100  0.1362
20664W        W36558  16.276  11.292  11.787  0.1082  0.1835 -0.2720
20665W        W36559   9.563  14.437   3.674 -0.1788 -0.1700 -0.1217
20666W        W36560   8.258   1.944   2.441  0.2750 -0.0819  0.1419
20667W        W36561  15.049   4.002  13.508  0.1144 -0.0868  0.1757
20668W        W36562   0.976  12.902  12.894  0.2562 -0.0927  0.1037
20669W        W36563   4.452   5.442  12.313  0.2414  0.0492 -0.3422
20670W        W36564  16.287   7.396  14.984  0.0533  0.0099  0.2562
20671W        W36565  12.062   7.176  13.109  0.3342 -0.0585 -0.1526
20672W        W36566  16.004  18.185   4.938 -0.1046 -0.1411  0.0378
20673W        W36567   7.440  11.170  14.478  0.2415 -0.0439  0.0006
20674W        W36568  13.387  10.342   0.928 -0.2280  0.0938 -0.0179
20675W        W36569   0.814   8.972  11.673 -0.0145  0.1087  0.1297
20676W        W36570  14.059  15.421   1.573  0.1807 -0.0741  0.0748
20677W        W36571  14.506   9.696  15.166  0.1657 -0.0761 -0.1280
20678W        W36572   9.206   2.441  11.290  0.3360  0.3379 -0.1614
20679W        W36573   2.574  16.832   3.159  0.0055  0.2156  0.2873
20680W        W36574   6.393  10.154   4.658 -0.0614 -0.3993 -0.2496
20681W        W36575  11.822  17.901  11.861 -0.1153  0.1027  0.5359
20682W        W36576  11.242   7.801   0.788 -0.0423  0.2991  0.2285
20683W        W36577  12.956  13.099   4.831  0.1375  0.0398 -0.3421
20684W        W36578   4.228  16.911  10.034  0.2102  0.0698  0.2570
20685W        W36579  13.482   9.210  11.757 -0.3235  0.2356  0.0560
20686W        W36580  18.042   8.386   0.694 -0.0507  0.0335  0.1626
20687W        W36581  17.162  14.413  13.724 -0.3581 -0.0911 -0.0789
20688W        W36582  14.315   8.095   5.700  0.0680 -0.1555 -0.0032
20689W        W36583   0.245   4.831   5.619  0.0562 -0.0890 -0.0659
20690W        W36584   3.146   8.290  13.406  0.0313 -0.1797 -0.0544
20691W        W36585  10.329   9.382   4.464 -0.1786 -0.0737 -0.1342
20692W        W36586   9.766  12.294   5.419  0.0885 -0.1250  0.0444
20693W        W36587  16.273  12.502   2.833 -0.0621 -0.0639  0.0218
20694W        W36588   0.023   1.863  12.569  0.1550  0.2100  0.1203
20695W        W36589   6.476  16.668  12.725  0.0873  0.3633  0.2477
20696W        W36590   2.573  18.343   2.068  0.1492 -0.0413 -0.1900
20697W        W36591  17.975  12.052   0.332 -0.0130  0.3828 -0.2166
20698W        W36592  15.010  13.958  11.010  0.0923  0.0219 -0.0903
20699W        W36593   0.910  11.195   4.040 -0.1235 -0.1625 -0.1414
20700W        W36594   0.427   6.135  15.512 -0.3038 -0.2863  0.0999
20701W        W36595  15.185  17.997  14.852  0.1202  0.0339 -0.0637
20702W        W36596   3.695   5.603  12.581  0.3633  0.1178  0.1718
20703W        W36597   1.716  16.524   0.014  0.0265  0.0860  0.3516
20704W        W36598   5.282   7.958  12.615 -0.1545 -0.1935 -0.2195
20705W        W36599   9.911  12.505  15.135  0.0682 -0.0304 -0.0788
20706W        W36600  18.396  11.105   3.817  0.2017  0.3147 -0.0283
20707W        W36601   3.203   2.393  13.256 -0.1638 -0.2228 -0.3388
20708W        W36602   5.228  14.611  12.518 -0.0384  0.2080  0.1795
20709W        W36603   1.219  16.741  14.440 -0.2242 -0.2091  0.2048
20710W        W36604   9.885   5.513  13.265  0.2940  0.3475 -0.2275
20711W        W36605   6.061   7.981   0.264 -0.2699  0.0474 -0.0311
20712W        W36606   7.491  11.030   0.610  0.0756 -0.4528 -0.0387
20713W        W36607   4.244  14.254  15.018 -0.3451 -0.2138 -0.3382
20714W        W36608  17.634  17.359  14.949  0.1696  0.1064  0.2511
20715W        W36609  16.971   0.870   2.457 -0.0699  0.2266  0.1385
20716W        W36610   3.632  15.104   5.428 -0.0045  0.0114 -0.0561
20717W        W36611   0.027  11.266   5.772 -0.2037  0.4036  0.1099
20718W        W36612  17.655   8.375  12.716 -0.2604 -0.0353 -0.0187
20719W        W36613   4.211  17.329  14.705 -0.1326  0.1533  0.0660
20720W        W36614  12.546   1.637   4.381 -0.3341 -0.2674  0.1146
20721W        W36615   4.592   7.793   1.367  0.1129  0.2747  0.1181
20722W        W36616   4.836   4.529  11.555 -0.0101 -0.0357  0.2973
20723W        W36617   3.382  12.682   5.734  0.0465 -0.2368 -0.2779
20724W        W36618   3.741   6.570   2.937  0.0766  0.0490 -0.0043
20725W        W36619   5.866   8.564  15.713 -0.0725  0.2187  0.0090
20726W        W36620  14.630   6.942   2.117  0.4390 -0.0874 -0.0444
20727W        W36621   1.177   2.377   5.244 -0.2117 -0.0071 -0.2059
20728W        W36622   1.954   6.500   0.655  0.1459 -0.0653  0.1662
20729W        W36623  14.901  14.985   2.507 -0.1811 -0.1003 -0.2385
20730W        W36624   2.790   6.821  13.390 -0.2150  0.0681 -0.3205
20731W        W36625   0.914   1.344   1.985 -0.1997  0.1377  0.2063
20732W        W36626   0.508  14.496  14.637 -0.1266  0.0653  0.1459
20733W        W36627  11.283  12.828  13.413 -0.0031  0.0363  0.1709
20734W        W36628  15.844   7.190   0.776 -0.1674  0.1184  0.1938
20735W        W36629   9.494   4.255  15.722  0.1540 -0.0985 -0.0287
20736W        W36630   5.074   6.234   0.470  0.2810  0.2222 -0.2359
20737W        W36631   3.806  16.049   5.885  0.1741  0.3705  0.1244
20738W        W36632  10.604   8.909  15.586 -0.1561  0.2043  0.0299
20739W        W36633  13.061  11.182  14.491 -0.0828 -0.1054 -0.3120
20740W        W36634   6.414  13.221   3.213  0.3828  0.0796 -0.0451
20741W        W36635  16.308  18.221  10.992 -0.4012 -0.1066  0.0630
20742W        W36636  10.555   1.508   5.270 -0.0200 -0.0378 -0.1842
20743W        W36637  14.144   8.805  14.790 -0.0260 -0.0730 -0.0267
20744W        W36638   2.553   9.503   4.966  0.1936  0.1182 -0.0295
20745W        W36639   8.913   7.384   0.188 -0.1940 -0.3010  0.1851
20746W        W36640  12.887  14.073   0.715  0.0307  0.1847 -0.1311
20747W        W36641   7.800  13.584   1.894 -0.1126  0.0853  0.0344
20748W        W36642   8.548   7.291  12.822  0.0443 -0.1605  0.1039
20749W        W36643  18.167   4.694  13.947  0.1695  0.2134 -0.0032
20750W        W36644  10.043  15.184   0.140  0.0506 -0.1125  0.2557
20751W        W36645  13.102  10.106  11.781  0.0545 -0.0315  0.1088
20752W        W36646   4.216  17.398   1.178  0.0957 -0.2768 -0.1582
20753W        W36647   8.188  12.803  14.891  0.0420 -0.1274 -0.0194
20754W        W36648   3.120  17.128   2.040  0.1837 -0.2320 -0.3365
20755W        W36649   0.864   8.318  11.312 -0.0612  0.1873 -0.2426
20756W        W36650  17.458  12.400  14.423 -0.1014 -0.0701  0.2558
20757W        W36651   6.443  17.738   5.064  0.0082  0.5296  0.0949
20758W        W36652   7.017  18.312   1.278  0.0785 -0.2638  0.0112
20759W        W36653  18.255  13.176  13.561 -0.0370  0.1500  0.3160
20760W        W36654  16.755  17.888   4.448  0.0393 -0.0124  0.1055
20761W        W36655   1.721   2.622   0.869 -0.0502  0.3702  0.0929
20762W        W36656   7.260  17.217   0.328 -0.0997 -0.2270  0.0466
20763W        W36657  14.957   2.049   2.164  0.4429 -0.0058 -0.0049
20764W        W36658  16.949   7.056   2.731 -0.2508 -0.1455  0.0465
20765W        W36659   6.586   5.055   3.695  0.0469  0.0514 -0.2156
20766W        W36660  10.741   5.138   1.103 -0.1713 -0.0109  0.3042
20767W        W36661  10.387  14.291   1.828  0.1982  0.0575  0.3886
20768W        W36662   6.058  18.238   4.340  0.3693  0.1205  0.0937
20769W        W36663   8.517   8.521   6.366  0.0198  0.1695  0.2294
20770W        W36664  16.666  10.151   0.963  0.3047  0.0677 -0.1745
20771W        W36665  18.274   1.638  14.926 -0.3216  0.1170  0.0366
20772W        W36666   9.626   0.559  14.099 -0.0267 -0.2491 -0.2364
20773W        W36667  10.798  11.682   1.895 -0.0771 -0.3604 -0.2661
20774W        W36668   8.650  18.452   3.588  0.1063  0.0924 -0.2579
20775W        W36669  14.704  18.260  15.571  0.1770  0.2413  0.0399
20776W        W36670   4.452  15.444  15.578 -0.0327  0.0444 -0.1248
20777W        W36671   5.759   8.294  11.822  0.2518  0.0161  0.2246
20778W        W36672  11.960   6.999  15.664  0.1365  0.0003  0.1015
20779W        W36673  10.800   8.307  11.578  0.3599 -0.1444  0.1922
20780W        W36674   6.852   5.250  11.360  0.2292  0.0378  0.0848
20781W        W36675   0.060   0.222   4.315  0.2583  0.0074  0.0861
20782W        W36676   8.098  12.055   3.106 -0.1048  0.3863  0.1131
20783W        W36677   9.996  11.575   2.789 -0.2887  0.1440  0.1394
20784W        W36678   8.380   8.221  15.921  0.1587  0.0047  0.1132
20785W        W36679  15.062  18.331  13.389 -0.0151 -0.2332  0.0120
20786W        W36680  15.781   7.893   5.891 -0.3273 -0.2642  0.0024
20787W        W36681   7.008  16.783   0.340 -0.3242  0.3983  0.0091
20788W        W36682  16.793   7.352  14.962 -0.2928 -0.0804 -0.1910
20789W        W36683   7.260  15.194   2.261 -0.0764  0.0012  0.0299
20790W        W36684   8.774   4.665  13.119  0.1017  0.1937 -0.0328
20791W        W36685  10.805  15.055   3.357 -0.0198  0.0148  0.2897
20792W        W36686  10.878   5.054  15.605  0.1349  0.1557  0.4310
20793W        W36687   7.336  13.015   4.405 -0.3353 -0.0419  0.1133
20794W        W36688  10.631   4.465  14.471 -0.4067  0.0754  0.0581
20795W        W36689   4.730   8.326  11.541 -0.1964 -0.3190 -0.0978
20796W        W36690  17.275  11.575  12.143  0.2562  0.1375  0.0262
20797W        W36691   6.927   3.155   1.213  0.2509 -0.0214 -0.1524
20798W        W36692   7.635  14.913   2.056  0.4029  0.1445 -0.2644
20799W        W36693   8.781   5.294   2.549  0.2075  0.2433  0.0676
20800W        W36694  14.437   8.772   5.450 -0.5628  0.0289  0.0568
20801W        W36695  12.318   3.308  12.350 -0.4321 -0.2054 -0.2737
20802W        W36696  10.314  17.120   2.281  0.0443  0.1925 -0.0096
20803W        W36697   3.072   6.600  11.923 -0.0469  0.1039  0.2614
20804W        W36698   4.556   5.069  11.526  0.0826  0.1247 -0.2605
20805W        W36699   9.316   8.790  11.265  0.1106 -0.2370 -0.3547
20806W        W36700  13.490  11.470   3.685  0.0964 -0.3064  0.0076
20807W        W36701   6.479  17.949   4.532 -0.4257 -0.0173 -0.0370
20808W        W36702   8.636   1.528  11.524 -0.0429 -0.1888 -0.3185
20809W        W36703  13.326  16.464   5.370  0.0418 -0.3300  0.0328
20810W        W36704  11.396  12.268  14.511  0.1646 -0.1667  0.0472
20811W        W36705  13.874  15.360  13.897  0.1585 -0.4691 -0.1401
20812W        W36706   1.695   2.150   5.127 -0.1430 -0.1731 -0.0518
20813W        W36707   9.398  10.128   2.135 -0.0663  0.3267  0.1251
20814W        W36708  17.054  11.618  13.965 -0.2408  0.1429 -0.1967
20815W        W36709  10.002   9.295   1.833  0.0953 -0.0013 -0.0235
20816W        W36710   3.704  10.459  11.703  0.1816  0.2530  0.0957
20817W        W36711   9.818  12.076  15.745 -0.1119  0.1189 -0.0874
20818W        W36712   2.203  14.620   1.028 -0.0764 -0.0624  0.1070
20819W        W36713  13.070   9.701  15.536  0.2523  0.1339  0.0410
20820W        W36714  13.587  13.174   2.746 -0.1964 -0.1537 -0.1010
20821W        W36715   3.542   9.481  15.801  0.0185 -0.2831 -0.1181
20822W        W36716  17.626  14.731  15.756 -0.1890  0.1543 -0.0940
20823W        W36717   9.230   9.834   2.593  0.2459  0.3395  0.0330
20824W        W36718   6.492   5.584  14.554 -0.2432 -0.0012  0.1518
20825W        W36719  13.796  15.147   4.777 -0.2324  0.0070 -0.1432
20826W        W36720   1.296   2.078  15.869  0.3298 -0.2201 -0.1179
20827W        W36721   5.237   5.914  12.572 -0.1679  0.0981  0.0095
20828W        W36722   3.161  14.343   0.478 -0.1000  0.2350 -0.1343
20829W        W36723  10.775  10.508  10.720  0.1085 -0.1728  0.2388
20830W        W36724   5.693   1.135  12.066 -0.1888  0.0054  0.0429
20831W        W36725  12.329   9.349  14.132  0.1258 -0.4188  0.2142
20832W        W36726   2.576   7.794   4.266 -0.2224 -0.2186 -0.2257
20833W        W36727  17.550  10.140   3.857 -0.1894 -0.0277 -0.0657
20834W        W36728   4.328   4.067  13.761 -0.0292  0.0148  0.2316
20835W        W36729  13.428   2.365   4.486  0.1919  0.0314  0.0126
20836W        W36730   1.829   1.970  12.893 -0.1047 -0.2394 -0.0241
20837W        W36731   0.653  16.593   1.142  0.2295 -0.2446 -0.0419
20838W        W36732  17.922   4.385   0.159 -0.2630 -0.2226  0.0620
20839W        W36733   6.907   4.786   2.589  0.4423 -0.2149 -0.0784
20840W        W36734   6.301  17.420   1.059 -0.1857  0.0812 -0.4141
20841W        W36735  14.225   4.666  14.559 -0.1189 -0.0817  0.0225
20842W        W36736  14.708  14.728  10.014 -0.4207  0.3344 -0.0462
20843W        W36737  16.910   3.162   0.719 -0.0497  0.1889 -0.0775
20844W        W36738  11.312   0.323   3.130  0.1637  0.3055 -0.1784
20845W        W36739  11.904   4.722   3.415 -0.1846  0.0814 -0.0327
20846W        W36740   4.505   0.260  11.559 -0.1570 -0.2988 -0.1065
20847W        W36741   8.304   8.673   2.629 -0.0506  0.0458  0.1205
20848W        W36742  16.096   7.072   4.267 -0.0509 -0.0819  0.0518
20849W        W36743   0.865   1.649   1.124 -0.1473 -0.0835  0.0127
20850W        W36744  12.379   8.635   2.756 -0.1060 -0.2758  0.1856
20851W        W36745   2.346  17.471   4.567  0.0350  0.2652 -0.0041
20852W        W36746  15.559  14.106   1.577 -0.0259 -0.1754 -0.0700
20853W        W36747   3.461   5.393   1.811  0.0887  0.3749  0.1611
20854W        W36748   1.342   0.100   0.841  0.2385 -0.2414 -0.0815
20855W        W36749   5.631   5.936  14.250 -0.0136  0.1555  0.0439
20856W        W36750   3.502  14.850  13.708  0.0181 -0.0402 -0.3214
20857W        W36751  11.977  18.114   1.922 -0.1833  0.3911 -0.3632
20858W        W36752  17.237   8.957   4.684  0.2248 -0.2118  0.4206
20859W        W36753  12.875  18.215  12.909  0.0538  0.1823 -0.3082
20860W        W36754   9.403   7.395   0.330 -0.0767  0.2322  0.1167
20861W        W36755  16.050   2.051  12.320 -0.0807 -0.1774 -0.0655
20862W        W36756  10.204   7.710  13.431  0.0730 -0.0310 -0.1290
20863W        W36757  14.882   7.893   0.177  0.0647 -0.0884 -0.0249
20864W        W36758   1.184   7.396  11.761  0.1219 -0.3409  0.2314
20865W        W36759  13.622   6.099   2.439 -0.0123 -0.0516  0.1392
20866W        W36760  16.248   1.410  15.516 -0.0449 -0.1150  0.2536
20867W        W36761  16.100  14.743   1.949  0.1663 -0.1617 -0.2124
20868W        W36762   4.724  14.563  12.526  0.0830 -0.1003  0.0721
20869W        W36763   8.195  17.147   1.487 -0.0278  0.1524 -0.1151
20870W        W36764  12.855   2.714  13.682 -0.2478  0.2703  0.2560
20871W        W36765  15.993  14.375  15.945  0.1657  0.0508 -0.3992
20872W        W36766  14.980   3.294  14.273  0.0137  0.0941  0.1846
20873W        W36767   8.895  10.234   5.092 -0.0632 -0.0427 -0.0572
20874W        W36768   4.382  15.075   0.664 -0.0324 -0.1783  0.3178
20875W        W36769   6.369   7.313   3.548 -0.0500  0.0619 -0.0195
20876W        W36770   5.405   0.173   3.096  0.1638  0.1952 -0.3519
20877W        W36771   9.315  11.966  13.919  0.1209 -0.1195 -0.1525
20878W        W36772  10.906   9.200  11.281  0.0413 -0.1778  0.0947
20879W        W36773   7.860  10.033   4.895 -0.1908  0.0633  0.4268
20880W        W36774   7.698   7.181  15.633 -0.1839  0.1465 -0.0437
20881W        W36775   5.507  14.269  12.965  0.0216 -0.0357 -0.0449
20882W        W36776   9.846  18.295  15.866 -0.1534 -0.0467 -0.0871
20883W        W36777   5.541   1.671  13.463  0.2575 -0.0787  0.3193
20884W        W36778   4.506   2.367   0.858  0.1612  0.2092  0.1740
20885W        W36779   9.858  14.873   4.278  0.0398  0.1707  0.2365
20886W        W36780   8.783   6.966   4.512  0.1596 -0.3880 -0.1716
20887W        W36781  13.709  17.900   2.134 -0.2028  0.0982 -0.1564
20888W        W36782   7.671   9.049   1.151  0.2603  0.1435 -0.1531
20889W        W36783   3.745   4.286   3.169  0.1858  0.1539 -0.0838
20890W        W36784  15.413  13.459   4.553 -0.1106 -0.0306 -0.3385
20891W        W36785   4.893  15.723  15.330  0.0673 -0.2863 -0.1183
20892W        W36786   4.290   5.994   6.383 -0.3225 -0.2732 -0.4211
20893W        W36787   5.736   6.597   4.066  0.0754  0.0673  0.1613
20894W        W36788   5.468  14.951  15.837 -0.1367  0.1514  0.0431
20895W        W36789   7.147  10.219  12.327  0.1079  0.3513  0.3417
20896W        W36790   8.084   9.738   0.354 -0.1363 -0.1558 -0.1321
20897W        W36791   1.251  15.941   2.615 -0.4161 -0.1164 -0.1082
20898W        W36792   0.847   3.756  11.570 -0.0062 -0.1262  0.2808
20899W        W36793  10.017   6.961  15.204 -0.0467  0.3271 -0.1829
20900W        W36794   5.990   6.762   4.400 -0.0979  0.0327 -0.2230
20901W        W36795   6.140  11.633   1.447 -0.0736 -0.0582 -0.0214
20902W        W36796  14.492  12.098  12.840 -0.4325 -0.1202  0.0359
20903W        W36797  14.563  13.105  13.692 -0.0495 -0.0444  0.2208
20904W        W36798   7.042   0.037   0.398  0.0302  0.2040 -0.4152
20905W        W36799   7.753   0.793   5.508  0.2648  0.2026 -0.1107
20906W        W36800  10.325   2.937   2.693 -0.0781  0.5067 -0.2248
20907W        W36801  17.198  13.742  12.709 -0.1983 -0.1187 -0.1744
20908W        W36802  18.166   4.967   3.868 -0.1504 -0.2607  0.1325
20909W        W36803  12.440  10.423   2.820  0.3485  0.1932 -0.1250
20910W        W36804   2.853  17.887  15.572  0.4069 -0.2508 -0.2658
20911W        W36805  16.716   7.350  13.915  0.1527 -0.0517 -0.1700
20912W        W36806  17.640   1.737  14.271  0.0118 -0.4323  0.0679
20913W        W36807  14.548   8.218  12.258  0.2136  0.2155  0.2707
20914W        W36808   8.318  12.624   1.833 -0.1757  0.0412  0.2706
20915W        W36809   6.851   0.638  15.833  0.2257 -0.0668 -0.0061
20916W        W36810   5.507   8.511   3.012 -0.1421  0.2393  0.2284
20917W        W36811   4.902   5.852  13.403 -0.2497  0.2499  0.1280
20918W        W36812   1.729   2.494  11.096 -0.1159 -0.1343 -0.2178
20919W        W36813  14.803  15.734   0.871  0.1945  0.1065  0.2780
20920W        W36814   0.978  13.747  13.499  0.0310 -0.0572 -0.0727
20921W        W36815  15.474  13.168  14.622 -0.2535  0.2907  0.1546
20922W        W36816   5.853  10.359  13.770 -0.2677 -0.0309 -0.0230
20923W        W36817   2.003  17.479   3.287  0.0597 -0.0954 -0.1567
20924W        W36818   5.917  12.557   2.955 -0.0151  0.0917  0.1198
20925W        W36819  12.764   9.097   2.696  0.1254  0.0299  0.3752
20926W        W36820  12.516  15.449   0.799  0.0966 -0.2939 -0.0672
20927W        W36821  11.553  15.006   1.299  0.0218 -0.1106  0.0101
20928W        W36822   9.510   4.085  14.854  0.2458  0.0415  0.0432
20929W        W36823  14.821  10.290  15.634 -0.1433  0.0498 -0.0785
20930W        W36824   9.269  14.677  12.575 -0.0470 -0.5705  0.0820
20931W        W36825  15.088  17.649   1.772 -0.2970  0.1792 -0.1000
20932W        W36826   7.452  15.828   2.153  0.1826  0.2464  0.4421
20933W        W36827   7.558  16.793   4.622 -0.3307  0.2061 -0.0729
20934W        W36828   4.964  18.464   0.652  0.4778  0.1657  0.2696
20935W        W36829   5.865  15.999   1.777  0.1688 -0.2927 -0.0014
20936W        W36830   5.691  10.854  15.576  0.0250  0.0560  0.1322
20937W        W36831   9.813   1.196  15.089 -0.2356  0.3098  0.0233
20938W        W36832  14.245   8.720   6.192 -0.2682  0.2422  0.0704
20939W        W36833   4.960   9.275  11.872 -0.0541 -0.1041  0.0172
20940W        W36834   9.936  17.357  14.560 -0.1195  0.1100 -0.0688
20941W        W36835   9.779  14.800   3.362  0.0585 -0.0393  0.0037
20942W        W36836   2.704   1.955  12.371  0.3233 -0.2603  0.4080
20943W        W36837  17.650   8.388  14.501 -0.0153  0.0202 -0.0812
20944W        W36838  10.441   0.604  12.544 -0.1669 -0.1433  0.1076
20945W        W36839  11.659   2.597  11.683 -0.0766  0.1770 -0.1641
20946W        W36840  18.302   8.289   0.225  0.0470 -0.2382 -0.1247
20947W        W36841   5.491   5.323   4.654 -0.1800 -0.2609 -0.2859
20948W        W36842  12.075  18.458  14.482 -0.1998  0.0434  0.0531
20949W        W36843  18.003  11.779   3.677 -0.0414 -0.2763  0.1221
20950W        W36844  13.806   3.746   5.974 -0.1257  0.0669  0.0199
20951W        W36845   8.062  13.991   0.008 -0.1979  0.1002  0.2682
20952W        W36846  16.371  11.365   5.560 -0.2430 -0.1056  0.1983
20953W        W36847   9.351  18.163  12.245  0.0479 -0.0074 -0.2016
20954W        W36848   3.781   1.973  15.498  0.3409  0.1405  0.2280
20955W        W36849  13.131   1.937   4.279 -0.0637 -0.0397 -0.3372
20956W        W36850  14.559   2.068   0.800 -0.0088 -0.1842  0.1273
20957W        W36851  12.432   9.900   3.864 -0.0122  0.0053  0.0701
20958W        W36852   2.720   7.041  12.094  0.1551 -0.1769  0.2191
20959W        W36853   9.840  11.367  10.835  0.1734 -0.1556  0.2040
20960W        W36854   5.227  12.012   2.433  0.3130 -0.0229 -0.1913
20961W        W36855   8.176   6.773   3.058 -0.3594 -0.1223 -0.1047
20962W        W36856   8.546  11.470   1.139  0.3690 -0.1719  0.1167
20963W        W36857   9.934  12.853  13.376 -0.0325 -0.1437 -0.2841
20964W        W36858   3.991   6.257   2.099 -0.2674  0.2438  0.0188
20965W        W36859   0.568  13.876   4.066 -0.1492 -0.0311  0.1209
20966W        W36860  15.275  17.897   4.435  0.1820 -0.1547 -0.0997
20967W        W36861   6.460  11.799  11.014 -0.0521 -0.0754  0.1244
20968W        W36862   6.054   5.227   0.347  0.0308  0.0005  0.0857
20969W        W36863   6.081  12.900   0.005  0.0706  0.0403  0.0728
20970W        W36864   1.421   4.282   5.562  0.0003 -0.1892 -0.1151
20971W        W36865  14.112  15.019   5.159  0.1027  0.0353  0.2718
20972W        W36866  11.238  13.085  12.551  0.1120 -0.0187  0.2987
20973W        W36867   8.943  15.409  14.288 -0.0032 -0.1539  0.1920
20974W        W36868  12.922   5.448   5.155  0.0983  0.3637 -0.0048
20975W        W36869   7.821  11.743  11.153  0.1166 -0.1084 -0.0056
20976W        W36870  10.203  12.306  11.001  0.0432 -0.1610  0.3543
20977W        W36871   1.072  15.458  11.762 -0.0088  0.3324  0.1549
20978W        W36872   5.457   4.510   5.138  0.1609  0.0015  0.2360
20979W        W36873   6.116   7.014  12.382 -0.0480  0.1710 -0.2113
20980W        W36874   4.105   0.397  15.321  0.2887 -0.0926 -0.2944
20981W        W36875   0.938   3.340   2.046 -0.0867 -0.1890 -0.1300
20982W        W36876   2.934  13.116  16.146  0.1024  0.0667 -0.1526
20983W        W36877  13.828  15.408  16.015  0.1577 -0.0638 -0.0153
20984W        W36878  18.387  15.275  15.779 -0.1334  0.1204 -0.0009
20985W        W36879   4.740   2.617   1.720  0.0754  0.1120 -0.1964
20986W        W36880   7.808   8.967   2.431 -0.0188 -0.5182  0.0773
20987W        W36881  13.315   4.437  14.774  0.0642 -0.2558  0.0092
20988W        W36882   3.667  17.730  12.969  0.2785  0.3337 -0.0807
20989W        W36883   4.441  10.774   1.858  0.1121 -0.1003 -0.0283
20990W        W36884  16.767   7.248   0.994 -0.1357  0.4291  0.3059
20991W        W36885   8.046   9.133  11.817 -0.0421 -0.0792 -0.1528
20992W        W36886  16.300   0.189  11.883 -0.0782  0.4893  0.0005
20993W        W36887   3.399   6.873  14.893  0.0634 -0.2522  0.3051
20994W        W36888   6.398   2.499  15.060  0.3233  0.1923 -0.1075
20995W        W36889  11.770   8.635   0.623  0.2744 -0.1450  0.1229
20996W        W36890   5.483  18.263  14.050  0.2792 -0.0059 -0.1577
20997W        W36891   7.033   3.725  10.535  0.0408  0.0268 -0.1424
20998W        W36892   3.434   7.554  14.681  0.0231  0.1202 -0.0429
20999W        W36893  12.043  13.062  15.045  0.1173  0.0600  0.0788
21000W        W36894   5.269  10.554  12.963  0.0025 -0.0722 -0.0372
21001W        W36895   5.256  15.276   0.579  0.2419 -0.3726  0.2776
21002W        W36896  13.499   9.782   5.043 -0.0368  0.1476  0.0236
21003W        W36897   4.956  14.912   4.848 -0.0413  0.0918  0.0264
21004W        W36898  11.975  10.506   3.428 -0.0601 -0.1301 -0.3191
21005W        W36899   4.389   0.066  15.111  0.2024 -0.2629 -0.1378
21006W        W36900  17.912   6.505  14.463 -0.0538 -0.1462 -0.0030
21007W        W36901  16.603   5.998  12.931 -0.0998 -0.1390  0.3727
21008W        W36902   2.723   8.131  13.547 -0.3195  0.1736  0.1309
21009W        W36903  16.326   2.565   1.030 -0.1046 -0.0484  0.1645
21010W        W36904   1.709  14.262  14.755  0.0367 -0.0015 -0.0434
21011W        W36905  16.386  17.302  10.837  0.2616 -0.0298  0.0162
21012W        W36906   3.726  11.006   2.912  0.0035  0.2173 -0.1071
21013W        W36907   8.961   7.527  12.532  0.0074  0.2037  0.2588
21014W        W36908   5.452  16.387   3.466 -0.2848  0.0277  0.0919
21015W        W36909  11.363  11.774   3.271  0.0505 -0.1519  0.0284
21016W        W36910   3.159   0.346   2.532  0.0278  0.3454  0.0297
21017W        W36911  11.020   8.935  15.925 -0.2119  0.0258 -0.0614
21018W        W36912   9.073   8.862  14.154  0.2120 -0.0379  0.1857
21019W        W36913  17.196  11.114   4.715  0.0356 -0.1699  0.0865
21020W        W36914   5.240  16.495   1.083 -0.3239  0.0728 -0.2043
21021W        W36915   1.501  15.474  12.212  0.1233  0.1642  0.1805
21022W        W36916   3.749   9.431   3.203  0.1318  0.1107 -0.1373
21023W        W36917  14.108   7.801   0.008 -0.0813 -0.2151 -0.3194
21024W        W36918  17.101  14.457   5.413  0.0185  0.0151  0.0691
21025W        W36919  17.037  17.896  15.651  0.0796  0.1006 -0.0705
21026W        W36920   4.967   2.960   1.418 -0.0314 -0.0027 -0.1336
21027W        W36921   6.765   6.878  14.653 -0.1543 -0.1291 -0.1964
21028W        W36922   5.099   1.209   1.454  0.1931  0.2133  0.4104
21029W        W36923   3.762   5.440  14.828  0.1419  0.1196 -0.0136
21030W        W36924   8.177   2.425   4.894  0.1833 -0.2284  0.1688
21031W        W36925  18.119  17.562  14.855  0.2014  0.1846  0.0008
21032W        W36926   7.770   2.151   2.607  0.0810 -0.0792  0.2615
21033W        W36927   0.124   8.344  15.639  0.1379 -0.0866 -0.1226
21034W        W36928   4.881  12.921  15.724  0.0985 -0.1119 -0.0391
21035W        W36929   2.810   1.428   0.640  0.2941 -0.3968 -0.1224
21036W        W36930   5.526  14.991  13.599  0.2977  0.0052  0.0610
21037W        W36931   4.175   0.991   0.640  0.2661 -0.0383  0.1052
21038W        W36932   7.466   0.704   3.264 -0.2346 -0.0528 -0.3548
21039W        W36933   4.410  12.941  12.636 -0.1370 -0.2912 -0.1789
21040W        W36934   8.525   5.045   0.174 -0.3428 -0.1624 -0.1206
21041W        W36935   3.314   1.468   4.158  0.1214 -0.0215 -0.1910
21042W        W36936  18.037   8.970   1.492  0.1521  0.1704 -0.0457
21043W        W36937   6.923   0.006  14.939  0.3496  0.3187 -0.1050
21044W        W36938   5.431  11.623  12.276  0.0336 -0.1648 -0.2623
21045W        W36939   7.332  11.443  13.168  0.1201  0.1081 -0.0904
21046W        W36940   0.819  11.948   5.222  0.1601 -0.3913  0.1295
21047W        W36941   9.233  10.583   2.049  0.0471 -0.0269 -0.0556
21048W        W36942   4.702  10.423   0.357 -0.3235  0.3833 -0.1473
21049W        W36943  11.958  11.245   2.464  0.1495  0.5421 -0.0469
21050W        W36944  10.064   7.250   2.953 -0.1477 -0.0708  0.0620
21051W        W36945   2.756   6.215   0.160  0.0018  0.3633  0.1890
21052W        W36946   3.509   0.003  15.968  0.0047 -0.3277  0.0831
21053W        W36947  13.376   4.464  12.770  0.1169  0.1938 -0.1294
21054W        W36948   3.980  11.835   1.003  0.0909  0.1571 -0.1421
21055W        W36949  15.479   6.711   2.607 -0.4126  0.0505 -0.0224
21056W        W36950   2.768   8.662   2.957 -0.1456  0.1019  0.0659
21057W        W36951  10.109  16.194   0.799 -0.3987 -0.1702  0.0310
21058W        W36952  10.162   7.760   3.535 -0.1595  0.0759  0.3095
21059W        W36953  10.429   8.999   1.566 -0.4771 -0.0408  0.1438
21060W        W36954   2.995   0.151  13.284 -0.1720 -0.1695  0.0534
21061W        W36955  17.174   5.364   1.140 -0.1219 -0.3435  0.1020
21062W        W36956   4.219   1.414   2.876 -0.2893 -0.0528 -0.0129
21063W        W36957  12.022  10.955  14.698  0.1135  0.1949  0.2110
21064W        W36958   0.253  14.269   1.099 -0.2577 -0.1082  0.4347
21065W        W36959  10.624  15.608  12.492 -0.0745  0.0589  0.1480
21066W        W36960  14.845   1.865  12.348 -0.1121  0.1043  0.0666
21067W        W36961   5.596  10.682   4.853  0.0573  0.3967  0.0586
21068W        W36962  11.660  17.381  14.206 -0.4028 -0.1972 -0.2981
21069W        W36963   6.516  17.035  14.112  0.2184  0.1511 -0.1263
21070W        W36964  11.415   3.101   3.878  0.0467 -0.1242  0.1245
21071W        W36965   3.707   2.081  14.402  0.0943  0.2256 -0.0658
21072W        W36966   2.196   4.289  12.551 -0.2852 -0.3013 -0.0684
21073W        W36967  18.235   7.741  15.542 -0.1874  0.0599  0.1063
21074W        W36968  12.207  17.049   2.470  0.0527  0.3371 -0.1138
21075W        W36969   0.848  11.600   2.447 -0.0247 -0.1266  0.0703
21076W        W36970   7.791   4.052   4.235 -0.0841  0.0150 -0.3067
21077W        W36971   2.653   8.784   0.965 -0.1094 -0.0064 -0.0397
21078W        W36972  18.059   1.002   1.952  0.1276 -0.1162  0.1128
21079W        W36973   4.838  12.802   3.775  0.2918  0.0890  0.3917
21080W        W36974  17.433   1.007  11.527  0.1640  0.0835 -0.0796
21081W        W36975   2.812  18.231  14.533 -0.0345  0.0646 -0.0315
21082W        W36976   7.181  16.288   0.408 -0.1890 -0.0272  0.0300
21083W        W36977   3.678   5.084  16.010  0.1047 -0.0471  0.0352
21084W        W36978  11.755   7.207  11.837  0.2309 -0.2391  0.5081
21085W        W36979  16.710   6.623   5.654 -0.1648  0.2436  0.0836
21086W        W36980  13.988   4.583   2.727  0.0991  0.0440  0.0224
21087W        W36981   3.770   8.478   2.280 -0.0324 -0.0821 -0.2252
21088W        W36982   1.016   7.783   3.692 -0.3594  0.1910 -0.1381
21089W        W36983  18.345   8.500  13.371  0.0701  0.1519 -0.2123
21090W        W36984  12.105  15.440  15.678 -0.0931 -0.3493 -0.0605
21091W        W36985   6.865  11.744   3.068  0.0201  0.4721 -0.0510
21092W        W36986  16.568  14.237  14.535 -0.0343 -0.1295 -0.0164
21093W        W36987  17.909   7.000   5.375  0.0957  0.1243  0.0446
21094W        W36988   9.205  15.271  13.265 -0.1543 -0.3961 -0.1309
21095W        W36989   2.012   0.477   0.280  0.1149 -0.1592 -0.4056
21096W        W36990  15.979  15.557  14.394 -0.5521 -0.1570 -0.0956
21097W        W36991   3.806  10.798  12.025  0.0893 -0.1195  0.0454
21098W        W36992   3.220  16.105   1.918  0.5430 -0.0790  0.1169
21099W        W36993  12.270   6.398   2.932 -0.0513  0.0512 -0.2874
21100W        W36994   6.688  18.215  14.133  0.2137 -0.1636  0.0154
21101W        W36995   8.322  13.317  13.484  0.0731  0.0105 -0.0907
21102W        W36996   4.481  17.417  15.656 -0.1229 -0.1362 -0.1574
21103W        W36997  15.020  10.496  11.309 -0.1140  0.0459 -0.1465
21104W        W36998  10.952   8.049  15.819 -0.0444 -0.1978  0.0901
21105W        W36999  13.543   5.740  15.792 -0.0026 -0.1974 -0.0688
21106W        W37000  10.782  17.408  14.131 -0.1085 -0.0394  0.3601
21107W        W37001   0.710   0.161   4.634  0.0991  0.2578 -0.0021
21108W        W37002  13.111  10.373  14.056 -0.0808  0.0827  0.1078
21109W        W37003   8.268   1.170  11.789  0.1185  0.1264 -0.3933
21110W        W37004  15.621   9.609   5.115 -0.0462 -0.2879  0.0033
21111W        W37005   3.954   1.944  13.728  0.1292  0.1369  0.1951
21112W        W37006   5.246  17.800  12.497  0.0466 -0.1379 -0.4499
21113W        W37007   7.983  11.891  12.427  0.1583 -0.0140  0.1518
21114W        W37008  17.292  16.317   1.175  0.1770  0.2275 -0.0457
21115W        W37009   8.344   2.067  12.088 -0.1016 -0.0905 -0.0211
21116W        W37010  15.072   1.654  14.211 -0.1556  0.4897  0.1325
21117W        W37011  13.705  18.220  15.903  0.1049  0.3740 -0.1376
21118W        W37012  12.372   0.104  13.661  0.1753 -0.1529 -0.1467
21119W        W37013   1.424  17.645   2.500  0.0596  0.0687  0.0117
21120W        W37014  15.247  14.988  11.824 -0.1449  0.3194  0.1967
21121W        W37015   8.430  13.056   1.500  0.0896 -0.1403  0.0748
21122W        W37016  13.945   5.291   3.989 -0.0714  0.0553 -0.2167
21123W        W37017   8.201  16.127   0.249 -0.0217 -0.2075 -0.1863
21124W        W37018   9.631   1.664   2.565  0.2972  0.1709  0.0878
21125W        W37019  14.798   6.428   3.670 -0.0013  0.4025  0.3223
21126W        W37020   8.022  16.633  15.804  0.1849 -0.1108 -0.0783
21127W        W37021  11.799   1.877  10.785  0.1109  0.0827  0.2105
21128W        W37022   3.287   6.756   5.986  0.0739 -0.2663 -0.2958
21129W        W37023  16.764  15.529   4.580  0.1060 -0.2498 -0.1220
21130W        W37024   3.085   9.361   2.041  0.0469  0.0168  0.2283
21131W        W37025  15.797   9.865   3.056 -0.3847 -0.1163 -0.2228
21132W        W37026   8.809  16.694  14.111 -0.2720 -0.3125  0.2019
21133W        W37027  12.106   3.553   2.892  0.0666 -0.0006 -0.0166
21134W        W37028   5.787   6.218   0.899 -0.0386 -0.0037 -0.2475
21135W        W37029  10.224   8.656  12.611  0.3353  0.0823  0.1788
21136W        W37030   8.281  14.298  15.471 -0.0604  0.1854  0.0843
21137W        W37031  15.368   4.395   2.977 -0.0217 -0.0399  0.0428
21138W        W37032  11.576  10.872  11.224  0.2043  0.0260 -0.4648
21139W        W37033  18.457   4.493   3.879 -0.1046  0.6307  0.0369
21140W        W37034  15.728   6.687  15.397  0.6401 -0.3043 -0.0600
21141W        W37035   8.161   0.227   4.944  0.0347  0.1759 -0.0863
21142W        W37036  11.523  16.616  12.721  0.1534  0.1425  0.0022
21143W        W37037   7.134   7.278  14.592 -0.2187 -0.2074  0.1891
21144W        W37038  16.310   8.360   1.766  0.2369  0.3955  0.0005
21145W        W37039  12.023  16.241  14.904 -0.0059 -0.1408  0.1742
21146W        W37040  10.820   3.100   6.102  0.1202 -0.0711 -0.0272
21147W        W37041  15.012  14.005   3.839  0.0649 -0.0647  0.3135
21148W        W37042  13.167  10.047   2.681 -0.0660 -0.3800  0.3506
21149W        W37043   2.113   5.852  12.840  0.2959  0.0284 -0.0591
21150W        W37044   0.256  14.181  11.850 -0.2422 -0.3200 -0.1698
21151W        W37045  16.210   6.342   0.198 -0.2547  0.0370 -0.0824
21152W        W37046   1.667   0.253  14.611 -0.1146  0.3125  0.0212
21153W        W37047  14.471  11.034   1.270  0.0801  0.2430 -0.0300
21154W        W37048  14.963  10.890   0.269 -0.0171 -0.1113 -0.0537
21155W        W37049   1.888  11.796  15.063 -0.0398 -0.1566 -0.2928
21156W        W37050   4.275   5.678   0.599  0.0396  0.1718  0.0031
21157W        W37051   0.417  15.311  15.682  0.2401 -0.1201 -0.4703
21158W        W37052   2.176   4.411   1.164  0.0507 -0.1633  0.1592
21159W        W37053  15.851   6.934  13.627  0.2917  0.2020  0.3369
21160W        W37054  17.629  18.154  11.550 -0.1329 -0.0168 -0.2639
21161W        W37055  16.400  17.176  15.804 -0.0587  0.3372 -0.2317
21162W        W37056   2.210   0.080   3.483 -0.0900  0.3172 -0.0021
21163W        W37057  15.841   0.271   1.837 -0.2845 -0.0863  0.3019
21164W        W37058   6.162  15.173   5.367 -0.2373 -0.0071  0.1325
21165W        W37059   5.559   5.048   3.200 -0.4395 -0.0004  0.0485
21166W        W37060   2.047   7.595  11.381  0.0343 -0.0507 -0.1343
21167W        W37061  13.274   5.623   1.375 -0.1612  0.2333 -0.0089
21168W        W37062  17.019   1.269  13.165 -0.0792  0.3960  0.2009
21169W        W37063   1.267   7.477   3.126  0.2181  0.0328 -0.0272
21170W        W37064   7.902   3.194  11.934 -0.3928  0.0645  0.0213
21171W        W37065   9.684  11.880   0.424  0.2038 -0.0766  0.3164
21172W        W37066  15.159   6.126  12.637 -0.1855 -0.1085  0.3325
21173W        W37067   6.213  16.480  14.404  0.0412 -0.5311  0.1187
21174W        W37068  18.066   2.430  13.018 -0.0383  0.2856  0.1495
21175W        W37069  10.895   0.923   2.585 -0.5157  0.3151  0.1190
21176W        W37070  11.601   7.642   1.888 -0.0763  0.0030  0.3491
21177W        W37071  12.839  16.700   4.933 -0.0699  0.0992 -0.1920
21178W        W37072   7.555  12.637   5.171 -0.3951  0.1130  0.1403
21179W        W37073   6.972   7.102  12.406  0.1540  0.2596  0.1860
21180W        W37074  15.313  13.176   4.961 -0.0770  0.1008  0.1142
21181W        W37075   9.662  17.636   0.244  0.3804  0.2310  0.1775
21182W        W37076   3.395  13.884   3.912  0.1351  0.1639  0.0665
21183W        W37077  17.305   0.375   3.168 -0.0520  0.0109  0.0406
21184W        W37078   7.513  14.013  12.792  0.2516 -0.2225  0.2699
21185W        W37079  10.381   0.482   1.898  0.3135  0.2593  0.2162
21186W        W37080   1.681  11.610   4.238 -0.1058 -0.0939 -0.3711
21187W        W37081  16.866   4.264   3.611  0.3481  0.0334  0.0631
21188W        W37082  17.961   8.919  12.049  0.0757  0.0988 -0.1118
21189W        W37083  10.233   0.114   1.393 -0.0176 -0.0467  0.3132
21190W        W37084   7.894   5.587  14.018  0.0457 -0.0795  0.1585
21191W        W37085   7.294   5.291   5.235 -0.0734  0.1337 -0.0940
21192W        W37086   7.357  16.592   2.057  0.1852  0.3124 -0.2516
21193W        W37087   7.415  14.831  13.810 -0.1938 -0.1003 -0.1453
21194W        W37088  13.033  14.952   1.613  0.0279  0.0810 -0.0947
21195W        W37089   2.075   9.111   2.002  0.1379  0.1024  0.1084
21196W        W37090  11.176  10.681   2.344  0.0721  0.0475 -0.1065
21197W        W37091   6.639  14.394   4.819 -0.0474  0.2801 -0.0449
21198W        W37092   1.972  13.745  11.542  0.1464 -0.0809 -0.1417
21199W        W37093  11.875  15.357   0.040 -0.0796 -0.0761  0.1411
21200W        W37094  16.517   9.175   4.978 -0.1889  0.0220 -0.0842
21201W        W37095  13.563  16.561   1.575  0.3052  0.2853  0.0002
21202W        W37096   4.084   3.480   2.847 -0.1551 -0.1103 -0.2829
21203W        W37097   8.999  11.472   4.762 -0.5108  0.1166  0.1566
21204W        W37098   1.754  16.817  13.569 -0.1886  0.0469 -0.2456
21205W        W37099  11.286  15.107   2.027  0.3108 -0.1558  0.4034
21206W        W37100   3.546   4.497   3.944 -0.0079  0.1171 -0.2842
21207W        W37101   3.742  12.032  13.287  0.1192  0.2006 -0.1819
21208W        W37102   7.668  14.251   2.285  0.3793  0.0638  0.0355
21209W        W37103   4.889  17.024  12.097 -0.1786 -0.1792  0.0672
21210W        W37104   0.621   9.692   2.253 -0.2637  0.0401 -0.0157
21211W        W37105   0.716   4.885   5.393  0.1494  0.2346  0.2677
21212W        W37106   3.514  10.865   3.821  0.3311  0.0086  0.0402
21213W        W37107   6.456   3.579   3.856 -0.0479 -0.2416 -0.2028
21214W        W37108  11.548   7.128   1.682 -0.0577  0.1532  0.4454
21215W        W37109  17.195   1.435  11.433 -0.0119 -0.0047  0.0576
21216W        W37110   6.147   9.622   2.124 -0.1188 -0.0016  0.0439
21217W        W37111  12.127  10.041  11.548  0.3076  0.2249 -0.2146
21218W        W37112  15.912  15.144  12.749  0.1404  0.4142  0.1304
21219W        W37113  15.918   5.083  11.694  0.1177  0.0973 -0.0650
21220W        W37114  15.495   6.770   4.116  0.0149  0.3013  0.5271
21221W        W37115  13.201   0.627   4.321 -0.1757  0.1415  0.0496
21222W        W37116   5.083  13.905  11.125 -0.1259 -0.0887 -0.0086
21223W        W37117  10.540  10.709  12.891  0.1318 -0.1210 -0.0245
21224W        W37118  12.071  15.123  13.120 -0.2197 -0.1666  0.0500
21225W        W37119   2.136  14.033   3.210 -0.0895 -0.3561 -0.0532
21226W        W37120   4.280   7.745   1.814  0.0253  0.0593 -0.2079
21227W        W37121  11.178   5.922   5.689 -0.2900 -0.0517  0.0266
21228W        W37122   2.552   3.561  11.212  0.3128  0.4371 -0.1786
21229W        W37123   3.433   6.451  15.219 -0.1957  0.1313 -0.2385
21230W        W37124   8.750  15.046  11.247  0.2021 -0.1388 -0.0217
21231W        W37125   0.252  17.709   3.186  0.1636 -0.3568  0.3435
21232W        W37126  14.574  15.354   3.880  0.2315 -0.0967  0.3780
21233W        W37127   8.057   2.423  10.805  0.1912 -0.1691 -0.2129
21234W        W37128  14.367  14.682  14.329  0.2568  0.1163  0.2629
21235W        W37129   0.979  12.706  11.532 -0.0165 -0.3794 -0.0016
21236W        W37130   5.708  17.175  13.561 -0.2139  0.0571 -0.0824
21237W        W37131   6.048  12.766  13.579  0.1634  0.1685 -0.0614
21238W        W37132  12.428  13.395   5.780  0.0024 -0.1421  0.1819
21239W        W37133  18.030   5.250   5.341  0.3344  0.5731  0.1719
21240W        W37134  17.729  14.938  14.435 -0.0262  0.1958 -0.0595
21241W        W37135   8.322   0.201  13.699 -0.2739  0.2483  0.3101
21242W        W37136  17.867  15.817   0.716  0.0302 -0.2765 -0.2044
21243W        W37137   1.660  10.518   1.434  0.3381 -0.2622 -0.0644
21244W        W37138   1.323  16.408  15.874  0.2101  0.3268 -0.0126
21245W        W37139   3.507   8.916  12.934  0.1754  0.0658 -0.0254
21246W        W37140   4.331  10.030   1.294  0.0931 -0.0827 -0.0709
21247W        W37141  16.504  17.832  14.910 -0.1058 -0.0686 -0.3033
21248W        W37142  15.817   7.678   0.751 -0.2573  0.0634  0.0720
21249W        W37143   7.417  10.101  15.352 -0.2018  0.1839 -0.1923
21250W        W37144  17.830   9.432   4.209 -0.0101 -0.2851 -0.1338
21251W        W37145  17.257  11.963  14.254 -0.0900 -0.1742  0.1501
21252W        W37146  17.527  15.334  14.089 -0.0956  0.4258 -0.3120
21253W        W37147  15.434   5.210  15.817  0.1776 -0.0696  0.0128
21254W        W37148  10.553   2.193  14.863 -0.2251  0.0269 -0.0725
21255W        W37149  12.012  15.900   4.253  0.0612 -0.2241 -0.1453
21256W        W37150  16.327   6.897   3.761 -0.1950 -0.0456 -0.0741
21257W        W37151  17.876  18.340  15.802 -0.1890 -0.0572  0.3097
21258W        W37152   8.223  11.075  12.684 -0.0275  0.1001  0.0011
21259W        W37153   6.917  16.832  12.899 -0.0910  0.1863 -0.0261
21260W        W37154  10.128  12.828   1.717 -0.1561 -0.0919 -0.0629
21261W        W37155   8.499  17.253   2.405  0.1497  0.0001 -0.0373
21262W        W37156   8.631   3.440  15.850  0.0231  0.2556 -0.1520
21263W        W37157  15.054   3.850  15.582 -0.2058  0.2621 -0.2488
21264W        W37158   0.668  12.174   3.274 -0.4699 -0.1764  0.1017
21265W        W37159   6.014   5.641  14.179  0.2846 -0.1009 -0.1107
21266W        W37160  15.376  17.112   6.028 -0.0855 -0.1115  0.1994
21267W        W37161  18.092   2.805   0.712  0.2473 -0.3100  0.1144
21268W        W37162   7.851  11.763  13.809  0.0759 -0.0349 -0.0676
21269W        W37163  12.131   3.120   3.214  0.3054 -0.1669  0.1096
21270W        W37164   4.423   9.502  15.795  0.0258  0.1862 -0.0588
21271W        W37165  11.070  15.321  13.398  0.0623  0.0172 -0.0301
21272W        W37166  10.538  14.560   1.134  0.2052 -0.0437  0.1513
21273W        W37167   9.729  10.883  16.070 -0.2863  0.1083 -0.1021
21274W        W37168   6.663  11.351  10.429  0.1132  0.1548 -0.0265
21275W        W37169  18.427  14.400  12.963  0.1746  0.0541  0.0392
21276W        W37170   8.282   9.264  14.675 -0.0044 -0.0763 -0.0240
21277W        W37171   9.879   8.908  14.885 -0.0690 -0.3509 -0.1393
21278W        W37172   3.743  11.325  12.647  0.0129 -0.2766 -0.1764
21279W        W37173   4.496  13.211   2.862  0.0833  0.1834  0.1016
21280W        W37174  14.131   0.074  11.934  0.0676  0.0586 -0.2410
21281W        W37175  14.609  13.181   0.563  0.3863  0.0395  0.1375
21282W        W37176   8.395   0.781  13.453 -0.0035 -0.1668 -0.3389
21283W        W37177   5.826   7.321   1.121  0.1305  0.2359 -0.0574
21284W        W37178   0.696   4.398  16.125  0.1345  0.2675 -0.1367
21285W        W37179   9.818   6.508   0.238 -0.1793 -0.1626 -0.2579
21286W        W37180   4.022  17.817  14.658 -0.3616  0.0964 -0.2112
21287W        W37181  17.517  15.889   4.015 -0.4570 -0.1993  0.0528
21288W        W37182  12.584   9.155   4.391 -0.2281  0.0060  0.2559
21289W        W37183  14.841  14.659  11.833  0.0079 -0.3647  0.0365
21290W        W37184  14.709   0.080  11.882 -0.0350  0.1041 -0.0183
21291W        W37185   8.381  17.757  13.141 -0.1326  0.2279 -0.2491
21292W        W37186   8.912  18.143   0.425 -0.0847 -0.0196 -0.2307
21293W        W37187   2.899   0.051   0.490  0.0487  0.0671  0.0011
21294W        W37188   8.047   6.940   5.292  0.0716  0.0943  0.0082
21295W        W37189  10.864   5.145   1.574 -0.2156 -0.1045 -0.0901
21296W        W37190   9.014  16.233   3.679 -0.1078 -0.0660 -0.2786
21297W        W37191   1.824  14.743  11.415 -0.3361  0.0176  0.0890
21298W        W37192   8.379   8.265  11.975  0.2010 -0.1463  0.2001
21299W        W37193   0.126   4.904  15.992 -0.1292  0.1569  0.4363
21300W        W37194   8.568  12.531  12.827  0.1362  0.1577  0.0620
21301W        W37195   8.420   2.320  13.520 -0.1088  0.0585  0.2675
21302W        W37196  17.594   5.777  13.620 -0.0415 -0.2994  0.4081
21303W        W37197   3.089   7.963  11.958  0.0631  0.0134 -0.0883
21304W        W37198   2.018   2.015   0.876 -0.3030  0.1201  0.0525
21305W        W37199   9.161   2.355  13.654 -0.2477 -0.0449  0.1271
21306W        W37200   7.157   0.381   0.029  0.3650  0.3110  0.0733
21307W        W37201   1.626  12.745   5.477 -0.0670 -0.1744  0.1296
21308W        W37202  11.136   0.829   5.209 -0.0437  0.0417 -0.1842
21309W        W37203   0.109   1.346  15.829  0.1278  0.3009  0.1594
21310W        W37204  12.015  16.891  10.382  0.2658  0.0674  0.2028
21311W        W37205   3.954   6.902  11.319 -0.3308 -0.2200  0.0960
21312W        W37206  18.108  14.873  16.001  0.0549  0.1744  0.4540
21313W        W37207   0.771  18.150  15.767  0.0984 -0.0823 -0.2243
21314W        W37208   8.634   7.997  12.658  0.0233  0.1940 -0.0225
21315W        W37209   3.171  10.822  15.305  0.0380 -0.0095  0.0871
21316W        W37210   1.937  11.849   3.700 -0.0041 -0.0048  0.0079
21317W        W37211   8.669  14.279  11.098 -0.2587 -0.4286  0.3730
21318W        W37212   7.119   6.532  14.950  0.2845 -0.4279 -0.1843
21319W        W37213  17.624   4.447  13.783  0.0160  0.1657  0.0643
21320W        W37214  12.349   6.388  13.125  0.2720 -0.1197 -0.1956
21321W        W37215   6.100   7.995  14.205  0.1211  0.0471 -0.1309
21322W        W37216   7.042  14.364  15.738 -0.1530 -0.2932 -0.2424
21323W        W37217  14.208   8.589   0.195 -0.0139 -0.1042  0.4316
21324W        W37218   8.447  18.333   4.111 -0.1569 -0.0028  0.1958
21325W        W37219  16.348  12.475   3.802 -0.0760  0.0693  0.1226
21326W        W37220  12.625   4.699  11.658  0.1519 -0.4691 -0.1509
21327W        W37221  17.968  16.306  14.520  0.1209  0.3026 -0.1833
21328W        W37222   5.904  13.295   6.034 -0.2882 -0.1878  0.1605
21329W        W37223  18.224   4.561  15.819 -0.0302  0.2722 -0.0271
21330W        W37224   3.828  18.104  15.947 -0.1358  0.1320  0.3289
21331W        W37225   3.885  17.810   1.226 -0.0511 -0.0923 -0.1405
21332W        W37226   0.950  15.015  11.001  0.2869 -0.0965 -0.3529
21333W        W37227   4.587  17.541   0.821 -0.1073  0.1436 -0.1330
21334W        W37228   8.844  17.588   2.619 -0.1688  0.3060 -0.0874
21335W        W37229   9.239  11.452  11.031  0.1444  0.0077  0.1228
21336W        W37230   0.251  12.558  15.797  0.1147  0.0143 -0.0720
21337W        W37231   4.795   0.437   5.287 -0.1244  0.1704  0.0794
21338W        W37232   2.266  15.309   4.992  0.1395 -0.0627 -0.0873
21339W        W37233  12.122   6.947  12.651 -0.0107 -0.2579  0.0011
21340W        W37234   0.824  12.797  14.429  0.0940  0.3543 -0.2852
21341W        W37235   0.060  11.804  15.147  0.1428  0.1673 -0.0881
21342W        W37236  15.713   6.060  12.702 -0.1229 -0.3567 -0.2477
21343W        W37237  17.123   6.046   2.092 -0.1975 -0.1189 -0.0735
21344W        W37238   4.402   6.833  11.719  0.1060 -0.1848  0.3492
21345W        W37239  13.219  13.498  15.573  0.1714  0.0506 -0.0124
21346W        W37240  12.901   8.661  14.606  0.2989  0.1765  0.2078
21347W        W37241  17.733   7.780  14.567  0.2049  0.0750  0.0111
21348W        W37242   1.585  15.437   5.829 -0.0459  0.1165  0.0396
21349W        W37243   4.311  12.240  11.934 -0.0019 -0.0499 -0.1517
21350W        W37244   2.128   4.557  10.445 -0.0670 -0.0945 -0.0738
21351W        W37245   7.269  13.522  11.778 -0.4195 -0.1509 -0.1219
21352W        W37246  13.240  15.450   5.344  0.1928  0.0957 -0.0454
21353W        W37247  10.589   2.431  15.746 -0.1124  0.2614  0.2291
21354W        W37248   4.729   5.751  11.676  0.0435  0.0098 -0.1310
21355W        W37249  16.503  15.840   4.890 -0.0350  0.1899  0.0257
21356W        W37250   3.902   5.348   0.190 -0.1435  0.0750 -0.1408
21357W        W37251   9.152   8.699  11.800  0.1139 -0.0831  0.1882
21358W        W37252  18.067  13.682   5.040 -0.1727  0.0032  0.0703
21359W        W37253   2.329   4.039   0.552 -0.0410  0.1770 -0.1610
21360W        W37254   6.421   4.220  10.545  0.0429  0.3117  0.0922
21361W        W37255   9.223  13.404  13.350 -0.1638 -0.1330 -0.2389
21362W        W37256   1.820   2.646  14.471 -0.2843 -0.0750  0.0859
21363W        W37257   1.571  14.545   5.628  0.1070 -0.1524  0.0473
21364W        W37258  14.991   8.370   4.108  0.0574 -0.1318  0.0965
21365W        W37259  18.040   8.235   4.168  0.0204  0.0608  0.3993
21366W        W37260  10.050  15.093   2.168  0.0004  0.2426 -0.0402
21367W        W37261   7.765  11.502   0.795  0.1525 -0.0405 -0.1732
21368W        W37262  16.702   0.745  11.970 -0.2896  0.0226 -0.1774
21369W        W37263  18.150  17.639   1.687 -0.0599  0.1231  0.1891
21370W        W37264   5.619  13.992  15.733  0.0979 -0.2355  0.1874
21371W        W37265   7.830   5.625   0.829  0.0414 -0.3441  0.0094
21372W        W37266   5.284   9.293   4.082 -0.0858  0.3016 -0.1127
21373W        W37267   0.078  11.117   4.275  0.2125 -0.2426 -0.3874
21374W        W37268   0.705  11.351   3.421 -0.0302 -0.2306  0.1380
21375W        W37269  17.683  13.983  13.283  0.3149 -0.2553  0.2346
21376W        W37270  17.749   3.907  13.656  0.4438  0.0269 -0.0068
21377W        W37271  14.372   9.115   0.295 -0.1062 -0.1760  0.1883
21378W        W37272   6.375   4.966  11.538 -0.0838  0.0113  0.0924
21379W        W37273   8.933  16.413   2.499 -0.2658 -0.1544 -0.2632
21380W        W37274  10.058  14.637  11.999  0.0052 -0.1471 -0.2278
21381W        W37275   0.864  12.672   4.487 -0.1663 -0.0644  0.0771
21382W        W37276  16.035   8.864   4.082  0.1386 -0.1080 -0.0311
21383W        W37277  17.701   3.958   0.098 -0.0660  0.0046  0.1629
21384W        W37278   4.955  14.163   1.884 -0.0460  0.3451 -0.0834
21385W        W37279  17.871   9.133  12.861  0.1654  0.1857  0.2174
21386W        W37280   2.171   4.795  14.455 -0.0858  0.1362 -0.1467
21387W        W37281   6.525   4.143   2.173 -0.0451 -0.1498  0.0724
21388W        W37282   4.601   0.364  12.632  0.0910 -0.1133  0.1398
21389W        W37283  14.501  12.691   5.863  0.2933 -0.1233  0.0006
21390W        W37284   8.093   6.873  14.412  0.0618  0.3951  0.1681
21391W        W37285  16.212  17.468   5.504  0.2524 -0.1676 -0.2092
21392W        W37286   0.644  17.262  14.910  0.2071  0.3240  0.6109
21393W        W37287  13.677   1.003  13.265  0.0230  0.1815 -0.0799
21394W        W37288   1.475  15.404   4.613  0.2239 -0.0680  0.1885
21395W        W37289  16.340   6.410   2.336  0.2017  0.3988 -0.1362
21396W        W37290   2.581   8.641   5.196 -0.3518  0.3710  0.0831
21397W        W37291   0.040  16.974  11.170  0.0155 -0.2735  0.2891
21398W        W37292  12.408  15.591  13.136  0.0547  0.2537  0.3390
21399W        W37293   5.438   7.625  12.959  0.0794  0.3930  0.0128
21400W        W37294   9.125  13.864  10.816  0.3420  0.0586  0.0172
21401W        W37295   3.965  16.642   2.667  0.1870  0.1642  0.2606
21402W        W37296   3.370   5.680  11.917  0.1461 -0.1719  0.0106
21403W        W37297   1.938  11.975  15.637 -0.2653  0.0156  0.1138
21404W        W37298  16.744   8.122  12.847 -0.0372 -0.0865 -0.0612
21405W        W37299   4.760   3.510   5.012  0.0248 -0.1292  0.0610
21406W        W37300   9.401   8.078  14.817 -0.2941 -0.0223 -0.1116
21407W        W37301  16.299  16.872   1.591 -0.1291  0.1125 -0.1129
21408W        W37302   7.623  17.285   1.606  0.0041 -0.2510 -0.1289
21409W        W37303   7.918  17.760   5.791  0.0896 -0.1548 -0.2458
21410W        W37304  18.149  14.508  13.429 -0.0352  0.0694  0.0726
21411W        W37305   1.950  13.973  15.504  0.5317 -0.1018 -0.3010
21412W        W37306   1.617   8.806  13.735  0.1822  0.0675  0.2894
21413W        W37307  10.735   6.741  12.390  0.0321  0.0144 -0.3441
21414W        W37308   7.583   0.088   1.153 -0.0676  0.0888 -0.2590
21415W        W37309  15.657  14.247   4.582 -0.1033  0.3109  0.2339
21416W        W37310   5.056  18.111   5.009  0.1930 -0.0673  0.1673
21417W        W37311  13.475  11.349   1.072  0.0478 -0.0355 -0.2035
21418W        W37312  11.624  15.595  14.803  0.1344  0.0117  0.2106
21419W        W37313   2.514  13.850  15.489  0.1875  0.2256  0.0603
21420W        W37314   2.645   9.038   4.828  0.0435  0.2436  0.0404
21421W        W37315  17.246   7.001   2.049 -0.0926 -0.2795 -0.0369
21422W        W37316   8.308  18.431   0.757  0.0158 -0.0939 -0.2650
21423W        W37317   4.392   0.695   1.562 -0.3067  0.0708 -0.3482
21424W        W37318  12.644  14.133  12.733  0.3687  0.1373  0.2927
21425W        W37319  16.376   2.322  13.505  0.0859  0.1745 -0.0285
21426W        W37320   8.481  14.756   1.389  0.0231  0.2117 -0.0574
21427W        W37321   9.024   5.635  15.944 -0.1947 -0.1246 -0.0465
21428W        W37322   8.453  13.431   2.467 -0.1069 -0.0657  0.1772
21429W        W37323  12.565   6.106  15.077  0.2041 -0.0518 -0.0362
21430W        W37324   7.221   9.218  13.488  0.0256 -0.0822 -0.0308
21431W        W37325   5.791   5.650  10.573  0.0710 -0.0232 -0.1969
21432W        W37326   4.217  17.536  15.197 -0.2229  0.0873 -0.0661
21433W        W37327   7.622   9.261  13.784 -0.0253 -0.0611 -0.0535
21434W        W37328  12.323  13.351   1.545 -0.1072  0.2299  0.1114
21435W        W37329  15.401   0.971   4.682 -0.0897 -0.0593  0.1843
21436W        W37330  17.067   4.404  13.338  0.1411 -0.2522  0.0594
21437W        W37331  15.690  13.009  16.032  0.2660  0.2631 -0.2085
21438W        W37332   9.758  14.272  10.218  0.0749  0.0752 -0.0279
21439W        W37333  11.087   3.926   2.171  0.0480  0.0535 -0.2515
21440W        W37334   6.430  13.349   5.833  0.0831  0.1439  0.2469
21441W        W37335  11.382   6.556  12.038 -0.0851 -0.0780 -0.0673
21442W        W37336   2.570   3.071   4.634  0.1627 -0.1072 -0.1487
21443W        W37337   2.209   8.652  13.097  0.0120  0.1401 -0.1551
21444W        W37338  18.256  11.967   4.387  0.1437 -0.4979  0.0487
21445W        W37339   3.569  12.022   1.409 -0.1745 -0.0897 -0.1202
21446W        W37340  16.392   0.596   6.086  0.3977  0.0765  0.1450
21447W        W37341   2.239   5.200   5.467 -0.4375 -0.0053  0.1738
21448W        W37342  11.386   2.104  14.373 -0.0873 -0.3847 -0.4059
21449W        W37343  16.425  10.796  14.117 -0.0657  0.0090  0.1968
21450W        W37344  10.023   9.473  13.322  0.0743  0.3208 -0.1491
21451W        W37345  11.832   4.804   4.341  0.0903 -0.1016  0.0826
21452W        W37346   8.613  14.986   5.037 -0.1461 -0.0567  0.0227
21453W        W37347   5.848   6.605  14.328 -0.4934 -0.0982 -0.1337
21454W        W37348   4.128   2.019   3.522 -0.0053  0.1589 -0.0192
21455W        W37349  16.264  17.311  11.990 -0.2029 -0.0059  0.3009
21456W        W37350   5.973   6.014   5.105  0.3285 -0.1422  0.1122
21457W        W37351   1.031  11.035  13.866 -0.0989 -0.0342 -0.1237
21458W        W37352   1.439   6.406   2.983 -0.2743 -0.0920  0.0067
21459W        W37353  15.294  10.997   4.767 -0.0406  0.1366  0.3554
21460W        W37354  10.938   7.741  12.680  0.2459 -0.4664  0.1754
21461W        W37355   5.841   6.667   2.534  0.0222  0.2328  0.0345
21462W        W37356   0.743   3.090  13.529  0.2639 -0.0853  0.2456
21463W        W37357  11.965  15.012   3.653 -0.1055 -0.2335  0.1002
21464W        W37358   0.275  16.717   2.915  0.2253  0.1070  0.0301
21465W        W37359  12.418  13.675   4.131  0.0878  0.0041  0.1527
21466W        W37360   8.448   3.495  10.896 -0.2248 -0.3229 -0.2487
21467W        W37361   2.961   6.687  14.815  0.4098  0.2105 -0.2625
21468W        W37362   2.889   1.757   1.472  0.1255  0.1637 -0.0009
21469W        W37363   5.229  15.189  12.508  0.1511  0.1922 -0.0093
21470W        W37364  12.280   9.250  14.617  0.1176 -0.0362  0.1393
21471W        W37365   9.804   4.430   2.730  0.5307  0.5019 -0.1330
21472W        W37366   3.354  14.919   1.419  0.3218 -0.1729 -0.1447
21473W        W37367   3.438   2.876   4.374 -0.0189  0.2531  0.0594
21474W        W37368  12.894  17.170   5.902 -0.1693  0.2683 -0.1623
21475W        W37369  15.579  15.341  12.184 -0.0989  0.0758 -0.0596
21476W        W37370  16.128  13.931   4.546 -0.0054  0.1955  0.3637
21477W        W37371   8.933  12.044   3.357 -0.0581  0.1666  0.0713
21478W        W37372  11.971   7.958   1.717 -0.0319 -0.1232 -0.1975
21479W        W37373   9.438  11.006   4.126 -0.2411 -0.0151  0.1249
21480W        W37374  16.812  10.086  14.564 -0.0350  0.4751  0.0469
21481W        W37375   8.603  15.987   5.892  0.2275 -0.3186  0.1263
21482W        W37376   5.482  18.179  10.566  0.3162 -0.0063  0.0742
21483W        W37377   2.293  13.429  11.301 -0.0921 -0.1725 -0.2411
21484W        W37378   2.260   9.562  12.573 -0.0689  0.0003  0.0036
21485W        W37379   7.569  13.598  15.162  0.1504  0.0207  0.0190
21486W        W37380   6.326  17.469  14.256 -0.1001  0.0049 -0.1975
21487W        W37381   2.307   8.394   1.495 -0.0732 -0.1876 -0.0580
21488W        W37382  10.114  10.825   2.315 -0.2451 -0.1966 -0.1680
21489W        W37383  10.091   4.577  10.795  0.0060  0.2964  0.0214
21490W        W37384  13.072   2.915   3.945 -0.3214  0.1365  0.3761
21491W        W37385   3.003   6.253   2.501 -0.0490 -0.1523 -0.0023
21492W        W37386  17.065   4.884   0.982  0.0286 -0.2546  0.0387
21493W        W37387   2.518   9.149  13.207 -0.0603  0.2085 -0.1709
21494W        W37388  13.277   6.828  13.203  0.0548 -0.3150 -0.3151
21495W        W37389  17.335   3.103  15.089  0.1476 -0.1974 -0.2843
21496W        W37390   5.410   5.050  11.275  0.4520 -0.0992  0.0398
21497W        W37391  12.293   8.430   0.209  0.1052 -0.0842  0.1401
21498W        W37392   3.742   5.560  15.270 -0.0706 -0.1224  0.1855
21499W        W37393  12.319  15.146   1.128  0.0283  0.0652 -0.0427
21500W        W37394   2.122  18.252  10.528  0.0063 -0.2716 -0.0997
21501W        W37395   4.424   4.724   0.607  0.1749 -0.0742 -0.3944
21502W        W37396  17.384   9.298   1.918 -0.3654  0.0161  0.1787
21503W        W37397  16.675   7.709  13.587  0.3152 -0.0980 -0.0317
21504W        W37398  13.470  12.743   5.082  0.0918  0.0491 -0.0913
21505W        W37399   3.025  11.849  14.562  0.2205  0.3438 -0.1895
21506W        W37400   3.188   6.770   3.699 -0.2104 -0.0514  0.2410
21507W        W37401   0.968   4.931   2.327 -0.1547 -0.1631 -0.0875
21508W        W37402  13.289   8.090   2.170 -0.2622 -0.2444  0.3388
21509W        W37403   2.099  16.902  13.113  0.1423  0.1172 -0.0544
21510W        W37404  17.434   1.431  13.425 -0.0326  0.0481 -0.2485
21511W        W37405  12.113   1.546  14.740 -0.1143 -0.1972 -0.0053
21512W        W37406  12.298  17.267   3.380  0.3953 -0.0534  0.1038
21513W        W37407   1.608  17.309   2.799  0.0338 -0.2401 -0.1172
21514W        W37408   0.736   5.913  11.426  0.3034 -0.1799  0.1783
21515W        W37409   5.779   3.792  13.533 -0.1071  0.1154  0.0502
21516W        W37410   4.899  10.176  15.003 -0.2011  0.1813  0.0224
21517W        W37411  14.265   4.455   4.479 -0.0088  0.3702  0.1210
21518W        W37412  10.488  12.086  11.587 -0.2235  0.1436  0.2260
21519W        W37413  12.690   0.059  12.514 -0.5239 -0.1609 -0.0076
21520W        W37414  16.334   5.410   0.702 -0.2142  0.3586  0.0155
21521W        W37415  12.326  11.747   0.601  0.2161  0.0893  0.0160
21522W        W37416  11.644   7.137   1.135 -0.1238 -0.0366  0.3753
21523W        W37417  11.530   1.608  13.032 -0.0287 -0.1582 -0.0838
21524W        W37418  11.050  14.552   3.390 -0.0156  0.1460  0.4120
21525W        W37419  13.942  15.934   4.887 -0.0090  0.2461 -0.0514
21526W        W37420  11.910   0.641  14.327 -0.1091 -0.1926 -0.2945
21527W        W37421  16.187   7.018   5.442  0.0016 -0.1811 -0.0369
21528W        W37422  10.709  16.777   0.211 -0.2090 -0.1020 -0.4688
21529W        W37423  12.806  11.038  12.931 -0.0342  0.4243 -0.1863
21530W        W37424   9.345   9.375  12.841  0.1377 -0.1327  0.0874
21531W        W37425  13.379   3.587   3.486  0.1414  0.2680  0.0640
21532W        W37426   7.071   9.082  12.612 -0.0890 -0.0621 -0.3860
21533W        W37427   7.093   6.643   4.758  0.2637 -0.0138  0.0304
21534W        W37428   7.554  11.986  12.064  0.0944  0.0433 -0.0091
21535W        W37429   9.750  16.407   4.984 -0.0945 -0.2032  0.0968
21536W        W37430  17.703   8.606   2.747 -0.0253 -0.2381  0.2402
21537W        W37431  17.184  15.636   2.508 -0.0464 -0.2682 -0.0872
21538W        W37432  15.903  16.098  11.204 -0.1111  0.1756  0.1973
21539W        W37433   3.406  16.188  12.171  0.1178  0.2598 -0.0425
21540W        W37434   6.862  10.407   3.169  0.1080 -0.0921  0.5530
21541W        W37435  12.017   5.127   4.979 -0.0233 -0.0688  0.2092
21542W        W37436   0.776  18.411   2.379  0.3925 -0.3368  0.1208
21543W        W37437  13.080  10.488   0.581 -0.2059  0.0830 -0.0492
21544W        W37438  15.620  11.368  12.764  0.0928 -0.1208  0.1016
21545W        W37439   2.334   6.632  12.200 -0.0382 -0.2250  0.3762
21546W        W37440  16.630  10.007  11.523  0.1151 -0.0900 -0.1858
21547W        W37441   0.527  13.751   5.308  0.0278 -0.4997  0.1378
21548W        W37442   4.147   9.788   5.628  0.2149 -0.1208  0.0957
21549W        W37443  13.247  12.291  11.132  0.1665  0.0015 -0.0762
21550W        W37444   8.735   2.882  12.197  0.1121 -0.2645 -0.1939
21551W        W37445  13.811  13.935  14.036 -0.2439  0.0824  0.0649
21552W        W37446  13.529  10.534  13.637  0.3904  0.0580  0.2434
21553W        W37447   4.184   4.198   1.848 -0.1158  0.0705 -0.2827
21554W        W37448   8.036  13.039   0.638 -0.0585 -0.0404  0.0969
21555W        W37449  15.596  16.965  11.492  0.2501  0.0800  0.0222
21556W        W37450  18.448   0.714   2.642  0.2704  0.2183 -0.1094
21557W        W37451  15.697  17.980  14.451  0.2761 -0.3895  0.0179
21558W        W37452   8.691   6.169  12.547  0.0358  0.2381  0.0229
21559W        W37453   8.130  11.522  13.466 -0.1157 -0.0914  0.0982
21560W        W37454  13.377  11.735   1.650  0.2873  0.2015 -0.0693
21561W        W37455   6.856   9.816   2.696 -0.4462 -0.2440  0.0050
21562W        W37456  13.447   6.246  14.968 -0.1068 -0.4638  0.1468
21563W        W37457   5.482  15.030   3.378 -0.2248 -0.2845 -0.1261
21564W        W37458  13.369   3.459   0.913  0.0050 -0.0930  0.1348
21565W        W37459   8.688   5.301  14.087 -0.1158 -0.4616  0.0856
21566W        W37460   7.095  17.260  12.076  0.2324 -0.1405 -0.2116
21567W        W37461   6.825  17.683  13.431  0.1535  0.2543 -0.3653
21568W        W37462  14.749   2.718   4.070 -0.1993  0.1305  0.3604
21569W        W37463   5.494  11.593   0.504 -0.2041  0.1229  0.0787
21570W        W37464   6.905   3.005   1.795 -0.2600  0.1042  0.2982
21571W        W37465   4.229   1.554  12.477 -0.3887  0.1321  0.1666
21572W        W37466  17.656   5.866  12.880  0.0556  0.0222  0.1080
21573W        W37467   1.954   1.278  14.784 -0.0450 -0.0051  0.0885
21574W        W37468   0.477   7.161  12.149 -0.3880  0.0983  0.0962
21575W        W37469  15.738  16.929   1.915 -0.0158  0.1128  0.0694
21576W        W37470  13.284   8.150  15.358  0.1388  0.1583  0.2211
21577W        W37471  10.841  14.857   1.986  0.0642 -0.0211  0.2379
21578W        W37472  11.211  14.037   4.592  0.0947  0.2544 -0.1052
21579W        W37473  11.769   3.990  10.872 -0.1302 -0.1145 -0.1155
21580W        W37474   3.076  11.926   1.256  0.0891 -0.1534  0.0148
21581W        W37475   0.306   7.218  15.301 -0.1578 -0.1259  0.3107
21582W        W37476   9.066  14.145  11.329  0.1050  0.0112 -0.0595
21583W        W37477  12.898   5.099  11.724  0.0071 -0.1172  0.1438
21584W        W37478  13.473  15.602  11.202  0.0231 -0.3233 -0.1641
21585W        W37479  13.987   3.915  14.009 -0.3655 -0.0225 -0.1887
21586W        W37480   2.048   2.083  11.151  0.1715  0.3825 -0.2148
21587W        W37481  12.584  10.129  13.164 -0.3540  0.1459  0.0284
21588W        W37482   2.993  13.711   4.136  0.3370 -0.2259 -0.3860
21589W        W37483   2.223  12.032   2.167  0.2536 -0.0122 -0.3280
21590W        W37484  18.252   3.554   1.501 -0.1958 -0.1185 -0.0056
21591W        W37485   1.472  10.543  13.342  0.1703  0.2402  0.3081
21592W        W37486   7.445   3.733   3.988  0.0405  0.0318 -0.1095
21593W        W37487   9.602  13.810   2.431  0.1362  0.3010  0.0117
21594W        W37488  16.196   1.598  16.032 -0.0479 -0.0764  0.0933
21595W        W37489  12.596   9.763   1.928 -0.1720 -0.0057 -0.2092
21596W        W37490  10.134  10.697  11.407 -0.0805 -0.1848 -0.2553
21597W        W37491   8.416   0.649   0.745  0.3596 -0.2970  0.3020
21598W        W37492   0.203   6.837  13.537 -0.0151 -0.0202 -0.0507
21599W        W37493  13.737  12.037   3.678 -0.2021 -0.4057  0.0157
21600W        W37494  11.415  12.658   2.137 -0.1277 -0.0729  0.3619
21601W        W37495   4.679   8.078   3.894  0.2942 -0.0261 -0.0719
21602W        W37496   4.501  13.078  14.771  0.2589  0.2744  0.1996
21603W        W37497   1.283   3.811   5.656 -0.0304 -0.1738 -0.2260
21604W        W37498   8.452  18.128  11.125  0.2983 -0.0848 -0.2600
21605W        W37499   9.759  14.924  11.403  0.1326 -0.0652  0.2726
21606W        W37500  18.323  11.838   0.744 -0.1453 -0.2498 -0.0739
21607W        W37501  13.441  15.586  15.706 -0.2556  0.0281 -0.1779
21608W        W37502   6.688   7.926   5.294  0.2005 -0.2213  0.2486
21609W        W37503   4.239   8.664  16.045 -0.2182  0.2407 -0.1605
21610W        W37504   8.139  12.615  13.089 -0.2085  0.0763 -0.3128
21611W        W37505   4.488   8.012  11.208  0.0326  0.1454 -0.2420
21612W        W37506  13.298   1.796   0.484  0.0822 -0.1984 -0.0740
21613W        W37507  10.065   0.810   4.909 -0.0967  0.1553 -0.2323
21614W        W37508   7.211  15.859  14.439  0.0636  0.2741  0.0956
21615W        W37509   3.810  16.739   4.672  0.0257  0.2193 -0.1385
21616W        W37510  11.341   8.410  13.487 -0.1340  0.1013 -0.1394
21617W        W37511   1.820  14.119   0.160  0.2894 -0.3197  0.2301
21618W        W37512  14.067  13.314   0.792  0.1123  0.1237 -0.1640
21619W        W37513  11.910   5.176   0.313 -0.0116  0.2886 -0.2120
21620W        W37514  10.863   8.312   4.551 -0.1926 -0.2592  0.1555
21621W        W37515   6.509   3.004   3.271 -0.0786 -0.0861 -0.1610
21622W        W37516  14.233  14.066   1.037 -0.0000  0.1238 -0.1362
21623W        W37517   2.572  14.390  10.465 -0.1409  0.1046 -0.0938
21624W        W37518  11.038  18.348   3.588 -0.1392 -0.0970  0.0084
21625W        W37519   7.367  12.753  13.233 -0.1366  0.1316 -0.0056
21626W        W37520   3.700   3.419  12.723  0.0216 -0.1475 -0.0731
21627W        W37521  14.669  10.635  11.980 -0.2555  0.0219  0.0772
21628W        W37522  14.058  15.681  11.241 -0.0192 -0.2945  0.0617
21629W        W37523   7.880   3.520   4.101  0.0065 -0.0214  0.2083
21630W        W37524  13.739  12.755   2.314 -0.4010  0.1388  0.1714
21631W        W37525  17.597  16.299   3.664  0.0877 -0.1910  0.0509
21632W        W37526   2.679  12.589   2.939  0.4047 -0.3376 -0.1558
21633W        W37527   0.768   6.582   0.483  0.0769 -0.0878  0.0890
21634W        W37528   4.874  11.272   5.898 -0.1856 -0.2311 -0.1712
21635W        W37529  16.161  12.360  13.226  0.1972  0.1400  0.1913
21636W        W37530   5.161   0.441   0.614 -0.1213  0.0037 -0.0186
21637W        W37531   6.758   5.949   0.830  0.1558  0.0387 -0.2259
21638W        W37532   1.771   5.101   5.512 -0.0265 -0.0750  0.1989
21639W        W37533   9.387   5.479   4.361 -0.0662 -0.2736 -0.0438
21640W        W37534  12.467   6.016   1.407  0.3665 -0.0629 -0.0504
21641W        W37535  14.404  13.651  15.574 -0.2223  0.2445  0.0189
21642W        W37536  10.212   6.446   5.325  0.0891  0.1021 -0.0786
21643W        W37537   7.806   3.312   2.797  0.0816 -0.3582 -0.2605
21644W        W37538  17.807   4.779  16.017 -0.0515 -0.0993 -0.3048
21645W        W37539  10.423  15.369  10.953 -0.0135  0.1632  0.0199
21646W        W37540  13.649   9.746   1.839 -0.0390 -0.0595 -0.0950
21647W        W37541   9.569   7.643   5.022 -0.1378 -0.1999 -0.1215
21648W        W37542  12.567   7.408   0.103 -0.2775 -0.5622  0.1159
21649W        W37543  10.451  16.017  13.444 -0.2539  0.0780 -0.0295
21650W        W37544  14.551   1.036  11.352  0.0596 -0.2667  0.3400
21651W        W37545   9.374  12.469   4.351 -0.0129  0.1414  0.1591
21652W        W37546   8.466   4.072  15.809 -0.0922  0.0947  0.2755
21653W        W37547   2.895  10.721  12.330  0.0265  0.1080 -0.0494
21654W        W37548   4.918   7.990  12.169 -0.1490  0.0929  0.2536
21655W        W37549   2.906   6.216   3.594  0.1534  0.2051  0.2231
21656W        W37550  11.330   0.636  14.437  0.0547 -0.2076 -0.3027
21657W        W37551   1.050  17.124  11.560  0.4745 -0.3237  0.2092
21658W        W37552   2.897   2.713   4.751 -0.1034 -0.0707 -0.1498
21659W        W37553  14.524  12.831   3.401 -0.0880 -0.0908 -0.1572
21660W        W37554  15.969   4.577  11.848  0.0886  0.3624 -0.0664
21661W        W37555   9.045   8.877   3.797  0.0848  0.0083 -0.1765
21662W        W37556   7.178   1.900   5.018  0.2253 -0.0706 -0.2907
21663W        W37557  17.814  12.887   5.348 -0.0652 -0.0024  0.0123
21664W        W37558   3.395  13.113  11.616 -0.3215  0.0484  0.0735
21665W        W37559  12.157  16.017  10.903 -0.0455  0.1104  0.5816
21666W        W37560   9.868  10.258   4.459 -0.0320 -0.1537 -0.0987
21667W        W37561   3.230   7.430   1.636  0.0396  0.2901  0.0193
21668W        W37562   1.653  10.739  15.842 -0.1628  0.1277  0.0218
21669W        W37563   9.606  13.162   1.537  0.1512  0.1037 -0.1633
21670W        W37564  13.282  16.053   1.059  0.0524 -0.1462 -0.1539
21671W        W37565  15.817  12.236  14.140  0.2318  0.0446 -0.0499
21672W        W37566   7.506  14.878   2.665 -0.0248 -0.0047 -0.0638
21673W        W37567  12.828   0.986   3.761  0.0963  0.2176 -0.1351
21674W        W37568  18.389  12.822  14.751 -0.0380  0.1005 -0.0268
21675W        W37569   3.852   5.963  15.967 -0.0803 -0.2555 -0.3831
21676W        W37570   5.758  14.628  11.203 -0.0552  0.0442  0.0260
21677W        W37571   1.075   3.037  13.878  0.2045  0.1201  0.1819
21678W        W37572  15.213   0.692   1.735 -0.0118 -0.0033 -0.0318
21679W        W37573  12.150   5.878  13.292  0.1301 -0.2127 -0.0906
21680W        W37574   5.660   4.623  13.064  0.0799  0.4218 -0.2771
21681W        W37575  11.186  17.366   1.534  0.1400 -0.2259 -0.2305
21682W        W37576  15.166  10.572  15.328  0.0563 -0.0590 -0.3220
21683W        W37577   8.099   1.264  10.384  0.2124  0.0976 -0.0209
21684W        W37578  10.079  11.590  12.734 -0.3173 -0.1238  0.0573
21685W        W37579  12.434   4.552   5.922  0.0897 -0.0372 -0.2467
21686W        W37580  18.367   1.018  13.354 -0.2094  0.0460  0.2082
21687W        W37581   0.386  18.265  14.528  0.0148  0.3149 -0.5183
21688W        W37582   9.439  17.738  11.767 -0.1962 -0.0943 -0.1449
21689W        W37583  12.286  17.216  16.099  0.0134  0.0746  0.0478
21690W        W37584  13.464  17.085  11.831 -0.0188 -0.2788 -0.3433
21691W        W37585  15.459  12.282  13.143 -0.5065  0.0426 -0.2519
21692W        W37586   9.592   5.525  11.837 -0.0979 -0.0095  0.0000
21693W        W37587   7.871  13.514  13.741  0.0902 -0.3689  0.2973
21694W        W37588  12.294  12.359   4.812  0.0696 -0.3775  0.0448
21695W        W37589   2.364   5.751  12.013 -0.1828  0.2172 -0.0200
21696W        W37590   4.968   7.116   4.219 -0.0926 -0.2394  0.1376
21697W        W37591   1.922   9.073  14.936 -0.3472 -0.2000 -0.1915
21698W        W37592  15.963  12.478  11.589 -0.2345 -0.2224 -0.0096
21699W        W37593  12.181   9.823  12.902  0.1762  0.0268  0.2218
21700W        W37594   3.523   8.284   1.685  0.0485  0.0252  0.1337
21701W        W37595   4.065   5.142  15.139  0.1006 -0.1246 -0.1161
21702W        W37596   0.490  11.220   2.196  0.0847 -0.0826  0.4960
21703W        W37597   1.801   3.217  10.593  0.0323  0.1936  0.3501
21704W        W37598  15.084   9.988  12.706 -0.0929  0.0399  0.0807
21705W        W37599  11.354  13.583   0.493 -0.0896 -0.4386  0.2535
21706W        W37600  17.051  17.285   3.812  0.0782  0.1874 -0.2171
21707W        W37601   8.007   2.247   2.123  0.3486 -0.2227 -0.0274
21708W        W37602  10.877   7.282  15.202 -0.3723 -0.1844 -0.1090
21709W        W37603  18.419   9.704   4.447 -0.2857  0.3056 -0.2942
21710W        W37604  14.657   7.350  12.817 -0.0339 -0.3115 -0.3473
21711W        W37605   5.841   7.685   4.144 -0.0736 -0.2529  0.1978
21712W        W37606   0.909  15.374   4.020  0.2706 -0.0047 -0.1109
21713W        W37607   6.421   3.465  13.323 -0.2646  0.1181  0.2502
21714W        W37608   0.294  16.457  14.985 -0.0671  0.2409 -0.2739
21715W        W37609   4.830  12.009  15.145 -0.1614 -0.2052 -0.1379
21716W        W37610   5.668   8.729  15.278  0.3148  0.0457 -0.0790
21717W        W37611  12.261   7.621   2.924  0.4660 -0.1002 -0.3178
21718W        W37612   6.268   4.848  15.508  0.0721  0.2526 -0.0139
21719W        W37613  15.567   5.535   1.329  0.0184 -0.1625  0.0443
21720W        W37614  16.983   8.966   4.240  0.0192 -0.0983 -0.0955
21721W        W37615  13.141   0.151  12.861  0.0550 -0.1482  0.0375
21722W        W37616   3.669   9.848   2.966  0.1200 -0.2276  0.0273
21723W        W37617   0.614   1.766  12.104  0.0947  0.2803 -0.0815
21724W        W37618   0.507  16.121  14.624 -0.2456  0.1637 -0.1190
21725W        W37619   6.265   5.450   5.889 -0.4969 -0.0360  0.0435
21726W        W37620   8.569  16.417  12.926  0.0288 -0.0220 -0.2541
21727W        W37621  13.032   2.849   5.030 -0.1501  0.1679 -0.1703
21728W        W37622   5.175  10.966   6.126 -0.0750 -0.0749  0.0709
21729W        W37623  16.783  16.380  14.405 -0.2485 -0.0916  0.0143
21730W        W37624   4.235  16.212  11.677 -0.0385  0.0703 -0.1972
21731W        W37625  12.628   3.247   0.047 -0.0433  0.1350  0.1017
21732W        W37626  11.578  15.897   1.533 -0.0414  0.1596 -0.2140
21733W        W37627  15.162  10.757  12.176  0.2149  0.0339  0.4348
21734W        W37628  16.199   2.983  11.784  0.0501 -0.0357 -0.2229
21735W        W37629   8.316   8.913  12.190 -0.2321  0.2059 -0.0293
21736W        W37630   6.390   0.847   1.293  0.1491  0.2556  0.3477
21737W        W37631  17.490   9.727   1.670 -0.0014 -0.2243 -0.2488
21738W        W37632  11.599  11.661  12.506 -0.2648 -0.1590  0.1085
21739W        W37633  14.749  14.126   1.738  0.0974  0.1290 -0.1528
21740W        W37634   2.507   6.724  12.934  0.1022  0.0726  0.2322
21741W        W37635  15.824   1.526   3.676 -0.0093  0.0476  0.1450
21742W        W37636   3.327   7.551   0.662 -0.3224  0.2160  0.1843
21743W        W37637  17.697  11.121   0.132  0.2679  0.0114 -0.0812
21744W        W37638   3.755   9.585  11.271 -0.1825 -0.3600  0.1143
21745W        W37639   5.016   7.136  11.027  0.1224  0.1368  0.2064
21746W        W37640  13.395   0.550   3.218  0.3632  0.1682 -0.0683
21747W        W37641  17.505  15.229  11.637 -0.2480 -0.0022  0.1069
21748W        W37642   2.369  13.563   0.538 -0.1965 -0.1176 -0.0489
21749W        W37643   6.847  10.700   4.119 -0.0391 -0.1621 -0.2685
21750W        W37644   7.835   0.963   4.375  0.1625  0.2643 -0.1491
21751W        W37645   6.616   9.796  15.739 -0.0735 -0.1121 -0.0288
21752W        W37646   4.760   1.576  12.710  0.1687  0.5324 -0.0341
21753W        W37647   2.246   4.973  16.036  0.0435  0.1760 -0.0312
21754W        W37648   9.835  13.161   4.422 -0.2188 -0.0150  0.0541
21755W        W37649   8.581   5.758  10.670  0.0749 -0.1374 -0.3818
21756W        W37650  16.162  13.479  11.864 -0.1789 -0.0715 -0.1740
21757W        W37651  12.735   4.362   3.274 -0.1507 -0.0636  0.0504
21758W        W37652   7.328   1.290  13.701 -0.1217 -0.1198  0.2793
21759W        W37653  11.083  14.234  14.346  0.0553  0.1593 -0.0682
21760W        W37654  14.870  10.158   0.016 -0.1044  0.1901 -0.0642
21761W        W37655   3.238  18.248  14.931  0.0921  0.3856  0.0646
21762W        W37656   8.854  14.047   4.141 -0.1438  0.2794 -0.0211
21763W        W37657   4.504  18.408  12.383  0.2170 -0.1076  0.0596
21764W        W37658  18.076   6.132   5.436  0.1477 -0.1365 -0.1815
21765W        W37659   0.842  10.747  14.512 -0.2362  0.0318 -0.0619
21766W        W37660   0.261   3.070  13.339  0.1401  0.0822  0.3538
21767W        W37661  13.106  15.496  12.373  0.2781  0.3291 -0.3056
21768W        W37662   6.273   4.113  12.044  0.2573 -0.0861  0.2965
21769W        W37663   2.194   1.539   3.322  0.1251  0.0603 -0.0040
21770W        W37664  17.892  17.886   5.837 -0.0740  0.1323 -0.1271
21771W        W37665   7.947   9.627  13.663 -0.0342 -0.0385  0.1683
21772W        W37666   1.871   2.953   3.209 -0.2907  0.1970  0.2128
21773W        W37667   6.726   3.456   0.251  0.2379 -0.0763 -0.0316
21774W        W37668   9.400  12.791   0.197 -0.0910  0.1123 -0.0321
21775W        W37669  14.752   9.219   2.754 -0.2939  0.0353  0.1116
21776W        W37670  10.671  11.810   0.543  0.2284  0.1495  0.3598
21777W        W37671  12.442  17.227   0.433  0.2375  0.2179 -0.3714
21778W        W37672   2.634   2.544   2.078  0.2250  0.1156 -0.1510
21779W        W37673  18.396   1.979   2.606  0.3660  0.1627  0.0178
21780W        W37674  11.368   6.472   0.022  0.0954  0.1233 -0.1518
21781W        W37675  10.319   6.290  11.018  0.0247  0.0419  0.2359
21782W        W37676  15.700  15.576   5.539 -0.0798  0.1163 -0.0328
21783W        W37677   3.972   4.924   0.528  0.0846  0.0673  0.1005
21784W        W37678   0.291   1.505  15.362  0.0874 -0.1083  0.0767
21785W        W37679   9.450  18.025  12.763 -0.3280 -0.2443  0.0044
21786W        W37680   5.908   8.635   4.588 -0.0598 -0.0168  0.6475
21787W        W37681   0.374  12.488   3.958  0.1880  0.0703  0.1138
21788W        W37682   8.786   6.674  13.917  0.0722 -0.0947  0.3149
21789W        W37683  14.564  13.080  15.202 -0.0115  0.0210  0.1166
21790W        W37684  17.620  13.340   2.833  0.2272  0.1015 -0.2346
21791W        W37685   2.638   3.221   4.028  0.2475 -0.3126  0.2827
21792W        W37686  17.679  11.838  14.614  0.3323  0.1616  0.2046
21793W        W37687   9.022  12.551   3.511 -0.0069 -0.0007 -0.0526
21794W        W37688   5.250  15.195   1.569  0.0860 -0.2332 -0.1187
21795W        W37689   7.420  12.193  15.522  0.0300  0.0016 -0.0931
21796W        W37690   2.375  15.540  12.336 -0.0541 -0.0299  0.0310
21797W        W37691   5.747  11.162   3.462 -0.0164  0.0847  0.2291
21798W        W37692   9.649   4.410  11.067  0.3928  0.1155  0.0112
21799W        W37693  12.253   6.491   3.773  0.0311 -0.0721  0.0290
21800W        W37694   9.826   3.519  11.293 -0.0762  0.0219  0.1293
21801W        W37695  13.885   1.138   4.901 -0.1949 -0.1258  0.3800
21802W        W37696   3.650   8.810   5.385  0.0365  0.0316  0.0625
21803W        W37697   2.543  14.804  14.813  0.0700  0.1655  0.2001
21804W        W37698   2.517  12.223   2.611 -0.0640 -0.0769 -0.0917
21805W        W37699   5.693  12.334  14.891 -0.0890  0.0420  0.2149
21806W        W37700   0.947   3.741   3.904 -0.4250 -0.0560 -0.2472
21807W        W37701  10.097   3.522   5.111  0.2116  0.0720 -0.0970
21808W        W37702  11.509  17.886   0.938  0.2048 -0.0159 -0.0044
21809W        W37703  10.426   9.084  12.126 -0.1220 -0.2071 -0.1096
21810W        W37704   6.176  12.357   1.352  0.2498 -0.0260 -0.0211
21811W        W37705  17.325   9.355   4.375  0.1279  0.0801 -0.0122
21812W        W37706   9.499  15.444  13.645 -0.0444  0.0229  0.2603
21813W        W37707   0.231   8.876   5.373 -0.1885 -0.0724  0.0556
21814W        W37708   6.177  11.921   3.733  0.1229  0.6931 -0.1038
21815W        W37709  15.393  10.221  13.886 -0.0234  0.0475 -0.0083
21816W        W37710   0.013  17.729   3.617  0.0135  0.1256  0.2756
21817W        W37711   6.035   8.887   3.150 -0.0302 -0.0187  0.2758
21818W        W37712   3.685   8.130  13.512 -0.1285 -0.1819 -0.0139
21819W        W37713  17.534  12.723   1.689  0.0101 -0.0353  0.0080
21820W        W37714   1.060   8.292   3.887 -0.1394  0.1723 -0.1755
21821W        W37715   9.102  12.050  14.812  0.2125  0.0871  0.0987
21822W        W37716  12.642   5.916  13.385  0.0931  0.1349  0.0192
21823W        W37717  14.973  18.113  16.118  0.1581 -0.1681  0.1741
21824W        W37718  11.819   0.174  16.057 -0.1958  0.4053 -0.0823
21825W        W37719   6.314  16.966  12.121  0.1690  0.3808  0.1589
21826W        W37720  17.335  17.056  13.582  0.0364 -0.1968 -0.1415
21827W        W37721   1.757   2.626  12.084 -0.1899  0.1683 -0.2374
21828W        W37722   9.122   5.997   4.686  0.0526  0.2981 -0.3138
21829W        W37723   6.279   8.994   5.500 -0.1071 -0.0569 -0.1521
21830W        W37724   7.902   5.983   5.713 -0.0438 -0.0841 -0.2700
21831W        W37725   3.960  12.147  14.353 -0.1796 -0.0713  0.0517
21832W        W37726   3.680   6.478   4.326  0.2759  0.1344  0.2732
21833W        W37727  18.223   1.486   2.040 -0.0520  0.0938  0.3391
21834W        W37728   9.536  11.537  13.191 -0.0448 -0.1664  0.0734
21835W        W37729   2.780   7.121  11.499  0.2102 -0.1847  0.3220
21836W        W37730  18.207  14.723  15.049  0.3307  0.0765  0.2236
21837W        W37731  10.930   3.000   4.850  0.1266 -0.0241  0.2745
21838W        W37732  12.225   3.798   6.083 -0.2256 -0.0501  0.0725
21839W        W37733  16.451  15.793  11.973 -0.0821  0.2278  0.0648
21840W        W37734  12.153   9.411   3.635 -0.0532  0.0172 -0.6592
21841W        W37735   0.565  10.278  12.941  0.2573 -0.1678 -0.1140
21842W        W37736  14.767  12.063  11.666 -0.2060  0.3576 -0.0335
21843W        W37737  12.880   1.056   2.281  0.0920 -0.1516  0.1406
21844W        W37738  14.927   1.952  15.815  0.0948  0.2161  0.1084
21845W        W37739  12.200   7.893   2.190  0.0869  0.2116 -0.2573
21846W        W37740  16.416   4.672  12.528 -0.1042 -0.2388  0.0996
21847W        W37741  12.817  12.787  13.138  0.3421  0.1670 -0.1173
21848W        W37742  11.304   9.933  12.570 -0.0372 -0.2837 -0.3612
21849W        W37743  14.107  10.796  11.172 -0.2518  0.0092 -0.1965
21850W        W37744   2.777   3.871   5.480 -0.0290 -0.0931  0.0440
21851W        W37745   6.422  16.477   3.896 -0.0302 -0.0909  0.2847
21852W        W37746  12.847   4.678  13.979 -0.1092 -0.0884 -0.1472
21853W        W37747   0.069   0.678   3.491  0.3397  0.0504  0.1301
21854W        W37748  12.601   0.194  13.162 -0.0134  0.2480  0.1239
21855W        W37749  16.226   5.195   2.429  0.3553 -0.3121  0.0381
21856W        W37750   4.687   5.097   1.702  0.0142  0.1254  0.1765
21857W        W37751   2.502   0.572  15.573 -0.1575  0.1829 -0.1020
21858W        W37752   5.096  13.631   0.350  0.2177 -0.0145  0.1132
21859W        W37753  12.829  14.397   3.145  0.0272  0.2339 -0.0730
21860W        W37754   4.414  12.067  10.840 -0.0370  0.2467 -0.2935
21861W        W37755  10.676  18.345  14.647  0.0627 -0.0747  0.1695
21862W        W37756   5.823  17.067  12.129 -0.0312  0.3561 -0.1492
21863W        W37757   8.759  15.878  13.772 -0.0026 -0.1085 -0.1697
21864W        W37758  14.625  14.493  15.948 -0.1103 -0.0552  0.0682
21865W        W37759  14.224   1.575  14.442  0.1867  0.2251 -0.0930
21866W        W37760   7.760  17.001   5.366  0.3132 -0.2213 -0.2608
21867W        W37761  15.322  15.829  14.080  0.1876  0.3325  0.2553
21868W        W37762   5.553  16.969  14.073 -0.3024 -0.1734  0.0263
21869W        W37763   8.859   1.049  14.712 -0.0497 -0.0308  0.1837
21870W        W37764   4.271   5.682   0.033 -0.3501  0.0810 -0.0200
21871W        W37765  15.339  10.638   0.851  0.0761 -0.0251  0.0125
21872W        W37766  13.557  10.111   5.378 -0.2553  0.0270 -0.2206
21873W        W37767  16.998  13.958  12.327 -0.0604 -0.1153 -0.0866
21874W        W37768  12.848   7.929  14.541  0.1308 -0.1348 -0.1569
21875W        W37769  10.133   5.621   1.098  0.1540 -0.3280 -0.0559
21876W        W37770  15.220  10.613  14.690  0.1423  0.2566  0.0844
21877W        W37771   6.437   1.687  13.573  0.2428  0.0367 -0.0946
21878W        W37772  12.708   6.232   2.830 -0.0588  0.1533  0.1201
21879W        W37773  13.404  13.214   2.269 -0.1724 -0.1633 -0.1170
21880W        W37774   7.708   7.898  11.479  0.0408 -0.2159  0.2369
21881W        W37775  18.171  11.189   2.844  0.1736 -0.2194 -0.1230
21882W        W37776   2.057   7.826  11.846 -0.1736  0.0687 -0.4924
21883W        W37777   5.628   0.215   4.472  0.0844 -0.0356 -0.0379
21884W        W37778   6.541   5.805  15.275  0.2419  0.1931  0.0593
21885W        W37779  17.896   1.478   5.566 -0.1409  0.1328  0.1411
21886W        W37780  16.814   2.353   3.738  0.1164  0.5449  0.1118
21887W        W37781  13.534  15.924   2.699 -0.2118  0.0822 -0.1295
21888W        W37782  14.861  14.851  12.764  0.4028 -0.0512  0.1574
21889W        W37783   2.025  18.104   5.069 -0.0425 -0.0279 -0.1964
21890W        W37784   2.656  10.418   1.684 -0.1495 -0.0867 -0.0577
21891W        W37785   8.013  14.817  16.129 -0.2528 -0.0614 -0.0209
21892W        W37786  10.114  13.145  12.432 -0.1519  0.0402 -0.1032
21893W        W37787   5.101  15.131  11.209  0.0433 -0.1196 -0.1637
21894W        W37788  16.695  17.244   1.264  0.0860 -0.0260 -0.1704
21895W        W37789   5.336   1.970  15.605 -0.3000  0.3093 -0.0557
21896W        W37790   5.226  15.442  13.371  0.2517  0.1117 -0.0366
21897W        W37791   7.261   4.853   5.705 -0.1606  0.1456  0.2513
21898W        W37792   2.135   9.522  15.088 -0.1410 -0.1077  0.1941
21899W        W37793   3.876   4.727  14.851 -0.1309  0.1802  0.1119
21900W        W37794   3.013   8.121   4.191 -0.0100 -0.2716  0.3079
21901W        W37795   7.345  11.516   0.583 -0.2601  0.0751 -0.1474
21902W        W37796   8.054   5.394   1.314  0.2570  0.0785 -0.3954
21903W        W37797   3.163  12.153  15.521 -0.1376  0.0293  0.0058
21904W        W37798   4.863  10.023   3.001  0.0688 -0.2330  0.0892
21905W        W37799   5.052  14.586  11.053 -0.1831 -0.3262 -0.1220
21906W        W37800   2.450   6.142   6.348  0.3204  0.0900  0.0587
21907W        W37801   6.505   2.641   0.765 -0.1366 -0.1235 -0.2210
21908W        W37802   5.126  10.594   3.863  0.2953 -0.3348 -0.2497
21909W        W37803   2.979   6.267  13.222 -0.0201  0.0948 -0.2762
21910W        W37804   5.619  14.600   3.696 -0.4803 -0.0801 -0.3328
21911W        W37805  10.353  17.138  13.993 -0.1286  0.6631  0.2989
21912W        W37806   4.043   7.020  13.967  0.0849  0.0185  0.1895
21913W        W37807   3.368   1.758  12.660 -0.0642  0.0884 -0.0684
21914W        W37808  12.268  13.465  13.290  0.0582  0.2819  0.2301
21915W        W37809  10.207   4.672   2.555 -0.0991  0.2270 -0.1962
21916W        W37810   1.761   8.085   3.678 -0.2625 -0.0905  0.0893
21917W        W37811  13.411  15.314   4.454 -0.2802 -0.1305  0.2237
21918W        W37812   9.438  11.421  14.346  0.0350 -0.1788 -0.0328
21919W        W37813  10.334   4.666  16.003  0.0536  0.3158  0.1981
21920W        W37814  14.379  12.114  11.950  0.2702 -0.2967 -0.3864
21921W        W37815   2.526  16.823  11.646  0.0160  0.0154  0.0034
21922W        W37816   2.907   2.274   3.992 -0.1980  0.1018 -0.0771
21923W        W37817  11.671  13.662  11.489 -0.2508 -0.0796 -0.0207
21924W        W37818   5.680  18.030   0.872  0.0347 -0.0978 -0.0672
21925W        W37819   8.994   8.513   1.468  0.0277 -0.1230  0.0513
21926W        W37820  16.339  16.025  10.978 -0.1925  0.0731  0.0538
21927W        W37821  15.483   6.505  12.613 -0.1128 -0.0347  0.1836
21928W        W37822  16.428   0.850  13.786  0.0406  0.1110 -0.3623
21929W        W37823   7.300  17.646   1.518 -0.0159 -0.1480 -0.2541
21930W        W37824   8.021   7.645   0.276  0.3057  0.3249 -0.4272
21931W        W37825   0.481   1.295   4.212 -0.2728  0.1390 -0.0844
21932W        W37826  17.973   9.435   3.248  0.0536 -0.2754 -0.0722
21933W        W37827   7.839   9.300   3.294 -0.3612 -0.0476  0.1311
21934W        W37828   7.598   0.937  13.529  0.0713 -0.2397  0.0781
21935W        W37829   7.293   1.437  15.987 -0.5387 -0.1682 -0.3259
21936W        W37830   1.417   8.299   3.409  0.4534  0.0983  0.0654
21937W        W37831   0.139   1.309  11.033  0.1360 -0.0120  0.0351
21938W        W37832  16.928  16.512   4.401  0.2458  0.2110 -0.0213
21939W        W37833   1.219  15.884   3.897  0.0330  0.0196  0.0591
21940W        W37834   0.388  15.801   0.824 -0.0055 -0.1934  0.3647
21941W        W37835   2.076   7.647   3.539 -0.2063  0.1352  0.4710
21942W        W37836   0.475   7.697   2.557  0.2637 -0.0271  0.2157
21943W        W37837  17.758   7.818   6.145 -0.1179  0.2016  0.1418
21944W        W37838   0.276  14.951   3.729  0.0862  0.1092 -0.0587
21945W        W37839   0.300  17.552  12.069  0.1132 -0.0153  0.2988
21946W        W37840   7.523  10.954   3.599 -0.1082  0.0579  0.0153
21947W        W37841   7.076  16.518  13.733 -0.0781  0.0085  0.0525
21948W        W37842   9.410  15.166   4.112  0.0147 -0.0540  0.0273
21949W        W37843  11.765  17.616  16.051 -0.1776  0.0323 -0.1805
21950W        W37844  14.208   9.884  12.562  0.0456 -0.0519  0.0877
21951W        W37845  14.410   7.218   1.775  0.1983  0.1275  0.0219
21952W        W37846   6.881   3.569  13.082 -0.1610  0.0087  0.0426
21953W        W37847   5.560  15.638   1.645  0.1675  0.0537 -0.1422
21954W        W37848  14.491  12.846   0.897 -0.0611  0.1523 -0.1410
21955W        W37849   0.765  13.461  13.820 -0.0067  0.0489 -0.1058
21956W        W37850  12.846   8.677  15.120 -0.0286  0.0758 -0.1389
21957W        W37851   8.912   3.963   5.322  0.1309 -0.0601  0.2445
21958W        W37852   0.208  15.645  15.392  0.0692  0.2416 -0.1696
21959W        W37853  16.303   2.958   1.353  0.2016  0.2600  0.1129
21960W        W37854   7.533   3.522   5.351  0.0792  0.2655 -0.1971
21961W        W37855   3.426  17.910   2.309  0.1583  0.1646 -0.1475
21962W        W37856   3.681  14.901  15.686  0.3133 -0.3174 -0.1173
21963W        W37857   0.897  11.234   0.447 -0.0051 -0.1464 -0.2664
21964W        W37858  14.670   9.799  13.314 -0.1204  0.0282 -0.0181
21965W        W37859  11.086   9.495   3.779 -0.4057 -0.1178 -0.0551
21966W        W37860  12.544  14.483  11.360  0.4162 -0.3013 -0.0144
21967W        W37861  16.546  14.605  15.003  0.0358 -0.1330  0.1163
21968W        W37862   5.366   7.605   1.988  0.4290  0.0322  0.2444
21969W        W37863  11.104   7.569  13.917 -0.4575  0.0760 -0.1394
21970W        W37864   5.689   3.718  15.683  0.1138  0.7236  0.1364
21971W        W37865  13.809  12.179   1.473  0.1418 -0.0217 -0.3088
21972W        W37866   4.598  11.944  12.835  0.4384 -0.0324 -0.0477
21973W        W37867  13.081   6.102   4.138 -0.0018  0.2841 -0.0908
21974W        W37868   3.440  10.389  13.781 -0.4121  0.1619  0.3436
21975W        W37869   9.168   8.876   1.063 -0.0573 -0.1248 -0.2553
21976W        W37870   6.826  17.007  13.708  0.1708 -0.1228  0.0129
21977W        W37871   0.090  15.111   4.201  0.1026 -0.2822  0.0898
21978W        W37872   6.126  15.090  11.008 -0.1777  0.0999  0.2909
21979W        W37873   5.542   0.789  14.889 -0.2043  0.2064 -0.1437
21980W        W37874  17.676   2.605   4.889 -0.3423  0.1374 -0.2625
21981W        W37875  16.821   0.201  13.557 -0.2386 -0.2576 -0.0661
21982W        W37876   5.642   2.358   5.575 -0.0390  0.2379 -0.2891
21983W        W37877  12.992  10.722   4.072  0.3707  0.0953  0.2803
21984W        W37878  18.081  11.635  13.279  0.0572 -0.0848  0.1354
21985W        W37879   0.492   3.452  14.373  0.2757 -0.2307 -0.1559
21986W        W37880  11.115  12.368   3.960 -0.3095  0.1160  0.0645
21987W        W37881  17.417  16.773  15.622 -0.1265 -0.3470 -0.5762
21988W        W37882   2.971  16.591   4.590 -0.1659 -0.4488 -0.2388
21989W        W37883   8.789  10.197   3.262 -0.2171  0.1054  0.0921
21990W        W37884  14.107  15.708  14.766 -0.4234  0.0442  0.0158
21991W        W37885  12.865  11.195  11.396  0.0991  0.2159  0.0869
21992W        W37886  11.908  17.082   4.157 -0.0510 -0.0811 -0.0917
21993W        W37887   4.880   8.980  12.756 -0.2381 -0.2627  0.2597
21994W        W37888  15.097  11.930   2.113 -0.1548 -0.1720 -0.0389
21995W        W37889  13.354  10.847  14.728 -0.0282 -0.1669  0.0974
21996W        W37890   5.425   1.614  15.966 -0.1936  0.0259 -0.0374
21997W        W37891  13.062   4.646   0.240  0.0284  0.0295  0.2635
21998W        W37892   0.663  13.457   4.961 -0.0917  0.1227 -0.2454
21999W        W37893   9.671  15.949  13.525 -0.3020  0.1655  0.0968
22000W        W37894   3.302   4.199  10.999 -0.2122 -0.0107 -0.0226
22001W        W37895   0.805  16.609   3.841 -0.1353  0.0859  0.0715
22002W        W37896   5.216   1.952  11.000  0.3236  0.1372  0.0564
22003W        W37897   7.383   3.088  13.852 -0.2268 -0.1711 -0.0708
22004W        W37898   6.248   9.529  12.174  0.0979  0.0675 -0.2798
22005W        W37899   6.078  16.176   1.223 -0.1294  0.2924 -0.0826
22006W        W37900   8.677   1.762  13.992  0.0749  0.5494 -0.0837
22007W        W37901   1.246   2.149   2.710 -0.0038  0.0580 -0.1886
22008W        W37902  12.245   6.845   5.005 -0.0725 -0.1306 -0.0312
22009W        W37903   3.854   4.266  13.154 -0.2511 -0.4216  0.3238
22010W        W37904  15.694  18.375  12.632 -0.1977  0.3082 -0.0868
22011W        W37905   2.149  14.493   3.315  0.0029 -0.1639  0.2782
22012W        W37906   8.655  16.638  15.462  0.0335  0.1887  0.2092
22013W        W37907  13.340  13.007  11.043  0.0496  0.0882  0.1595
22014W        W37908  13.868  18.350   1.403 -0.2386  0.2003 -0.0276
22015W        W37909   6.473   9.136  11.884 -0.1654 -0.0411  0.0835
22016W        W37910   4.850  14.965   6.190 -0.0330 -0.2345 -0.0932
22017W        W37911  14.947  16.843  11.455  0.1599  0.2990  0.2784
22018W        W37912  17.220   3.634   6.367  0.0080 -0.0153 -0.3396
22019W        W37913   4.205   3.997   3.332  0.0413  0.2080 -0.0559
22020W        W37914  10.282  14.561  14.741 -0.2149  0.3132 -0.0603
22021W        W37915   4.471   9.025   5.101  0.0120 -0.0950  0.1863
22022W        W37916   2.457   0.290   0.359  0.1699  0.0267  0.2720
22023W        W37917   6.540   4.284   3.276  0.1539  0.3110  0.0153
22024W        W37918  13.819  11.309   4.038  0.1531  0.0007 -0.0415
22025W        W37919   3.331   0.584   4.270  0.3217  0.1477  0.0281
22026W        W37920   4.931  11.524  12.050  0.2883 -0.0787 -0.2330
22027W        W37921   8.899  11.296   3.818  0.3705 -0.0127 -0.1763
22028W        W37922  17.340  13.420  13.355  0.0486 -0.0717  0.2896
22029W        W37923   6.632   7.772  13.556  0.2348  0.3058  0.1153
22030W        W37924   7.638  13.415   3.863 -0.1254 -0.0173 -0.3190
22031W        W37925  17.173  13.552  13.933 -0.1634 -0.0430  0.0257
22032W        W37926   4.386   4.320   3.053  0.0906  0.2947  0.1201
22033W        W37927  12.835   3.230  14.998 -0.2775 -0.0108 -0.0928
22034W        W37928  16.790   1.653   3.350 -0.1030 -0.2716 -0.0270
22035W        W37929  12.070   2.572  13.170  0.2164  0.2476  0.1342
22036W        W37930   5.261  12.254  15.161 -0.1540  0.1110 -0.0194
22037W        W37931  18.176  13.591  15.272 -0.0020  0.1954 -0.2872
22038W        W37932  12.651   3.952   5.137  0.2345  0.1115 -0.3904
22039W        W37933   7.685  16.362   0.048  0.0539  0.0969 -0.2861
22040W        W37934   1.467  16.395  13.473 -0.0158  0.2739  0.1152
22041W        W37935   4.247  11.796   5.391  0.0889 -0.0497 -0.3204
22042W        W37936   4.765   1.280   3.197  0.0108  0.2361 -0.1524
22043W        W37937  12.638   2.965   4.740 -0.4074  0.0493 -0.1428
22044W        W37938   6.128   4.678  13.835 -0.2690  0.1259 -0.2850
22045W        W37939  10.773   0.669   0.906 -0.0947 -0.0994  0.0013
22046W        W37940   4.087  12.503   5.163 -0.1352 -0.0449  0.1183
22047W        W37941  11.867  18.403   4.087 -0.2869  0.0583 -0.1165
22048W        W37942  12.056   5.476  11.619 -0.0204 -0.0477  0.0803
22049W        W37943   9.320   6.829  12.589  0.0784 -0.2653 -0.1787
22050W        W37944   7.117   6.857   0.912  0.0965 -0.0170 -0.0732
22051W        W37945   8.039  13.856  11.972 -0.0871 -0.1906  0.2454
22052W        W37946  12.167  11.920  14.508 -0.1643 -0.4680  0.2223
22053W        W37947  12.717  10.565  11.215 -0.1153 -0.0684 -0.1121
22054W        W37948   5.199  13.954   3.283  0.0749  0.0175  0.3006
22055W        W37949   9.860   1.203   2.130  0.0679  0.2151  0.0253
22056W        W37950   1.691   7.533  11.027 -0.2604  0.0976  0.0604
22057W        W37951  13.432   8.467   1.746  0.5867 -0.1074  0.2739
22058W        W37952  16.476   0.003  12.639  0.1689 -0.0762  0.1080
22059W        W37953   1.082  15.913   1.690  0.2047  0.0924 -0.0124
22060W        W37954  13.052  16.034  14.687  0.0736 -0.0462 -0.0763
22061W        W37955  10.909  14.527   0.667  0.1915  0.0676 -0.0961
22062W        W37956   5.656  16.722  15.128  0.0755 -0.1644  0.3807
22063W        W37957  13.480  10.399   1.955 -0.1532 -0.2927  0.0927
22064W        W37958   5.501   9.954  11.370 -0.0933  0.0166  0.0892
22065W        W37959  10.918  14.020   3.328  0.0159  0.1119  0.0898
22066W        W37960  12.795  10.953   0.977  0.3818  0.1882  0.3056
22067W        W37961  12.848   7.577   0.537 -0.1635 -0.2200  0.0423
22068W        W37962   1.928   9.413   6.224 -0.1813  0.1837  0.0502
22069W        W37963   0.946   0.891   4.564 -0.3419 -0.2438 -0.0108
22070W        W37964  12.438  14.464   5.042  0.1766 -0.0947  0.0399
22071W        W37965   1.350  14.205   2.820 -0.2369 -0.1793 -0.0016
22072W        W37966   0.592  17.978   3.506  0.1889  0.2101  0.1609
22073W        W37967   1.587  14.912  15.300  0.0391 -0.2791 -0.1235
22074W        W37968  14.021   6.911  11.155  0.0522  0.0324  0.0080
22075W        W37969   7.810   0.455  11.434 -0.2759  0.0405  0.1306
22076W        W37970  12.616  13.862   3.419  0.1472  0.0891 -0.2220
22077W        W37971  11.669   1.150  12.752  0.0701  0.0334  0.0860
22078W        W37972  14.363   9.939   2.932  0.0614  0.2901 -0.2491
22079W        W37973  13.926   7.347  11.454  0.2118  0.0089  0.0728
22080W        W37974   1.887   9.202   0.588  0.0939 -0.0164 -0.1780
22081W        W37975   8.891   4.721  15.137 -0.1576 -0.0447 -0.0271
22082W        W37976   6.092  10.084  11.458 -0.0560 -0.3277  0.2542
22083W        W37977   2.295  13.027  12.262 -0.0689  0.0792 -0.3038
22084W        W37978   9.854  17.557   3.572 -0.0961 -0.2649  0.0521
22085W        W37979   7.044  11.992   2.235 -0.3011  0.0617 -0.1932
22086W        W37980   9.836  13.767  13.391 -0.1453 -0.1487 -0.2892
22087W        W37981  18.016   7.473   5.231 -0.0940 -0.2353  0.1098
22088W        W37982   2.806   3.016   3.170  0.4903  0.2329  0.0136
22089W        W37983   5.485   8.996   2.262  0.3259 -0.1717  0.0264
22090W        W37984   5.989   7.036   1.529 -0.3266  0.0864  0.1560
22091W        W37985   3.097  10.690   1.660  0.0568  0.1067 -0.1871
22092W        W37986   7.793  14.022   2.765  0.3868  0.1179 -0.0361
22093W        W37987   5.287   2.845   1.948 -0.3226 -0.1624  0.3562
22094W        W37988  16.095   2.992   0.152 -0.4664  0.5547 -0.0344
22095W        W37989   6.884  16.582   2.286  0.5040  0.0721 -0.4379
22096W        W37990   4.927  13.990  15.707 -0.1153 -0.3634  0.4957
22097W        W37991  12.714  12.220   1.306  0.0250  0.1912  0.0981
22098W        W37992   0.904   3.722   1.214 -0.0950  0.1993 -0.1176
22099W        W37993   6.483  15.578  10.473  0.0741 -0.1665 -0.3698
22100W        W37994   2.583   0.887  13.393  0.1606 -0.1073  0.2969
22101W        W37995  17.650  10.128  13.270  0.0200 -0.1017  0.3492
22102W        W37996  16.369   8.359  11.785 -0.1169 -0.0668 -0.2334
22103W        W37997  12.441  10.301  15.802  0.2506  0.0170  0.1600
22104W        W37998   3.453  10.288   1.677  0.1836 -0.0455 -0.0589
22105W        W37999  17.411  15.381  12.363  0.2784 -0.2777 -0.0489
22106W        W38000   2.628   7.001   4.746  0.0332  0.0306 -0.0737
22107W        W38001   9.168  16.720  14.575  0.2532  0.0262  0.2500
22108W        W38002   3.871  13.170   0.063 -0.1795 -0.2673 -0.0569
22109W        W38003  17.359   9.753   0.548  0.4018 -0.0264  0.0015
22110W        W38004   5.906  17.674   1.853 -0.0838  0.1072  0.0167
22111W        W38005   2.093  10.581  15.581 -0.0444  0.3648  0.1920
22112W        W38006  11.511  10.494   2.680  0.1122  0.2458 -0.1496
22113W        W38007   3.676   8.573  10.018  0.0726 -0.1933 -0.1692
22114W        W38008   2.499  18.230   4.337  0.1170 -0.1609 -0.4524
22115W        W38009   5.069   7.456   1.387  0.1602 -0.1504  0.0233
22116W        W38010   4.207   2.195   2.201 -0.0923  0.0928  0.0669
22117W        W38011  15.756  17.907  11.784  0.0833 -0.0450  0.2176
22118W        W38012   5.125   0.522   3.844  0.0818  0.2428 -0.2795
22119W        W38013  12.847  13.670   3.832  0.1935  0.1374  0.3646
22120W        W38014  18.019  17.988  14.363  0.0863  0.0751 -0.0638
22121W        W38015  11.907   7.644   3.853 -0.0078 -0.0889 -0.1454
22122W        W38016  17.918   0.228  12.793 -0.0735 -0.2548 -0.0651
22123W        W38017   7.669  16.869   1.246  0.0836 -0.0726  0.3535
22124W        W38018  11.003  14.782  13.615  0.0030 -0.1208  0.3472
22125W        W38019  10.077  14.135   4.442  0.3435  0.2351 -0.1267
22126W        W38020   9.152   5.415   1.054  0.1213 -0.0159 -0.0536
22127W        W38021  17.391  12.096   3.583 -0.1176 -0.2614 -0.1246
22128W        W38022  15.586  15.839   4.587 -0.2746  0.0173  0.3051
22129W        W38023  15.522   2.540   6.138 -0.1294 -0.0326  0.0983
22130W        W38024   8.524   6.717   2.684  0.0568  0.1282  0.0299
22131W        W38025   2.970  13.097   2.741  0.2335 -0.2038  0.3404
22132W        W38026  12.129   2.517   2.759 -0.1687 -0.1323 -0.1084
22133W        W38027  13.196   1.930   2.023  0.0712 -0.1793  0.1199
22134W        W38028  10.351  13.638  14.082 -0.0427 -0.0033 -0.3868
22135W        W38029  15.312  13.846  12.780  0.1393 -0.2201 -0.0343
22136W        W38030  15.389   2.835   4.875 -0.4841 -0.2407 -0.1864
22137W        W38031   4.707  10.394  12.523  0.0156  0.0598  0.3156
22138W        W38032   1.301  14.070  16.121  0.2063  0.1234  0.1839
22139W        W38033   1.174  16.906   3.011 -0.0231 -0.1582  0.1096
22140W        W38034   2.221   6.167   3.547  0.2237  0.1443 -0.1003
22141W        W38035   8.478   9.257  11.108  0.0159  0.0710 -0.1282
22142W        W38036   6.687   5.454   1.715  0.0981 -0.0905 -0.3641
22143W        W38037   3.452  11.106   2.482  0.2591  0.0349  0.0230
22144W        W38038  16.175  11.808  11.915  0.0903  0.0807  0.1344
22145W        W38039   3.389   0.611  11.362 -0.0797  0.2754 -0.0160
22146W        W38040  12.559  10.653   2.323  0.1287 -0.3625 -0.0881
22147W        W38041  18.129   6.636   3.231 -0.1068 -0.1102  0.1825
22148W        W38042   3.547   6.349   5.715  0.2243  0.0873 -0.0074
22149W        W38043   5.670  11.016   2.996  0.2050 -0.2585 -0.1296
22150W        W38044  14.898   7.838  12.447  0.1203 -0.1154 -0.0729
22151W        W38045   2.040   7.801  12.837  0.2145  0.1135 -0.3819
22152W        W38046  11.307  11.714   1.695  0.1840  0.1718  0.1652
22153W        W38047   6.035   7.538  11.974 -0.3472  0.1347  0.1009
22154W        W38048  11.913   9.306   4.130 -0.1012  0.0288 -0.1174
22155W        W38049   3.162  18.070   4.276  0.2257  0.3071  0.1539
22156W        W38050   9.670   9.959  11.982  0.1179  0.2536  0.0041
22157W        W38051  16.125  12.770  14.917  0.0513 -0.0961  0.5124
22158W        W38052   6.038   1.882   4.067  0.2455 -0.3775 -0.1746
22159W        W38053  10.312  17.853  11.171 -0.3079 -0.1397 -0.1774
22160W        W38054  10.699  15.144  10.574  0.1749  0.0529  0.0413
22161W        W38055   3.181  10.085   2.445 -0.0709  0.0631  0.0625
22162W        W38056   9.653   7.265   1.703 -0.0592 -0.0545  0.1771
22163W        W38057  17.686  13.047  13.340  0.0453  0.0262  0.1648
22164W        W38058  15.303  16.273  13.385 -0.1224  0.1698 -0.2799
22165W        W38059   8.959   9.349   4.689 -0.0626  0.4753 -0.0773
22166W        W38060  17.535   0.414   4.072  0.0289 -0.0363 -0.1545
22167W        W38061  15.874  11.922   4.525  0.1430  0.3007 -0.2751
22168W        W38062   5.305   9.242  15.435  0.1938  0.2308  0.1681
22169W        W38063   7.282   3.923   1.825  0.0414  0.0052  0.1850
22170W        W38064  11.778  15.011  11.478  0.0303 -0.2164  0.2084
22171W        W38065   4.573  17.115   2.086 -0.1688 -0.1129 -0.0630
22172W        W38066  16.787   4.786  12.847 -0.0059  0.1869 -0.1349
22173W        W38067   9.540   8.827   4.897  0.1034 -0.0789 -0.1924
22174W        W38068   7.903   3.175   1.385 -0.1036 -0.0259  0.0121
22175W        W38069  13.059   5.365  14.937 -0.4510 -0.0089  0.1789
22176W        W38070   8.475  10.760   4.477  0.0652 -0.0964  0.0071
22177W        W38071  14.984   1.473  16.102 -0.1259  0.1412  0.0286
22178W        W38072   7.948  10.582  11.985  0.2859 -0.1139 -0.1711
22179W        W38073   7.836  13.110  10.952 -0.2346 -0.0922 -0.0684
22180W        W38074   6.312   4.505   1.200  0.0983 -0.0458 -0.0343
22181W        W38075  18.025   2.175  14.223  0.0811 -0.1162 -0.1464
22182W        W38076   4.943   5.141  14.363  0.0372 -0.2616  0.0970
22183W        W38077   3.853  13.805  13.911  0.1501 -0.4495  0.3338
22184W        W38078   5.312   1.234  13.345 -0.0561  0.1916 -0.2272
22185W        W38079   7.623  11.249   2.734  0.1519  0.0564  0.1144
22186W        W38080  16.101  16.910   0.494 -0.1211  0.2786 -0.0979
22187W        W38081  11.469   6.718  14.994 -0.1547 -0.2803 -0.1927
22188W        W38082  11.986  10.313   2.365  0.0104 -0.2980 -0.0673
22189W        W38083   1.805  12.285  12.680 -0.3024  0.2753  0.4018
22190W        W38084  12.110   6.335  15.069  0.2136 -0.1977 -0.1546
22191W        W38085   6.326   8.830   0.208 -0.0182  0.0187  0.1719
22192W        W38086   2.231  11.393  13.461  0.0754 -0.2748 -0.0104
22193W        W38087  14.963   3.250   4.375 -0.0152 -0.2079 -0.2917
22194W        W38088   7.590  17.436   3.830  0.0186  0.1028  0.0727
22195W        W38089   0.287  10.064   3.365 -0.2151  0.1144 -0.2322
22196W        W38090   0.399  16.920  11.784 -0.0270 -0.0481  0.0799
22197W        W38091  16.626   3.270  15.008 -0.3452 -0.1569 -0.0094
22198W        W38092   7.614   5.055  10.068 -0.0499 -0.3379  0.2170
22199W        W38093  15.692   2.314   1.482  0.0967 -0.0672  0.3802
22200W        W38094  10.434  14.832   5.070 -0.0868  0.1084 -0.1560
22201W        W38095  13.409  14.421  11.936 -0.2611  0.1054 -0.2875
22202W        W38096  14.242  17.612   4.033 -0.1401 -0.0708 -0.0279
22203W        W38097  15.874  12.500   5.703  0.3281 -0.0539 -0.3577
22204W        W38098   3.880   0.604   3.901  0.1321  0.0692 -0.0580
22205W        W38099   1.158   2.917   4.035 -0.0668 -0.3185  0.0006
22206W        W38100  16.259  13.131  15.291 -0.2212 -0.1781  0.1245
22207W        W38101   5.178   5.634  13.012  0.1039 -0.1593 -0.1420
22208W        W38102   2.034  15.391   3.686  0.4498 -0.0759  0.2143
22209W        W38103  11.172  13.592   2.458 -0.2396  0.0152  0.0038
22210W        W38104   2.527  13.243   1.729 -0.0492 -0.0137 -0.0422
22211W        W38105  14.652  14.211  12.102  0.0403  0.0194  0.4309
22212W        W38106   6.150   5.986   3.759 -0.1541  0.1530  0.1253
22213W        W38107  16.409   3.471  12.051  0.1134 -0.1072 -0.0934
22214W        W38108   1.500   9.778   5.985  0.3468  0.2300  0.0260
22215W        W38109  13.205  16.242  11.994  0.2001  0.1240 -0.1500
22216W        W38110   5.572   0.680   0.811  0.0075 -0.1961 -0.1594
22217W        W38111  17.476   5.242  10.480  0.2112 -0.0321 -0.1298
22218W        W38112   2.987   6.134   1.534 -0.1401  0.1535 -0.5238
22219W        W38113   8.079   6.323   3.962  0.1900 -0.1555  0.1097
22220W        W38114   9.010  12.231   3.874  0.0753  0.2415 -0.1639
22221W        W38115   3.538   8.566  14.748  0.0164  0.0584  0.1060
22222W        W38116   0.854   0.446   3.789  0.1349 -0.0041 -0.0111
22223W        W38117  15.574  17.523  11.353 -0.0142  0.0661 -0.1392
22224W        W38118   3.399   3.068   0.729 -0.1847 -0.1133 -0.1060
22225W        W38119  15.472   9.663   0.918  0.2251  0.2578  0.0672
22226W        W38120  15.860   5.284   3.287  0.0123 -0.2559 -0.3094
22227W        W38121  17.427  13.069  13.846 -0.1279 -0.0112  0.1883
22228W        W38122  14.481  12.624   5.298 -0.0716  0.0454  0.1199
22229W        W38123  12.161   7.043   4.364  0.0997 -0.0754  0.0902
22230W        W38124  13.452   2.895   5.533  0.3773 -0.1255  0.0752
22231W        W38125   6.935   3.968   4.098  0.3118  0.2841  0.0116
22232W        W38126   3.152  17.628  13.735 -0.0985  0.0513  0.3015
22233W        W38127  16.944   8.628   0.593 -0.1835 -0.0147 -0.2336
22234W        W38128   7.945  10.663  12.450 -0.1533 -0.0500 -0.0869
22235W        W38129   4.901   6.222  11.861  0.3452  0.1373 -0.0936
22236W        W38130  15.303   4.758   1.121 -0.1467  0.0207 -0.0059
22237W        W38131   6.857   7.588  15.365  0.0061  0.1820 -0.0312
22238W        W38132  11.292   1.401  15.676  0.0673 -0.3048  0.1067
22239W        W38133   9.976  17.869   1.673  0.2015  0.0951  0.2303
22240W        W38134   4.334  17.115   0.146  0.2269  0.1098  0.1289
22241W        W38135   5.625  14.489  13.472  0.2000 -0.0103  0.0439
22242W        W38136   4.633  12.631  13.382  0.0729 -0.0501 -0.1056
22243W        W38137  17.292  16.160   2.474 -0.1338  0.1353  0.0641
22244W        W38138   3.172   0.721   3.735  0.3635  0.0951  0.3570
22245W        W38139   9.217   9.811  13.605  0.4926 -0.0475 -0.0890
22246W        W38140  12.456  12.437   2.023  0.2237  0.3103  0.0102
22247W        W38141  18.387   0.199   2.805  0.2350 -0.2584 -0.2007
22248W        W38142  11.371   9.768   2.371  0.5230  0.3121  0.1315
22249W        W38143  12.292   9.386  15.129  0.2223  0.1029 -0.2579
22250W        W38144   1.349   5.291  15.298  0.2458 -0.0146  0.1090
22251W        W38145   3.542   9.276   4.163  0.0113 -0.2563  0.2738
22252W        W38146  10.772  12.725  13.506  0.1727  0.0786 -0.0235
22253W        W38147   4.406   6.568  14.079 -0.1493  0.1889  0.0672
22254W        W38148   1.699   8.740  11.445 -0.3309 -0.0224 -0.1742
22255W        W38149   1.217   8.077   0.337 -0.0760 -0.0148 -0.0212
22256W        W38150   0.248  14.476   2.010 -0.2968 -0.0313  0.2735
22257W        W38151   4.525   4.936   3.317 -0.0521  0.0834 -0.4371
22258W        W38152   3.660  10.324   3.938 -0.0357  0.1411  0.0017
22259W        W38153   5.768  11.198  10.923 -0.3022  0.1869  0.1422
22260W        W38154  16.880  10.197   5.202  0.3349  0.0840 -0.0767
22261W        W38155   5.665   4.928  15.451 -0.1144 -0.2064  0.1497
22262W        W38156  12.366  17.398  14.730 -0.0508 -0.1413 -0.2704
22263W        W38157   3.113  17.732  12.800 -0.1630 -0.2380 -0.0444
22264W        W38158   1.611  17.654  15.374 -0.1659  0.4017 -0.4428
22265W        W38159  14.892   5.062  14.866  0.1756 -0.0927  0.0163
22266W        W38160   5.289   6.261   0.893  0.0601 -0.4812 -0.0302
22267W        W38161   3.889  13.030  14.179 -0.4002 -0.0029  0.0358
22268W        W38162   5.136   9.986  15.456 -0.0743 -0.1271 -0.1947
22269W        W38163  15.339  14.829   2.033  0.1564 -0.1186 -0.3463
22270W        W38164   1.781   6.206  14.795 -0.2793  0.1034  0.0219
22271W        W38165   2.375   4.239   2.052  0.0527 -0.1161  0.1186
22272W        W38166   3.338  13.549   5.041 -0.0676 -0.1378  0.0651
22273W        W38167   2.707  10.721   1.266 -0.1784  0.0538 -0.0132
22274W        W38168  10.497  15.049   0.284 -0.0365 -0.2631  0.2979
22275W        W38169  13.663   6.121  15.487  0.0532  0.1241 -0.0277
22276W        W38170  16.813  10.621  14.879  0.2573 -0.0533 -0.0892
22277W        W38171   5.158   7.418  15.346 -0.5624  0.4364 -0.0897
22278W        W38172  15.150   5.178  14.443  0.0349  0.0965  0.0818
22279W        W38173  16.153  11.356   2.904 -0.0911 -0.1224  0.0257
22280W        W38174   9.377   1.086   3.632  0.1649  0.0402  0.2991
22281W        W38175   3.760   1.259   0.159 -0.1473  0.2609 -0.0846
22282W        W38176  12.817   3.197  13.551 -0.2348 -0.1368 -0.2525
22283W        W38177  14.223  10.708  13.756  0.0639  0.2799  0.1519
22284W        W38178  12.924  17.002  16.033 -0.1362  0.1552 -0.0614
22285W        W38179   6.012   4.026   4.028  0.1599 -0.2079  0.0160
22286W        W38180   6.682   6.729   5.866  0.1989  0.2709 -0.6178
22287W        W38181   3.336  10.310  15.261  0.1818 -0.0572  0.2073
22288W        W38182   9.488  17.957  11.351  0.1209 -0.3224  0.0524
22289W        W38183   6.266   7.323   1.802  0.0086 -0.1493  0.1136
22290W        W38184  14.266  10.550   2.543  0.0633 -0.2940 -0.0823
22291W        W38185   3.111  13.594  10.934  0.0479 -0.0928  0.3596
22292W        W38186  10.690  13.162  11.630  0.0585  0.0413 -0.2010
22293W        W38187   7.396   8.978   4.680  0.1222 -0.0660 -0.2506
22294W        W38188  18.320  10.794   5.620  0.1434  0.1781  0.1423
22295W        W38189  10.739  11.639  14.548  0.0521 -0.1212  0.3937
22296W        W38190  11.236  13.865   1.345 -0.3405 -0.0907  0.0867
22297W        W38191  10.933  14.858   2.895  0.2837 -0.2268  0.1135
22298W        W38192  14.851   9.299   4.606  0.0294  0.2208  0.0845
22299W        W38193  10.263   3.773   2.087  0.0544  0.3151  0.1479
22300W        W38194  14.644  15.278   1.611  0.0867 -0.2119  0.2173
22301W        W38195   6.793   2.669   1.250  0.2869 -0.0490 -0.0102
22302W        W38196   9.061   2.907  15.278 -0.0628 -0.1402  0.2662
22303W        W38197  16.719   5.021   4.305 -0.2540 -0.1567  0.1161
22304W        W38198   4.068   1.085  12.337 -0.0079  0.0429 -0.0038
22305W        W38199   8.748   3.147   3.771 -0.0557 -0.0451 -0.1124
22306W        W38200  17.553   9.675  16.092 -0.0050 -0.2714  0.0445
22307W        W38201  13.629   9.748  15.829 -0.1605 -0.3317 -0.1128
22308W        W38202   5.697  10.652   3.387  0.0500  0.2723 -0.0171
22309W        W38203  15.044  18.448   0.355  0.2140  0.1897  0.0339
22310W        W38204  17.038  13.289   5.584  0.1776  0.0778  0.3295
22311W        W38205   6.902  16.477   3.093  0.2438  0.2115  0.2104
22312W        W38206  15.109   6.615   6.241 -0.2721  0.1910  0.1089
22313W        W38207   6.984   8.458   2.768 -0.0608 -0.0927 -0.0628
22314W        W38208  17.071  13.108   4.561 -0.0488 -0.0265  0.1850
22315W        W38209   5.135   4.609  11.170 -0.2680  0.1590  0.0836
22316W        W38210   4.752  16.519  15.973 -0.1034  0.2028 -0.0244
22317W        W38211  17.004  12.796  10.307 -0.0082 -0.2809  0.1525
22318W        W38212   6.015   0.246  12.426  0.0346  0.1922  0.4071
22319W        W38213  11.056   5.756  13.110  0.2423  0.0964  0.5985
22320W        W38214  10.596  12.807   0.752  0.1340 -0.2060  0.0889
22321W        W38215  15.954  11.703   0.392 -0.0252 -0.3321 -0.0072
22322W        W38216   0.908   8.523  13.069  0.1403  0.0482  0.1397
22323W        W38217   8.347  14.133   1.922  0.0722  0.3010  0.0087
22324W        W38218   2.682  14.919   3.279 -0.0664  0.2068  0.0694
22325W        W38219  15.180   5.728   1.615 -0.0130  0.0568  0.1630
22326W        W38220  10.620   9.545   4.036 -0.4177 -0.0850  0.2138
22327W        W38221  12.433   4.011   3.618 -0.3795 -0.0954  0.3210
22328W        W38222  16.126  10.804   2.105  0.1317  0.3522  0.1981
22329W        W38223  11.066   9.718  15.179  0.0140 -0.1371  0.2245
22330W        W38224   9.190   7.585   1.172  0.1185 -0.2432 -0.0561
22331W        W38225   4.506  13.461   4.400 -0.1641  0.3243 -0.0757
22332W        W38226  11.011  11.554  12.232 -0.4970  0.0193  0.2605
22333W        W38227   8.655   1.285  10.804  0.1109  0.1592  0.3168
22334W        W38228  10.340   8.589  14.971  0.0463 -0.0018  0.0577
22335W        W38229   8.219   2.616   0.144 -0.1657  0.1614 -0.0292
22336W        W38230   9.911   5.203   2.356  0.0704 -0.4002 -0.2486
22337W        W38231   3.552   9.300   0.108  0.3365 -0.0237  0.0640
22338W        W38232  17.404   6.539   0.862  0.0458  0.0124 -0.0449
22339W        W38233   8.285   2.889   2.655  0.3104 -0.4791 -0.0404
22340W        W38234  18.214   8.575  11.160 -0.1989 -0.0470 -0.1838
22341W        W38235  17.814  17.444   0.065  0.0010  0.0126 -0.4105
22342W        W38236  16.611  14.211   4.232  0.1143 -0.1828 -0.1413
22343W        W38237   6.836  12.040  13.565 -0.0565  0.1723 -0.1549
22344W        W38238   6.149  12.302  12.264  0.0649 -0.1639 -0.2022
22345W        W38239   9.729   8.415   4.070 -0.0124  0.3556  0.1416
22346W        W38240  11.933   8.935  15.821  0.2228 -0.2610  0.2295
22347W        W38241  12.314  11.020  12.749  0.2994  0.2293  0.2411
22348W        W38242  11.383   3.511  15.024 -0.2527  0.0360  0.2780
22349W        W38243  11.060  16.759   3.803 -0.0435  0.0678  0.1935
22350W        W38244  11.402  14.074   3.120 -0.2885  0.0755 -0.2391
22351W        W38245   4.556  16.346   0.982 -0.0521  0.2353  0.4177
22352W        W38246  13.652  16.042  11.852  0.0251  0.2521 -0.1267
22353W        W38247   5.215   3.650   0.468 -0.0106  0.0522 -0.0414
22354W        W38248   2.597  10.799  10.899  0.2595 -0.0325  0.2646
22355W        W38249  17.572  11.579   3.760 -0.0427 -0.2687  0.2356
22356W        W38250   0.412   5.203   4.551 -0.1572  0.2729 -0.0491
22357W        W38251   9.888  14.925   4.807 -0.2154 -0.1166  0.0506
22358W        W38252   8.454   0.095  12.691 -0.1678  0.1054 -0.2370
22359W        W38253   2.889  13.230   4.804  0.1172 -0.2189 -0.0931
22360W        W38254  12.522   2.621   0.211 -0.2058  0.0188  0.1510
22361W        W38255  17.106  14.648   3.590  0.1716 -0.0617 -0.0543
22362W        W38256   2.953   2.207   4.821  0.1279 -0.0520 -0.0433
22363W        W38257  14.894  11.340   1.931  0.1439  0.1351 -0.1959
22364W        W38258  12.505   5.073   4.257  0.2116  0.0568 -0.2370
22365W        W38259  15.252   8.851   6.061 -0.0005 -0.0554  0.2481
22366W        W38260   2.725   5.749   3.738 -0.3280 -0.1412  0.0239
22367W        W38261  18.245   4.483   4.764  0.2282  0.0438 -0.0585
22368W        W38262   8.540   3.179   2.149 -0.0078  0.0792 -0.1674
22369W        W38263   3.225  18.128  13.614 -0.1426 -0.0848  0.1006
22370W        W38264   9.417  14.165  14.680  0.2075  0.2273 -0.1332
22371W        W38265  10.693   7.392   0.074  0.0397  0.0575  0.0178
22372W        W38266   8.271  16.954   5.490  0.0962 -0.1174  0.0925
22373W        W38267   7.595  17.621  15.047  0.1161 -0.1530  0.1797
22374W        W38268   6.506   2.219  10.712 -0.0110 -0.1347 -0.0300
22375W        W38269  10.469  12.488  12.859  0.4805 -0.1961  0.1356
22376W        W38270   3.332   8.790  15.132  0.2411 -0.3009  0.0609
22377W        W38271   9.544  15.637  13.140  0.3720  0.0868  0.2554
22378W        W38272   4.679  14.143  13.280  0.1325  0.2152 -0.0800
22379W        W38273  16.729   2.937   2.834 -0.2292 -0.0371  0.0864
22380W        W38274   1.695  15.008   0.115  0.2175  0.2127  0.2760
22381W        W38275   0.632   1.884   2.091  0.3360 -0.0241  0.2289
22382W        W38276   4.557   0.647  10.021 -0.2858  0.1310  0.0399
22383W        W38277   0.790   8.085   3.190  0.1082 -0.0468 -0.1207
22384W        W38278  12.355   3.335  15.804 -0.0438  0.0050  0.0740
22385W        W38279  18.449   2.265   4.185 -0.1143 -0.2805 -0.1450
22386W        W38280   6.340   4.747   5.624  0.0810 -0.1518 -0.3285
22387W        W38281  16.705  15.640   3.569 -0.1571 -0.1761 -0.1790
22388W        W38282  16.429   8.648   3.031  0.1863 -0.3345  0.0236
22389W        W38283   4.822   8.372  14.502 -0.1245  0.2326  0.3528
22390W        W38284   2.865   4.462  10.915 -0.2038 -0.1171 -0.2377
22391W        W38285   2.008   2.186  12.186  0.0807 -0.2429 -0.0061
22392W        W38286  13.834  11.121   0.779 -0.1878 -0.0169  0.0209
22393W        W38287   4.348   3.338   0.673  0.0832 -0.1212  0.2207
22394W        W38288  12.910   0.432   4.845  0.1423 -0.1416  0.3719
22395W        W38289  12.713  11.103  12.328 -0.0448 -0.1632 -0.1554
22396W        W38290   3.046   6.832  13.866 -0.0713  0.2879 -0.1165
22397W        W38291  11.274   2.997  11.451  0.0135  0.0532 -0.1399
22398W        W38292   2.300   8.120   3.396 -0.0120 -0.2645  0.1091
22399W        W38293  16.756   9.306   4.545 -0.2713  0.3722 -0.0420
22400W        W38294   0.187   7.478   5.089  0.0825  0.1942 -0.0325
22401W        W38295   0.159  11.333   3.051  0.2219 -0.0227 -0.0502
22402W        W38296  11.292  17.465   2.625 -0.0917  0.0887 -0.1823
22403W        W38297  15.083   0.095   2.527  0.0034 -0.2237 -0.1143
22404W        W38298   6.006  14.936   3.072 -0.1921  0.0838  0.0539
22405W        W38299   9.989  14.141  15.443  0.1955 -0.0510  0.2587
22406W        W38300  10.887   0.414   0.078 -0.0533 -0.2015 -0.4694
22407W        W38301  15.149   3.407  13.382  0.1558 -0.2504 -0.1607
22408W        W38302   3.916   5.858  12.962  0.0860 -0.2923  0.0328
22409W        W38303  16.049   8.650  13.754  0.0102  0.0512  0.2255
22410W        W38304   3.066  10.597   5.320 -0.0842 -0.1897 -0.1954
22411W        W38305  13.526  15.471   4.010 -0.2874 -0.0641 -0.2160
22412W        W38306  14.342   8.975  14.302  0.2726  0.0195  0.1070
22413W        W38307   6.417   7.063  15.544  0.1252 -0.0913  0.0258
22414W        W38308   9.297   3.764  12.509 -0.1321  0.0134 -0.3516
22415W        W38309   8.544  14.529   3.343  0.0644  0.0575  0.1392
22416W        W38310  14.154   5.573   1.714  0.4907 -0.1449 -0.0201
22417W        W38311   9.814   3.915  15.464 -0.1145  0.2158 -0.0863
22418W        W38312  17.027   3.334   4.960 -0.1332 -0.1103  0.2255
22419W        W38313   8.301   9.788  15.194  0.2231  0.0089 -0.0165
22420W        W38314   8.778  14.402   1.605  0.0698 -0.0505 -0.1842
22421W        W38315  17.292   6.201   3.110  0.1692 -0.1051 -0.2233
22422W        W38316  12.699   2.817   4.204 -0.0223  0.0899  0.0853
22423W        W38317   1.888  16.326   3.472  0.1811 -0.1256 -0.1931
22424W        W38318   0.872   9.649  11.590 -0.2337 -0.0567  0.2389
22425W        W38319   4.212   4.593   0.158 -0.0626  0.2443  0.0490
22426W        W38320   4.130   8.166  14.307  0.0923  0.4622 -0.0566
22427W        W38321   3.579   3.727   3.980  0.1735  0.2661  0.0449
22428W        W38322   9.311   8.501   0.714 -0.0636  0.1108  0.1307
22429W        W38323  12.267   2.883  11.487  0.2377 -0.0021 -0.3453
22430W        W38324   8.130  10.530  13.824 -0.0208 -0.1426  0.1646
22431W        W38325   1.608  16.788   2.777 -0.0383  0.4209 -0.4228
22432W        W38326   8.755   0.328  13.886 -0.1261 -0.0274  0.0727
22433W        W38327  13.918  14.852  10.827 -0.0612 -0.0454  0.2678
22434W        W38328  12.146   1.159   2.578 -0.0742  0.2442 -0.0051
22435W        W38329   0.720   5.705   3.240  0.1522  0.0507  0.1354
22436W        W38330   2.872  15.286  12.271  0.0019 -0.0908 -0.2598
22437W        W38331  12.835  16.312   1.984 -0.0364 -0.0222 -0.1798
22438W        W38332  17.133   3.369  12.890  0.1360  0.0877 -0.1203
22439W        W38333  17.683   4.999   3.834 -0.0359 -0.1673 -0.2116
22440W        W38334   0.599   0.588   4.900 -0.0922  0.1099 -0.0601
22441W        W38335  12.173  13.855  15.554  0.0688  0.0543 -0.2411
22442W        W38336  11.260   9.006   1.944 -0.0061  0.1523  0.1008
22443W        W38337   9.343  13.428  13.849  0.0815  0.2269  0.2318
22444W        W38338   0.390   6.585   4.538  0.0330 -0.0211 -0.1684
22445W        W38339  14.042   3.121   4.712  0.2552  0.0893  0.1880
22446W        W38340  15.049   1.165  15.641  0.0996 -0.2821 -0.1081
22447W        W38341   1.765  10.779   1.893 -0.1563 -0.1061 -0.0501
22448W        W38342   0.996   5.407  14.458  0.1500  0.0842 -0.1024
22449W        W38343  12.315   8.468  11.797 -0.2901  0.1425 -0.0092
22450W        W38344   3.680   7.941  11.623  0.1043  0.1776 -0.3437
22451W        W38345   7.885  15.368  11.306  0.1932 -0.0538 -0.0289
22452W        W38346   2.204  15.883   5.190 -0.0635 -0.0256 -0.2345
22453W        W38347  14.260  14.659  15.348  0.1323 -0.0605 -0.0315
22454W        W38348  13.858  14.704   4.478  0.1751  0.0726  0.2816
22455W        W38349  14.803  15.154   4.312  0.0601  0.0244 -0.0641
22456W        W38350  12.190   9.448  11.613  0.0930  0.2925  0.1530
22457W        W38351   5.654  12.331   6.077  0.4475  0.0053  0.2330
22458W        W38352   2.488  13.714  14.413 -0.1353 -0.1572  0.2682
22459W        W38353   0.640  15.862   0.001 -0.1723  0.1589  0.0505
22460W        W38354   2.599  13.794  12.555 -0.1193  0.0451 -0.2205
22461W        W38355   6.284  10.632   4.803  0.4117  0.2675  0.1226
22462W        W38356   4.504   2.439  11.156 -0.5033  0.4599  0.0694
22463W        W38357   9.748   5.736   5.531 -0.1724 -0.2911 -0.6027
22464W        W38358   6.899   7.139  10.958 -0.1814  0.1010 -0.1926
22465W        W38359   3.722  16.407   4.278 -0.2005 -0.0380  0.0213
22466W        W38360   3.851   4.648   6.204  0.0105  0.0015  0.0636
22467W        W38361   2.475   1.100  15.506 -0.0028 -0.0203  0.2069
22468W        W38362   6.138   6.463  12.364  0.1369 -0.0503 -0.3315
22469W        W38363   8.126  11.057  16.133  0.0074  0.0076  0.5029
22470W        W38364   8.188   5.135  13.801 -0.1080 -0.1053 -0.1020
22471W        W38365   9.630   5.599  12.795  0.2213  0.0094  0.0452
22472W        W38366  14.057   8.212  12.511 -0.0564 -0.4984  0.3731
22473W        W38367   5.176  13.192  12.685 -0.5918  0.4460 -0.1495
22474W        W38368   6.362  17.211   1.883  0.2697  0.2530  0.0162
22475W        W38369   7.020   9.864   4.683  0.0409 -0.1898  0.2751
22476W        W38370  15.792   6.985   2.299  0.4527  0.0740  0.2763
22477W        W38371  10.653  18.239   2.657  0.1150 -0.1410 -0.0780
22478W        W38372   4.765   3.166  11.857  0.0849 -0.1277  0.1142
22479W        W38373  12.594   6.980  11.640 -0.2626 -0.0628 -0.2582
22480W        W38374   9.715   9.140  10.474  0.1132 -0.0877  0.2823
22481W        W38375   1.576   1.522   3.184 -0.1489  0.3100 -0.1396
22482W        W38376   0.619   5.707   4.418  0.0877  0.2143  0.1825
22483W        W38377  13.562  15.915  14.769 -0.0081  0.0244  0.1952
22484W        W38378   5.728  11.930   0.810  0.1071 -0.0211  0.2375
22485W        W38379   1.054   6.043   3.058 -0.2680  0.0833 -0.2761
22486W        W38380  17.435   4.538   0.332  0.0015 -0.0412  0.1213
22487W        W38381   2.208  16.771   4.080 -0.0398 -0.0607  0.0602
22488W        W38382   2.554   1.562  15.759 -0.2262  0.0216 -0.1103
22489W        W38383  11.284   2.192   1.431  0.1884 -0.1244  0.1285
22490W        W38384  14.087  10.545  12.119  0.2522  0.0714 -0.1479
22491W        W38385   5.133   8.951  12.267  0.0511 -0.0684  0.1130
22492W        W38386   7.218  11.874   3.496  0.1933  0.2020 -0.1396
22493W        W38387   9.787  15.834  14.052  0.0449 -0.0320 -0.0709
22494W        W38388  10.424   1.003   1.050 -0.0324  0.2504 -0.0800
22495W        W38389  13.002   5.936  11.547 -0.6237  0.0764 -0.2866
22496W        W38390  18.017   3.302  15.506  0.3873 -0.4502 -0.6327
22497W        W38391   7.310  12.192   1.253  0.0424 -0.1172  0.0345
22498W        W38392  13.958   2.391   4.168 -0.2548 -0.3572 -0.2717
22499W        W38393   2.896   0.278   3.630 -0.1375  0.0646 -0.2714
22500W        W38394   2.766  17.546   1.851 -0.0091  0.1905 -0.0467
22501W        W38395   7.829  12.109   4.860 -0.2192  0.0944 -0.1385
22502W        W38396   2.487   7.375   2.764 -0.1857 -0.0670  0.0519
22503W        W38397   3.143  15.076  11.691  0.2524  0.2225  0.0250
22504W        W38398   4.867   0.267   4.559  0.2124 -0.1335  0.1389
22505W        W38399   7.784   8.929   5.519 -0.1861  0.2218  0.0397
22506W        W38400   0.634   4.517  15.160 -0.0098  0.3247  0.0982
22507W        W38401  17.236   1.512  14.127 -0.0399 -0.1412  0.0319
22508W        W38402   4.760   5.637  12.683  0.0298  0.1723 -0.1691
22509W        W38403   4.359  10.186  11.330 -0.1105  0.0679  0.3023
22510W        W38404  10.450   8.119   0.586  0.0004 -0.0609 -0.0925
22511W        W38405   3.938   9.487  14.836  0.2423 -0.0082  0.0437
22512W        W38406  17.397  12.158  12.358 -0.0095  0.1947 -0.2266
22513W        W38407  11.399   3.179   6.111 -0.1849  0.1018 -0.0100
22514W        W38408   4.217  10.561   3.099 -0.1891 -0.1095  0.2684
22515W        W38409  14.248  13.049  11.849 -0.1067 -0.2239  0.4787
22516W        W38410  12.809  17.465  15.189 -0.0572  0.1743  0.2263
22517W        W38411   8.466   6.545  14.307 -0.0239  0.1300  0.0133
22518W        W38412  17.398  11.386   1.424 -0.2601 -0.0021  0.0244
22519W        W38413  16.260   5.916   4.050  0.2666  0.0739 -0.0465
22520W        W38414  15.237  12.061   0.880 -0.2428  0.0492 -0.2084
22521W        W38415   7.415   3.397  15.729 -0.0320 -0.1356 -0.1108
22522W        W38416  16.301   1.143   4.845  0.2874  0.2190  0.0234
22523W        W38417   4.619  16.971  12.517 -0.2316  0.3481  0.2622
22524W        W38418  11.041   5.188   5.062 -0.0092  0.1307 -0.1011
22525W        W38419   3.237   2.448   0.053 -0.0433 -0.0866 -0.1062
22526W        W38420  18.341  15.081  13.391  0.3041  0.4038 -0.1513
22527W        W38421  15.077  12.231   3.987  0.3403 -0.0210  0.0159
22528W        W38422   0.550  16.080  10.269  0.0721  0.0847 -0.1323
22529W        W38423   2.613   1.818   4.354 -0.2152  0.1255  0.0413
22530W        W38424  16.476  18.027  13.353 -0.0133 -0.2164 -0.0990
22531W        W38425  11.693  11.145  13.236  0.0365 -0.1634 -0.2600
22532W        W38426  14.059  12.668   0.679 -0.1075  0.1506 -0.0936
22533W        W38427   9.857   0.313   3.203  0.1207  0.3156 -0.0873
22534W        W38428   3.670  11.698  13.615  0.2469  0.0488  0.0124
22535W        W38429   5.766   1.795   0.145 -0.1408 -0.2925  0.0977
22536W        W38430  15.732   2.394   0.727 -0.2462  0.0261  0.0561
22537W        W38431  12.580  14.751   4.143  0.0522  0.0813 -0.1188
22538W        W38432  12.708   7.196   3.783 -0.1690 -0.0389  0.1986
22539W        W38433  10.603  11.715   5.464  0.0841 -0.0528  0.1645
22540W        W38434  13.701   4.780  14.529 -0.3024  0.0492 -0.0560
22541W        W38435   1.558  12.824  15.106 -0.0215  0.3598  0.2664
22542W        W38436  15.128  11.440  15.849 -0.1934  0.1749 -0.4378
22543W        W38437   7.477  13.061   2.984 -0.1574  0.1936 -0.2599
22544W        W38438  12.942  10.856   1.520 -0.0313 -0.2828 -0.0196
22545W        W38439  16.930  13.426   0.010 -0.0748  0.0794 -0.1655
22546W        W38440   7.577   9.442   4.663 -0.4011  0.0654  0.0614
22547W        W38441   7.932  12.086  15.392  0.1671  0.1100  0.0228
22548W        W38442   1.289   5.463  11.988  0.2142 -0.2003 -0.2024
22549W        W38443   4.021   6.248  14.512  0.1001 -0.0502 -0.1056
22550W        W38444   2.553   7.952  11.805  0.2407 -0.0549  0.2696
22551W        W38445   4.939   9.487  13.267  0.2937 -0.5022 -0.2314
22552W        W38446   0.689   8.755  12.637  0.0850 -0.1571 -0.2204
22553W        W38447  14.561   8.460   5.897 -0.3048  0.4404  0.0279
22554W        W38448  10.046   6.164   1.200 -0.2683  0.1237  0.4064
22555W        W38449   1.241   1.897  10.658  0.1132  0.1310  0.2437
22556W        W38450   6.985   2.271  10.593 -0.1172  0.1849 -0.4355
22557W        W38451   2.983   6.166   3.039 -0.1088  0.0668  0.2261
22558W        W38452  12.824   3.862  12.167  0.0260 -0.0067  0.0379
22559W        W38453  15.207  14.881   4.209 -0.2693 -0.1021 -0.2507
22560W        W38454   2.584   7.073   1.195 -0.0482 -0.0944  0.0756
22561W        W38455  11.136  12.083  12.393 -0.2531  0.2369 -0.0274
22562W        W38456   2.101   2.431  13.137  0.0062  0.3789 -0.2518
22563W        W38457   4.730   4.565   1.464 -0.0162 -0.1952 -0.0353
22564W        W38458   0.330  17.121   0.692 -0.1009  0.1329 -0.0247
22565W        W38459  11.726   0.338  12.057 -0.0936 -0.1638  0.0041
22566W        W38460  12.424   9.621   1.536  0.0156  0.0269 -0.1827
22567W        W38461  14.637   6.263   4.940  0.4876  0.2491  0.4080
22568W        W38462   5.845   9.164  14.504 -0.1768  0.1117  0.0900
22569W        W38463  17.317  12.288   4.058  0.0024  0.2136 -0.0494
22570W        W38464  12.460  12.913   5.572 -0.1595  0.1341 -0.0514
22571W        W38465   9.460   9.188   3.987  0.4164  0.2736 -0.1175
22572W        W38466  14.926   8.350   0.004  0.0834 -0.1791 -0.1237
22573W        W38467  10.329  15.865   4.040  0.1298 -0.1206 -0.2153
22574W        W38468   5.202  13.359  12.228  0.0292  0.0804  0.0471
22575W        W38469   4.807  11.579  14.876  0.0212  0.0084 -0.1019
22576W        W38470   5.920  17.917   3.551 -0.0515 -0.0104 -0.4010
22577W        W38471  11.860  15.668  14.266  0.2067  0.1766 -0.1515
22578W        W38472   0.630   5.663   1.648  0.2986  0.3533 -0.2375
22579W        W38473  16.515   8.937  13.336 -0.0228 -0.0813 -0.1745
22580W        W38474  13.456  14.118   0.581 -0.0734  0.0670  0.1062
22581W        W38475   2.526   0.145   3.960 -0.0934 -0.2720  0.0602
22582W        W38476  15.191  14.535  12.793  0.1296 -0.3020 -0.0353
22583W        W38477  16.322   2.532   3.170  0.1244 -0.0482 -0.1772
22584W        W38478  17.615   9.091   3.460 -0.0992  0.1697  0.1769
22585W        W38479   2.037   9.222  13.001 -0.2401  0.1403  0.0756
22586W        W38480  15.010   3.033  11.889 -0.1586 -0.0380  0.0671
22587W        W38481   6.406  18.147   3.581 -0.2346  0.1898  0.2875
22588W        W38482  10.097   5.441   4.663 -0.0906  0.2748  0.0536
22589W        W38483  10.095  17.282   4.624 -0.2232 -0.0656  0.3009
22590W        W38484  10.821   8.233  13.445  0.2326  0.1290  0.1590
22591W        W38485  14.368   2.922  12.621  0.3893 -0.2325 -0.1187
22592W        W38486  11.651   9.838   4.798 -0.1745 -0.1853 -0.2388
22593W        W38487   8.407  10.696   0.204 -0.2453 -0.0688  0.3358
22594W        W38488   7.605   9.720   5.924  0.3403  0.1690 -0.1294
22595W        W38489  15.642   1.856  12.983  0.5545  0.3557 -0.3288
22596W        W38490  15.990  10.465  14.210 -0.1180  0.0269  0.0721
22597W        W38491  18.180   6.595  15.729 -0.3539  0.0465  0.0639
22598W        W38492   0.533   5.490  13.469 -0.3135  0.1687  0.3827
22599W        W38493   5.852  14.238   3.995  0.3366  0.3718 -0.0527
22600W        W38494   4.856   3.864  13.939 -0.0738 -0.0724  0.1084
22601W        W38495  17.412  17.027   4.975  0.2902  0.0009  0.0985
22602W        W38496   7.075   8.256  11.805  0.1965 -0.0285  0.0377
22603W        W38497   5.693   0.177  14.372 -0.3662 -0.2145 -0.0949
22604W        W38498  16.660   5.557  16.007  0.1663  0.2511  0.0423
22605W        W38499   0.301   9.573   1.433  0.2892 -0.2404 -0.0495
22606W        W38500   5.379  12.925  11.291 -0.3481 -0.0408 -0.0667
22607W        W38501   4.423  10.110   4.702  0.0276  0.0301 -0.1693
22608W        W38502   4.866   3.989   1.221  0.0609  0.1602 -0.1502
22609W        W38503   2.752  10.440  10.570 -0.0495 -0.0569 -0.0386
22610W        W38504  14.802   9.245   2.139 -0.0442  0.1326  0.3332
22611W        W38505   6.379  15.823  11.428 -0.3145  0.1402  0.0618
22612W        W38506   3.369  13.252  13.408 -0.1951 -0.1887  0.0508
22613W        W38507   5.229  13.115  13.324 -0.0861  0.0752  0.3162
22614W        W38508   8.926   0.364  12.539  0.1583  0.1429  0.3793
22615W        W38509   5.435   4.383  12.680  0.1028  0.3458  0.1771
22616W        W38510   9.072   3.906   0.432  0.1959 -0.3050  0.2755
22617W        W38511  11.187  14.616   9.742 -0.1111  0.0285  0.2038
22618W        W38512   0.560  17.447   3.473  0.1068  0.3476  0.2230
22619W        W38513   0.042  18.075   0.462 -0.1826  0.2192  0.2858
22620W        W38514   8.871  16.297   2.023 -0.0347  0.1871  0.2207
22621W        W38515  17.530  13.370  12.497 -0.1406 -0.3267 -0.0410
22622W        W38516  10.875  10.076   6.135  0.1791 -0.0514 -0.0217
22623W        W38517   4.419  13.445   5.869  0.1320 -0.1305 -0.0417
22624W        W38518   1.785   8.189   1.877 -0.0873 -0.0179  0.0581
22625W        W38519   7.427   6.620   0.564  0.2091 -0.0641 -0.2175
22626W        W38520   1.311   1.564  14.680 -0.0077  0.3502 -0.3046
22627W        W38521  16.861   1.641   1.726 -0.2316  0.2340  0.0538
22628W        W38522   8.539  12.877   3.047 -0.3033  0.1327 -0.0518
22629W        W38523   9.437  10.643   4.482 -0.2366 -0.2128  0.2248
22630W        W38524   7.230   4.282   1.508  0.1355 -0.1359  0.1838
22631W        W38525   3.054  12.730  11.584  0.1644  0.0942 -0.0947
22632W        W38526   7.585  15.421  16.076  0.0056 -0.1190  0.3586
22633W        W38527   4.144   9.953   5.156  0.1109 -0.4360 -0.0212
22634W        W38528   4.702  15.657   5.508 -0.0236 -0.0290  0.2144
22635W        W38529   2.398   6.373   2.404  0.3544 -0.0230 -0.0844
22636W        W38530   1.502   1.984   1.090 -0.4836 -0.3070  0.0041
22637W        W38531  14.531  16.819  14.319 -0.3210 -0.0622 -0.0112
22638W        W38532   8.478  17.670   2.177  0.0515 -0.0973  0.0703
22639W        W38533  13.956  10.427  13.432 -0.1882  0.1406 -0.3254
22640W        W38534   7.913   5.133  14.977  0.1920 -0.0424 -0.2899
22641W        W38535   7.357  12.588   2.718  0.1403  0.2078  0.0772
22642W        W38536   7.578   0.156   3.215 -0.1393 -0.2160  0.1534
22643W        W38537   9.499   8.758   2.972  0.1198  0.1018  0.0967
22644W        W38538   4.475   7.050  15.611  0.0170  0.0839 -0.0370
22645W        W38539  10.966  16.904  14.179  0.1708 -0.3245  0.0606
22646W        W38540   6.616  17.869   0.309 -0.2329 -0.1035  0.2073
22647W        W38541   2.443  11.621  13.871  0.1158 -0.2204 -0.0845
22648W        W38542   0.822  14.957   2.634  0.1101 -0.1239 -0.1311
22649W        W38543  13.849  17.257  15.913  0.0231  0.1142  0.0488
22650W        W38544   1.439   7.773   1.862 -0.0349 -0.1819  0.1682
22651W        W38545   7.212   3.541  14.636 -0.0732 -0.4200  0.3434
22652W        W38546   7.119   2.705  14.008 -0.1544  0.1671  0.1700
22653W        W38547   0.930   8.892  14.956 -0.1164 -0.1307  0.3965
22654W        W38548   9.181  17.015   3.040  0.2045 -0.2890 -0.1249
22655W        W38549   7.458  10.182  13.407  0.1813 -0.1684 -0.0223
22656W        W38550  15.997  11.405  15.438 -0.1619  0.0597  0.1538
22657W        W38551  12.756   8.309   6.335 -0.2326 -0.1982  0.0539
22658W        W38552   1.159   3.214  12.569  0.1052 -0.0191  0.0111
22659W        W38553   8.131   9.965  12.895  0.3463  0.1827  0.0097
22660W        W38554   6.057   0.917   2.235  0.2211  0.0983 -0.2731
22661W        W38555  16.204   3.344  15.242  0.0772  0.3739  0.2058
22662W        W38556   6.423   2.395  11.730  0.0046  0.0509 -0.1143
22663W        W38557   6.955   3.248  13.646  0.1117  0.1127  0.3013
22664W        W38558   2.942   4.311  11.938 -0.2378  0.0281 -0.3741
22665W        W38559  15.430  11.228  13.369  0.3743 -0.0306 -0.2503
22666W        W38560   0.804   6.694   1.510 -0.0459  0.1179  0.0479
22667W        W38561   4.864   4.887   4.262  0.0036  0.1165  0.1730
22668W        W38562   9.808   3.574   0.838  0.0575 -0.0589 -0.0214
22669W        W38563  12.315   2.622   4.514 -0.0311  0.1789  0.2204
22670W        W38564  14.720   5.515   0.333  0.1525  0.2809  0.1038
22671W        W38565  13.769   1.301   3.905  0.0553  0.4051  0.0495
22672W        W38566  11.126   9.401  15.644  0.0538  0.1162  0.2053
22673W        W38567   0.030   3.486  11.218 -0.0243  0.1783  0.1149
22674W        W38568   9.127  17.563   5.939 -0.2491  0.1603  0.0672
22675W        W38569  11.860   6.119  12.937 -0.0519  0.0017 -0.1007
22676W        W38570   2.680   8.767  15.880 -0.0917 -0.3611  0.0756
22677W        W38571  11.090   6.405  11.454  0.1778  0.3715  0.1529
22678W        W38572   9.861   9.346  12.719  0.4656 -0.2507 -0.1116
22679W        W38573   0.516   0.570   4.388 -0.1612 -0.0810  0.0960
22680W        W38574  16.070   3.867  11.898 -0.2735  0.0877 -0.1057
22681W        W38575   8.106   3.431   0.373 -0.0661  0.1269 -0.2035
22682W        W38576  13.930  13.679  11.500 -0.3366  0.0353 -0.1199
22683W        W38577   6.358   6.977   4.035  0.1035  0.1145  0.0092
22684W        W38578   9.674  18.242   2.425 -0.0329 -0.2434 -0.2276
22685W        W38579   7.596   7.004   5.027  0.0890 -0.0286 -0.1104
22686W        W38580  13.135  11.832  11.296  0.3656  0.0667  0.3681
22687W        W38581   5.417   0.763  13.580  0.0541 -0.2325  0.2424
22688W        W38582   2.564   8.488  12.125 -0.1516  0.2174 -0.0891
22689W        W38583  12.457  13.945  12.346 -0.1037 -0.1178  0.0299
22690W        W38584   4.224  16.956  14.131 -0.0402  0.0753  0.1000
22691W        W38585   6.503  13.922   4.772 -0.2846 -0.0921 -0.1048
22692W        W38586   3.197   8.979  13.802  0.0217  0.3177  0.3441
22693W        W38587   6.632  12.682  15.991  0.0784 -0.2274 -0.2192
22694W        W38588   6.777   0.353  11.794 -0.0949  0.0547 -0.1481
22695W        W38589   1.753   5.113  15.093 -0.3778  0.2846  0.1687
22696W        W38590   0.684   5.720  12.458  0.0727  0.0209 -0.0973
22697W        W38591  12.206   6.826  16.082 -0.1603  0.2785  0.0515
22698W        W38592  13.900   0.462  15.707  0.0684 -0.3474  0.0757
22699W        W38593  11.885   2.725   3.844 -0.0129 -0.2521 -0.2076
22700W        W38594   2.988   4.177   1.385  0.0336 -0.1271  0.0256
22701W        W38595   1.060   3.121   2.553 -0.3999 -0.2580  0.4105
22702W        W38596   6.111  18.261  11.386 -0.1944 -0.1074 -0.3841
22703W        W38597  14.285  13.397  11.301 -0.3012  0.1357  0.1269
22704W        W38598   0.670  17.702   1.682 -0.1389  0.0718 -0.1104
22705W        W38599   9.956   3.107  15.201  0.1092 -0.0997  0.0197
22706W        W38600   2.439   4.940   0.467 -0.0835  0.1075 -0.1837
22707W        W38601  16.121   4.978   5.108 -0.3450 -0.1415  0.2599
22708W        W38602   1.774  15.689  13.096 -0.3424  0.0613 -0.3061
22709W        W38603  17.170   2.032  12.101  0.1564  0.1240  0.1036
22710W        W38604   1.847  13.115  11.965 -0.0198 -0.2070 -0.4235
22711W        W38605   5.646   6.909  10.250  0.0371  0.1051  0.2229
22712W        W38606  16.142   6.596  15.845  0.0030 -0.0888  0.4869
22713W        W38607  16.401  11.905  14.003  0.0566 -0.2108  0.4009
22714W        W38608   2.888  18.005  14.045 -0.0291  0.3574  0.2125
22715W        W38609  12.751   7.477   3.320  0.0249 -0.0526  0.2266
22716W        W38610   3.045  16.371  13.634  0.1492 -0.0325  0.1467
22717W        W38611   3.449   1.732   1.924 -0.2492  0.1952  0.0269
22718W        W38612   7.979   3.647  12.210 -0.1682  0.1927 -0.1603
22719W        W38613  16.097  10.474   0.273 -0.0956  0.1299  0.4465
22720W        W38614  13.224  14.113   2.508 -0.1806 -0.0022 -0.0965
22721W        W38615  11.692   2.278   1.735  0.1158 -0.0821 -0.1026
22722W        W38616  10.850   2.177  14.377 -0.2374  0.1682 -0.4917
22723W        W38617  13.965  11.788   5.454 -0.2422 -0.1038 -0.1305
22724W        W38618  17.208   8.575   2.035 -0.0341  0.1887  0.3010
22725W        W38619  13.277   6.113   2.091  0.0441  0.3164  0.2318
22726W        W38620  16.989   2.614   2.519 -0.2334 -0.1759 -0.1873
22727W        W38621  13.254   5.355  16.072 -0.1119 -0.0425  0.0191
22728W        W38622   0.569  15.295   3.104  0.3100  0.0193  0.2366
22729W        W38623   5.316   0.758  12.456 -0.1108 -0.0793  0.3137
22730W        W38624   0.027   3.519  13.297  0.1667  0.0024 -0.0118
22731W        W38625  12.048   8.882   0.985  0.3440  0.2684 -0.1170
22732W        W38626  17.577  10.108   0.308  0.0504  0.5625 -0.0773
22733W        W38627  13.172   7.956   0.541  0.2730 -0.1179  0.1803
22734W        W38628  11.753   1.482   5.665  0.2047 -0.4381 -0.1879
22735W        W38629  14.641  10.942   1.770  0.0418  0.3332  0.1000
22736W        W38630  14.053  13.019   2.057 -0.0467  0.2267  0.1114
22737W        W38631   7.684  11.335  13.480 -0.1005  0.2133 -0.2822
22738W        W38632   8.479   0.148  10.504  0.0001  0.0734  0.0720
22739W        W38633  16.648   7.005   0.544  0.0248 -0.1832  0.3225
22740W        W38634   2.645  18.186   1.133  0.0471  0.1991 -0.2624
22741W        W38635  12.012   3.233  14.128 -0.3686 -0.1495 -0.0344
22742W        W38636  13.246   2.984   1.915  0.1092  0.0882  0.0903
22743W        W38637   0.893   9.641  12.843 -0.0099 -0.0226  0.1036
22744W        W38638  17.670   6.780   1.340  0.0246 -0.1015 -0.1081
22745W        W38639   0.824   6.823   3.647 -0.1139  0.0574  0.1453
22746W        W38640   5.775   4.566   4.764  0.0066 -0.2136  0.0944
22747W        W38641  12.271   2.975  15.421 -0.2061 -0.4334  0.0680
22748W        W38642   3.501   6.093   4.930 -0.0652  0.0267  0.1133
22749W        W38643   3.351   6.505  13.501  0.0136  0.1501  0.1237
22750W        W38644   2.230   3.032   4.200  0.2787  0.1912 -0.0445
22751W        W38645  17.170  17.860  16.135 -0.2127  0.2175 -0.0139
22752W        W38646   8.019   0.848   0.418 -0.3936 -0.0031 -0.2110
22753W        W38647  16.829   9.317  15.920 -0.1643 -0.2744 -0.1653
22754W        W38648  11.809   4.623  14.150 -0.1816  0.2317  0.4091
22755W        W38649   4.746   1.385  10.692 -0.1509  0.0207 -0.0092
22756W        W38650   4.564   0.227   1.621 -0.1453 -0.2352  0.0850
22757W        W38651   3.103  14.198  15.811  0.2404  0.0875 -0.0763
22758W        W38652   2.325  11.144   0.078  0.2802 -0.1981 -0.2305
22759W        W38653   3.585   2.466   1.189  0.0024 -0.1578 -0.3225
22760W        W38654   4.893   4.275  12.100 -0.0527  0.2371 -0.0971
22761W        W38655  14.280   7.752  15.709 -0.1584  0.1491 -0.2910
22762W        W38656   5.064  15.793   3.012  0.1377  0.0906 -0.2418
22763W        W38657   9.963   9.044  12.342  0.3745  0.0319  0.0854
22764W        W38658  12.396  13.794   0.766 -0.1125  0.2265  0.0422
22765W        W38659   5.960   4.364  10.778  0.3177  0.1111 -0.1738
22766W        W38660  15.998  18.188  13.552  0.0573 -0.1427 -0.0015
22767W        W38661   1.631   9.646   3.945 -0.1356  0.0914 -0.2396
22768W        W38662  14.124   7.422  13.013 -0.2523  0.0236 -0.1317
22769W        W38663   6.194   1.784  12.520  0.2272 -0.1971 -0.1841
22770W        W38664   0.622   6.471  11.445  0.0959 -0.1361  0.0356
22771W        W38665  10.978   5.555  15.483 -0.1141  0.2546  0.0129
22772W        W38666  16.590   3.887   2.786 -0.0934  0.1398 -0.3435
22773W        W38667   6.023   3.381  14.554 -0.3874  0.1102  0.0035
22774W        W38668   2.251   2.555  11.088 -0.2184  0.3239  0.1943
22775W        W38669  17.075  12.944  12.545 -0.0642 -0.1267 -0.0498
22776W        W38670  17.852  13.758   1.942 -0.2307 -0.1154  0.2316
22777W        W38671  11.562  12.556  15.825  0.1772 -0.0943  0.1648
22778W        W38672   5.499  12.845   1.212 -0.0130 -0.2480  0.0347
22779W        W38673   3.303   5.352  12.349  0.1847 -0.0808 -0.0711
22780W        W38674   5.584   9.685  15.150  0.0133 -0.4102  0.2049
22781W        W38675  18.180   9.549   4.986  0.3345 -0.0339  0.0032
22782W        W38676   4.653  13.136   0.913  0.1895 -0.3952  0.1442
22783W        W38677  15.667  16.514   3.370  0.1191 -0.0261  0.2474
22784W        W38678   8.444  13.048   2.084 -0.2284 -0.0630 -0.0608
22785W        W38679   0.870  15.680   0.935 -0.1684  0.1934 -0.2165
22786W        W38680  16.277  12.853  11.599 -0.0868  0.1920 -0.0197
22787W        W38681  16.414   8.481   0.167 -0.0607 -0.0711 -0.1110
22788W        W38682  10.127   9.799   1.809  0.0524 -0.4396 -0.0404
22789W        W38683   4.784  13.696   2.039  0.4257 -0.0730 -0.4940
22790W        W38684  11.820  12.618  12.231 -0.1625 -0.3552 -0.0492
22791W        W38685   1.572  16.389   4.719 -0.0562 -0.0300 -0.0215
22792W        W38686  10.656   1.881  15.723  0.0310 -0.1939  0.3935
22793W        W38687  16.214   9.203  15.592 -0.0471  0.1243 -0.0122
22794W        W38688   9.066   1.356   2.882 -0.1702  0.0110  0.1808
22795W        W38689   1.768  17.796   2.947 -0.0379  0.0370 -0.0609
22796W        W38690  17.064   9.783  11.915  0.0689 -0.0185 -0.2255
22797W        W38691  10.309  10.835   2.792 -0.2573  0.0215 -0.2979
22798W        W38692  11.105   4.374  13.029 -0.0866  0.1436 -0.1722
22799W        W38693  15.524  11.786  11.368  0.0824 -0.1453  0.2397
22800W        W38694  14.677  17.333  13.511 -0.0842  0.2897  0.2592
22801W        W38695  10.288   3.760  12.838 -0.1230  0.1238  0.1105
22802W        W38696   5.773  15.171   6.110 -0.2872 -0.0982  0.3801
22803W        W38697  12.588  14.454   3.689  0.4433 -0.0899  0.1156
22804W        W38698   0.809  16.731  14.677 -0.0536 -0.3010 -0.1847
22805W        W38699  13.697   1.415  15.860  0.1055  0.0876 -0.2007
22806W        W38700  10.326   4.858  11.539 -0.0639 -0.1766 -0.0124
22807W        W38701   2.306   4.753  13.304  0.0356 -0.0517 -0.1510
22808W        W38702  10.045   0.127  13.926 -0.0538  0.1209  0.1488
22809W        W38703   3.364   1.851   3.820  0.0382 -0.1954  0.2981
22810W        W38704  16.943  14.997   3.165 -0.0192  0.4263  0.2576
22811W        W38705  17.437  18.447  12.381 -0.1098 -0.1408  0.0801
22812W        W38706   2.400  16.830   2.697 -0.1788  0.1142 -0.0467
22813W        W38707  17.944   4.102   2.107  0.1970  0.2239  0.0524
22814W        W38708  18.424  13.627  13.319 -0.1417 -0.1336 -0.1375
22815W        W38709   0.927  10.253  14.753 -0.0128  0.1290 -0.1600
22816W        W38710  10.145   3.889  11.458 -0.0070  0.1325  0.1120
22817W        W38711  15.005   2.562  14.576  0.1643  0.0731 -0.2735
22818W        W38712   9.924   2.995  12.722  0.2201 -0.1915 -0.0118
22819W        W38713  12.415  15.632   1.872 -0.1430 -0.1086 -0.2964
22820W        W38714   4.895   6.066   1.857  0.2037  0.1621 -0.1094
22821W        W38715  11.355  13.532  14.613  0.3076  0.0772  0.1698
22822W        W38716  16.029   0.173   0.241 -0.1932  0.0187 -0.1186
22823W        W38717  17.550  12.665  12.456  0.1666 -0.1585  0.0109
22824W        W38718  12.990   2.410  13.181 -0.1339 -0.4183  0.3121
22825W        W38719   6.597   2.163  14.652 -0.1577 -0.1794 -0.0846
22826W        W38720  17.577   7.036  12.839  0.2673  0.1027  0.1651
22827W        W38721   0.722  16.218  11.301  0.0880 -0.0156  0.0958
22828W        W38722  15.531   4.873   3.067 -0.1360  0.3513 -0.0576
22829W        W38723  17.910  17.765  13.046  0.1293 -0.0279 -0.0591
22830W        W38724   5.756   9.903  10.916  0.3484  0.0567 -0.0767
22831W        W38725  17.676  12.896   3.158  0.0073 -0.0713 -0.3555
22832W        W38726  14.533   9.096  13.869 -0.1043  0.2436 -0.2570
22833W        W38727  15.539  13.735   1.886  0.3107 -0.2707 -0.1909
22834W        W38728   6.973  10.013   0.765  0.0145 -0.0875  0.2123
22835W        W38729  18.177   6.059  14.639 -0.2752  0.2635  0.1950
22836W        W38730   5.083   6.631   1.851  0.2407 -0.2379  0.2503
22837W        W38731  16.719  11.464   0.362  0.2943 -0.0220  0.2390
22838W        W38732   5.693  15.521  12.460  0.0647  0.2037  0.1190
22839W        W38733   8.529  16.479  11.881 -0.2827 -0.0683 -0.3833
22840W        W38734  10.405  18.358  13.008 -0.1225  0.1203 -0.2319
22841W        W38735   8.070  10.457  16.103  0.2239 -0.3360 -0.1173
22842W        W38736  15.186   0.673  13.774 -0.0741  0.1118  0.2660
22843W        W38737  16.326   6.970  14.477 -0.0097  0.0154  0.1260
22844W        W38738   5.840   3.477   4.995  0.2487  0.0091 -0.2306
22845W        W38739   4.737  17.061  15.385 -0.0314  0.0787 -0.0513
22846W        W38740   1.876   8.590   2.815 -0.0363  0.2841  0.0206
22847W        W38741  16.821   2.323   4.776  0.3865 -0.2830  0.2490
22848W        W38742   1.017  11.285   3.071 -0.0762 -0.0465  0.2958
22849W        W38743   1.311   9.821   0.443  0.2704  0.2586 -0.0307
22850W        W38744   9.686  11.931  12.578 -0.0221  0.0850 -0.0769
22851W        W38745   1.248  18.326  14.100 -0.2385 -0.0347 -0.1521
22852W        W38746  17.910   3.686   4.014  0.5004  0.2617  0.0311
22853W        W38747   1.712  14.387  12.572  0.0729  0.1886 -0.0067
22854W        W38748   7.588   7.056  14.319 -0.6889 -0.1825  0.0897
22855W        W38749   6.221  13.222  12.308 -0.5164  0.0815  0.0891
22856W        W38750   5.171  16.890  15.230  0.1928 -0.4175  0.1478
22857W        W38751  15.976  12.600   4.153 -0.1546  0.4406 -0.1613
22858W        W38752  12.475  10.913   4.090  0.1364  0.2148  0.1570
22859W        W38753   9.581   8.422  11.784  0.1494 -0.0475 -0.0605
22860W        W38754  10.926   1.069   1.318  0.1357 -0.1938 -0.1080
22861W        W38755   3.437   0.315   1.392  0.1711  0.0710 -0.1640
22862W        W38756   8.030   3.740   4.637  0.1855  0.1186  0.1533
22863W        W38757   9.856  10.986   2.711 -0.2354  0.0929  0.0337
22864W        W38758   7.213   6.537  11.193  0.1264 -0.0400  0.4711
22865W        W38759   6.288   9.730   2.564  0.0520  0.5603  0.0664
22866W        W38760   4.428  12.790   4.814 -0.1347 -0.1459  0.2255
22867W        W38761   7.267  18.188   4.797  0.0428  0.0834 -0.0414
22868W        W38762   4.529  16.305   4.883  0.2663  0.3134 -0.1527
22869W        W38763   5.266  11.889  14.806  0.1897 -0.2122  0.2185
22870W        W38764  15.128   0.255   4.830  0.1966 -0.2646  0.2211
22871W        W38765   4.272  18.098  12.720  0.0690 -0.1431 -0.3369
22872W        W38766   2.686   6.000   0.699  0.2147 -0.3554  0.3076
22873W        W38767   9.293   2.880  11.505  0.2517 -0.1861  0.0918
22874W        W38768   5.098   9.455   2.304  0.3022  0.0151 -0.2876
22875W        W38769  10.006  15.605  13.254 -0.0940 -0.2083  0.0522
22876W        W38770   6.916   0.795   4.153  0.1695 -0.0523 -0.1528
22877W        W38771  18.462  12.886   4.799  0.1396  0.0361 -0.1269
22878W        W38772   5.587   4.670  14.962 -0.0389 -0.2447  0.0335
22879W        W38773  18.117   2.301  11.751 -0.0792  0.1912  0.2193
22880W        W38774  17.264   1.465   6.177 -0.2990 -0.1083  0.2219
22881W        W38775   5.921  18.019   5.253 -0.2798 -0.0037  0.0794
22882W        W38776  17.725   0.384   1.337  0.1651  0.1600  0.3244
22883W        W38777  12.865  15.296   4.606 -0.0823 -0.0542 -0.2504
22884W        W38778  12.944   2.430   0.013 -0.2796  0.0542 -0.1887
22885W        W38779  18.367  11.775   4.900 -0.0380  0.0607  0.1000
22886W        W38780   1.719  16.835   5.020  0.0381 -0.0182  0.2440
22887W        W38781   2.218  12.895  11.218  0.0546 -0.4587 -0.3463
22888W        W38782  12.016   6.879   1.867  0.1706 -0.3234  0.4011
22889W        W38783  17.854   1.464  13.906 -0.0576 -0.0437  0.0139
22890W        W38784  17.545   0.938   0.553  0.0152 -0.2239  0.1363
22891W        W38785   5.324   2.332  11.649 -0.1638  0.0046  0.0667
22892W        W38786  13.340  17.476   1.871 -0.0073 -0.4189 -0.0657
22893W        W38787   7.610  15.844  15.830  0.0665  0.0190 -0.2670
22894W        W38788  11.297  16.783   0.164 -0.1728 -0.0803  0.0537
22895W        W38789   4.790   2.246   3.082 -0.1719 -0.0652  0.4530
22896W        W38790   1.648  12.771  11.159 -0.1803  0.0607 -0.1587
22897W        W38791  14.961   8.411   3.059  0.5353  0.3068  0.1005
22898W        W38792  14.172   1.555  15.400 -0.1508 -0.1876 -0.1161
22899W        W38793   1.564  16.862  12.179  0.1886  0.1575  0.0602
22900W        W38794  13.758   8.047   1.305  0.1179  0.2224  0.1217
22901W        W38795   9.049   9.533  14.868 -0.0413  0.3594  0.1383
22902W        W38796   0.782   2.174  12.966  0.1233  0.0421  0.1337
22903W        W38797  10.145   2.060  11.077 -0.1095  0.1202  0.4021
22904W        W38798   6.638   0.069  11.328  0.0632  0.0670 -0.2689
22905W        W38799  15.645   1.235  14.849  0.0937  0.2306 -0.1205
22906W        W38800   2.584  18.142  13.510 -0.4012 -0.0590  0.0677
22907W        W38801   3.697   0.737   1.559 -0.3057 -0.1785 -0.2860
22908W        W38802  16.324   0.110   1.619 -0.0135  0.0716 -0.1227
22909W        W38803   4.145  12.778   1.518  0.0056  0.0120  0.0055
22910W        W38804   6.081   0.328  13.175  0.0280  0.0156  0.3494
22911W        W38805  15.458  13.013   1.452  0.3541 -0.2523  0.2167
22912W        W38806   3.703  18.360   1.922 -0.1019 -0.0863 -0.0478
22913W        W38807  12.540  17.040  11.681 -0.1288  0.2384  0.2642
22914W        W38808   5.256   9.680   3.419  0.1817  0.0817  0.0853
22915W        W38809  14.882  12.553  14.116 -0.1343  0.3288  0.1640
22916W        W38810   4.973   8.206  15.339  0.0916  0.1802  0.1127
22917W        W38811   1.436   3.349  15.665 -0.2336  0.0098  0.3630
22918W        W38812   7.867   3.117  15.012  0.0083 -0.2649  0.0281
22919W        W38813  12.016  12.335  11.198  0.0294 -0.0961 -0.1360
22920W        W38814  14.900  15.223   2.051  0.0234  0.1006  0.0153
22921W        W38815  12.518   2.451  13.357 -0.0504  0.1106 -0.0358
22922W        W38816  16.444   3.771  11.572  0.1196  0.2747  0.1441
22923W        W38817  13.382   4.598   5.822  0.1215  0.1690  0.0114
22924W        W38818  10.008   6.269  15.971  0.1784 -0.2160  0.0310
22925W        W38819   5.180   5.450  14.912 -0.0035 -0.3208  0.0462
22926W        W38820   0.857   7.172   0.002 -0.0125  0.2716  0.1393
22927W        W38821   9.550  10.166   0.849  0.0990  0.3585 -0.0100
22928W        W38822   9.023  13.903  12.918 -0.2025  0.2259 -0.0501
22929W        W38823  14.412   3.987   2.496 -0.2635  0.1714 -0.0087
22930W        W38824  13.705  11.681   4.574 -0.0745 -0.0009 -0.0960
22931W        W38825   5.256   5.044   3.982  0.0485 -0.1048  0.1144
22932W        W38826   4.240   5.385  14.753 -0.0829 -0.2467 -0.0039
22933W        W38827   4.196  18.104   2.926 -0.2989  0.0722  0.2037
22934W        W38828  12.062   1.127  11.906  0.0102  0.0659 -0.2509
22935W        W38829   0.339  12.036   4.177  0.3370 -0.0836 -0.0203
22936W        W38830   7.330   1.679   2.076  0.0418  0.2717  0.1767
22937W        W38831   0.313  11.065   3.470 -0.1280 -0.2958  0.0100
22938W        W38832  14.020   8.108   3.295  0.0726  0.3467 -0.0059
22939W        W38833  10.649   6.203  14.935  0.2974 -0.1354  0.1986
22940W        W38834   5.122   3.710  12.904  0.0822 -0.2232 -0.2325
22941W        W38835   2.704  15.832   3.695  0.3089 -0.0607 -0.0505
22942W        W38836   8.865   6.179  11.353 -0.0432 -0.3985 -0.2309
22943W        W38837   7.380   2.233   2.242 -0.0028  0.0134 -0.3139
22944W        W38838   6.690  12.467  12.371  0.1053  0.2127 -0.1670
22945W        W38839  17.111   8.216   5.494 -0.1667  0.0655 -0.1603
22946W        W38840   1.001  11.777  12.865 -0.1579 -0.3021  0.0973
22947W        W38841   0.182   6.229   3.247 -0.1880  0.3161 -0.1212
22948W        W38842  10.162  15.662   2.215 -0.0224  0.1413  0.3998
22949W        W38843   1.339   2.528  16.058 -0.3349  0.0542 -0.0909
22950W        W38844  14.084  15.888   1.771 -0.1105  0.0389 -0.2341
22951W        W38845  13.550  12.751   3.050  0.2540  0.1224 -0.1299
22952W        W38846  17.002  17.216  14.875 -0.0006  0.1325  0.2493
22953W        W38847  12.997   7.461  12.492  0.1937 -0.2182  0.0552
22954W        W38848   1.209   3.668  11.233  0.1868  0.2261  0.3511
22955W        W38849   3.734   5.254  13.930  0.0347 -0.0855  0.1396
22956W        W38850   9.218   7.800  15.494  0.2199  0.1792  0.1849
22957W        W38851  12.893   6.421   1.398  0.2578  0.0786 -0.2402
22958W        W38852   3.760  16.593   3.120  0.3675 -0.2560 -0.4577
22959W        W38853  15.824  17.720   5.159  0.2464  0.1053  0.2037
22960W        W38854   6.154  15.898  15.199 -0.1482  0.1452  0.0167
22961W        W38855  14.205  13.872   5.726  0.2148 -0.1807 -0.2330
22962W        W38856   4.125   9.071   3.403 -0.2470  0.1337  0.2602
22963W        W38857   5.064   3.813   2.056 -0.1370  0.0125 -0.0219
22964W        W38858   5.974   0.652  11.525  0.0391  0.2131 -0.2399
22965W        W38859  14.650  14.940  11.381 -0.0691 -0.4386 -0.1238
22966W        W38860   7.717   5.331   5.799  0.2439 -0.6776 -0.0827
22967W        W38861  16.869  14.991   5.308 -0.2979  0.1624  0.3187
22968W        W38862   8.703  13.225  11.433 -0.1333  0.0821  0.0764
22969W        W38863   0.465   4.056   1.318 -0.1039  0.5614 -0.2395
22970W        W38864   5.604  10.616   1.485  0.1646 -0.5184  0.1834
22971W        W38865   0.121  17.153  12.707 -0.2481 -0.1610  0.0402
22972W        W38866   2.348   8.761  14.066  0.1143  0.2635 -0.1561
22973W        W38867   1.186   4.646   3.104 -0.0547 -0.1529 -0.0203
22974W        W38868  13.156  12.907  16.091 -0.0587 -0.1619 -0.0246
22975W        W38869   1.148  14.225   1.581 -0.1765 -0.0262 -0.0996
22976W        W38870   2.954   1.606   2.449  0.2580  0.2669  0.2926
22977W        W38871  11.145   4.695   1.048 -0.1884  0.3159 -0.0077
22978W        W38872  16.953  13.973  13.715  0.0329  0.2881 -0.3737
22979W        W38873   9.142  12.640   2.991  0.1913 -0.2469 -0.0743
22980W        W38874  11.847   1.703   6.150 -0.0697 -0.1928 -0.0866
22981W        W38875   8.295  12.946  15.358 -0.1142  0.1138  0.1845
22982W        W38876  13.463  18.062  14.916 -0.0491  0.1368  0.0418
22983W        W38877   5.919   2.543   3.761  0.1552 -0.2211 -0.1021
22984W        W38878   2.299  13.793   5.040 -0.1837 -0.1404 -0.1164
22985W        W38879   4.820  14.598  14.996  0.0410  0.1151 -0.2284
22986W        W38880   3.984   2.729  14.155  0.0306 -0.0764 -0.0069
22987W        W38881  12.102   7.412  15.963 -0.0438 -0.1481 -0.2128
22988W        W38882  11.192  18.192   0.610  0.1200  0.4090 -0.1606
22989W        W38883   9.843   8.053  14.207 -0.2257  0.1119 -0.2736
22990W        W38884  11.834  15.094  15.201 -0.0599 -0.4078  0.2418
22991W        W38885  13.101  17.759  11.846  0.1128 -0.0274  0.1130
22992W        W38886  12.228  16.038   2.631  0.0997 -0.0386  0.1812
22993W        W38887   1.853  14.758   4.226  0.3089  0.3148 -0.1295
22994W        W38888   4.689  11.045   3.774  0.1718 -0.1201  0.2328
22995W        W38889  14.732   3.946   2.082 -0.0225 -0.0876 -0.1186
22996W        W38890   7.635   5.801  11.696  0.0282 -0.0366  0.2669
22997W        W38891   7.047   7.933  13.892 -0.0095 -0.0968  0.0872
22998W        W38892   9.419   7.347   4.643  0.3989  0.0405 -0.0383
22999W        W38893  18.313   3.914   2.350 -0.0417  0.0087 -0.0942
23000W        W38894  15.323  10.104   3.086  0.1136 -0.0287  0.1002
23001W        W38895   7.416  14.350   2.729 -0.1815  0.4936  0.0067
23002W        W38896   0.396  18.060  12.861 -0.1563  0.6270  0.2431
23003W        W38897   6.922   5.845  14.324  0.1981  0.0226  0.1713
23004W        W38898  14.696   1.574  14.556  0.0826  0.1782 -0.2395
23005W        W38899   5.377   0.239   2.012 -0.1795 -0.1710 -0.1390
23006W        W38900  15.860   9.783   3.965 -0.2910  0.0608  0.2245
23007W        W38901  10.620   0.836  15.465 -0.3674 -0.0239 -0.0457
23008W        W38902   6.424   2.345   2.356  0.1677 -0.4951 -0.0315
23009W        W38903   3.708  13.284   1.042  0.6348 -0.1011  0.0858
23010W        W38904  10.348   9.908  14.237 -0.0853 -0.0707 -0.1014
23011W        W38905   3.930  11.018   1.458 -0.3530  0.1848  0.2412
23012W        W38906   7.239   4.751   1.329 -0.3537  0.1934 -0.2036
23013W        W38907  16.152   5.205   1.103 -0.5217  0.3145  0.0882
23014W        W38908  18.326  17.334   3.289  0.1921  0.0673  0.0352
23015W        W38909   8.647   5.925   5.024 -0.1499  0.1414 -0.1507
23016W        W38910   1.186  17.299   0.072 -0.0915  0.0825 -0.0617
23017W        W38911  11.340   5.841   2.508 -0.0616  0.0858 -0.0137
23018W        W38912  16.430  16.244   2.134 -0.0868 -0.3936 -0.1475
23019W        W38913   8.009  13.749  13.277 -0.3352 -0.2247  0.0339
23020W        W38914  12.021   7.709  13.064 -0.0644 -0.0624 -0.0432
23021W        W38915   4.044   1.919   0.236 -0.1612 -0.2512  0.0311
23022W        W38916   9.636   2.182   3.850 -0.0275  0.6419  0.1636
23023W        W38917   5.471  15.096  10.335  0.0143  0.1835 -0.0673
23024W        W38918  14.090  10.256   4.392 -0.0754  0.4458  0.1168
23025W        W38919  11.242   7.476   3.214 -0.1800 -0.1975 -0.0104
23026W        W38920   9.962  15.239  11.071  0.0054  0.1489 -0.3709
23027W        W38921  17.905   4.562  11.177 -0.0526 -0.1870  0.1355
23028W        W38922   9.747  13.529  15.662 -0.0930 -0.0177  0.1453
23029W        W38923  13.164   7.070   2.168 -0.0541 -0.2306  0.0169
23030W        W38924  11.708   2.351  15.801  0.0337 -0.0975  0.1328
23031W        W38925  15.276  17.427   0.764  0.3086 -0.1788  0.0509
23032W        W38926   5.261   5.875   5.974  0.1537 -0.1409  0.0208
23033W        W38927   2.833   9.777   2.186 -0.1206  0.1841  0.1645
23034W        W38928  12.405  15.164  11.927 -0.0009  0.3066  0.0135
23035W        W38929  17.433   9.479   3.220 -0.1061 -0.3253 -0.0314
23036W        W38930   4.988  12.266   0.368  0.2952  0.3268  0.1494
23037W        W38931   2.521  11.990   0.824  0.0018 -0.1131 -0.3088
23038W        W38932  17.245   9.021  15.529 -0.0013 -0.0676  0.1137
23039W        W38933   0.008   5.230   3.202  0.2450 -0.0237  0.2531
23040W        W38934   2.485  10.955  11.399  0.3004  0.1273 -0.0448
23041W        W38935  12.563   1.789   1.742  0.4423  0.0815 -0.1277
23042W        W38936   2.886  11.888  13.737 -0.1039  0.1354  0.2903
23043W        W38937  14.368  17.808   3.527 -0.1497  0.1872  0.0061
23044W        W38938  14.771  14.567  13.188  0.0640  0.1191  0.4106
23045W        W38939   7.454   1.793  11.007 -0.1333  0.4983 -0.3937
23046W        W38940  12.986  13.502   3.340  0.1200  0.1446  0.0036
23047W        W38941  16.218  11.362  14.693  0.1316  0.2995 -0.0342
23048W        W38942   0.933   4.651   1.935 -0.0863  0.0419  0.0087
23049W        W38943   6.562   5.221   0.469 -0.0862 -0.2262 -0.2449
23050W        W38944  16.776   7.843   6.433  0.1825 -0.1692 -0.0025
23051W        W38945  14.900  13.372   5.179 -0.1934 -0.3084  0.0056
23052W        W38946   6.788  12.223   0.028 -0.1157 -0.1830 -0.3046
23053W        W38947   8.623   7.275   4.082  0.0387 -0.0833 -0.0231
23054W        W38948  18.099   5.201  14.044 -0.3406 -0.3197  0.1028
23055W        W38949   1.494   6.676  12.732 -0.0706  0.0766  0.0147
23056W        W38950  13.086  10.863  15.933  0.2407 -0.0916  0.0732
23057W        W38951   7.942   5.460   9.952  0.0629  0.0716  0.0404
23058W        W38952   5.854  14.848   0.699  0.1453 -0.1060 -0.0892
23059W        W38953   6.450  15.924  13.580  0.1566 -0.1545 -0.0263
23060W        W38954  11.001   0.036  11.546  0.1524 -0.3309 -0.2856
23061W        W38955  17.514  15.401   1.392 -0.0060  0.0328 -0.2682
23062W        W38956   4.300   1.479   4.679 -0.0497 -0.1150  0.0332
23063W        W38957   7.189   1.950  16.046  0.2277 -0.0761 -0.1028
23064W        W38958   7.360  15.914   4.932  0.2063  0.2732 -0.0721
23065W        W38959   1.787   3.560   1.526  0.0580 -0.2081  0.1730
23066W        W38960   7.168   8.441   1.868 -0.1786 -0.2286 -0.1835
23067W        W38961   5.730   7.661  13.493 -0.1641  0.2684 -0.0907
23068W        W38962  18.049   8.177  13.718 -0.0323  0.0588  0.2047
23069W        W38963   7.720  12.949   4.070  0.3075 -0.1922 -0.0660
23070W        W38964   9.240   8.911   2.300 -0.1220  0.2633 -0.0360
23071W        W38965   0.684   9.876  13.231  0.2039 -0.3714  0.0534
23072W        W38966  10.068   1.419  12.801  0.1031 -0.0893  0.1528
23073W        W38967  12.460   7.307   4.682  0.0324  0.2695  0.1704
23074W        W38968   5.198   3.996  11.292  0.1929  0.1141 -0.1442
23075W        W38969  17.573   7.479   2.084 -0.2275 -0.4303  0.1061
23076W        W38970   8.615  17.192   1.812 -0.0922 -0.0289  0.2231
23077W        W38971   4.860  15.757   1.506 -0.0209  0.0237  0.1679
23078W        W38972   0.767   2.555  10.973  0.3587 -0.0959 -0.2031
23079W        W38973   8.325   4.883   2.852 -0.3613 -0.2132  0.0537
23080W        W38974   1.202   3.179   5.056 -0.0993  0.0778  0.2094
23081W        W38975  10.848   1.090   0.224 -0.2647  0.1718 -0.1360
23082W        W38976   5.402   3.407   1.978 -0.1967 -0.0920 -0.2150
23083W        W38977   7.444  13.846   0.533  0.0169  0.0827  0.0817
23084W        W38978   1.711  10.604   0.257 -0.1759 -0.1644  0.2194
23085W        W38979  14.223  15.196  11.024  0.1679  0.0302  0.2981
23086W        W38980  12.087   0.117   4.483 -0.2895  0.1825  0.1139
23087W        W38981   9.676  11.920   4.360  0.1091 -0.0376  0.0884
23088W        W38982  11.660   4.649  13.107 -0.4879  0.0143  0.2764
23089W        W38983  12.674  16.485  13.786  0.1057  0.2008  0.2039
23090W        W38984  17.994  12.733   3.463  0.0347 -0.2695  0.1788
23091W        W38985   3.932  17.042  16.000  0.0775  0.1086 -0.2343
23092W        W38986  18.029  14.130   0.106 -0.3078 -0.2075 -0.0344
23093W        W38987   3.679   7.179  14.492  0.1222  0.1282 -0.1008
23094W        W38988  12.463  16.813  15.822  0.3874 -0.1068  0.1455
23095W        W38989   6.135   0.484  14.151  0.2709  0.3153 -0.1646
23096W        W38990   8.282  10.589   2.167  0.0270  0.1418 -0.0852
23097W        W38991  13.646  13.727   5.223  0.1796 -0.3201  0.2214
23098W        W38992   0.805  12.315  12.966  0.1455  0.2843  0.3233
23099W        W38993   1.724  14.197  11.657  0.3651 -0.0154 -0.0975
23100W        W38994   0.875  17.472   0.857 -0.2273 -0.0659  0.3075
23101W        W38995   7.686   9.897   4.389  0.2129  0.1975  0.1638
23102W        W38996   7.969   7.676   2.994 -0.0329  0.0700  0.0474
23103W        W38997  10.195   3.282   2.262 -0.1525  0.0740 -0.3419
23104W        W38998  16.654   7.916   0.471  0.0560  0.1894  0.0241
23105W        W38999   9.438   3.283  11.133  0.2040  0.0254  0.0975
23106W        W39000   0.385   7.448   1.906 -0.3877 -0.0330 -0.0120
23107W        W39001  11.576   9.992  16.103 -0.1284 -0.0081 -0.2609
23108W        W39002  16.020  11.602   3.366  0.0636  0.0137  0.0149
23109W        W39003   0.736  15.449  11.374 -0.3226 -0.3139 -0.2643
23110W        W39004  17.250   9.857  13.524 -0.3377 -0.1212 -0.0840
23111W        W39005   8.019   5.920   3.008  0.0617 -0.1930  0.0221
23112W        W39006  11.427  15.470   2.866  0.0198 -0.0261 -0.1942
23113W        W39007  17.879   3.509  12.533  0.1107  0.1639  0.2890
23114W        W39008  14.532   0.596   3.729  0.3472  0.1063 -0.1557
23115W        W39009  15.090  16.589   5.048 -0.2554  0.0728  0.0889
23116W        W39010   4.972  17.466   1.652  0.3495  0.5207  0.1595
23117W        W39011   8.769   7.249  15.442 -0.1249 -0.1927 -0.1620
23118W        W39012  12.409   1.164   2.124 -0.0790 -0.0528 -0.1746
23119W        W39013  13.002   9.562   0.392 -0.1314 -0.1257 -0.0253
23120W        W39014  13.375  16.163  15.504  0.1954  0.1503  0.0464
23121W        W39015  15.420   8.361  16.139  0.1160  0.3423 -0.0051
23122W        W39016   6.400   3.855   3.385  0.1235  0.4767  0.1619
23123W        W39017  18.277  12.165  14.514  0.3540 -0.1464  0.2066
23124W        W39018   2.280   6.958  13.310  0.1470 -0.0976 -0.1289
23125W        W39019  13.211  15.218   3.655 -0.2605  0.0531  0.1575
23126W        W39020  18.219   1.604  11.500 -0.3205  0.3340  0.0336
23127W        W39021   4.270  16.550   5.304  0.0025 -0.2339  0.2536
23128W        W39022   2.446  18.319   5.895 -0.0963  0.1389 -0.3766
23129W        W39023  11.685   4.923  12.676 -0.0674  0.1383 -0.1412
23130W        W39024   8.618  16.795   5.118  0.1099  0.1904 -0.3168
23131W        W39025   8.186  14.855  10.639 -0.0183  0.0438 -0.1566
23132W        W39026  11.515   2.880  12.112 -0.2348  0.2674 -0.0323
23133W        W39027   2.717   7.516   1.411  0.1297 -0.1449 -0.2498
23134W        W39028  13.524   1.651   5.295 -0.0553 -0.1240 -0.3839
23135W        W39029  14.730  12.616  15.033  0.1264 -0.0515  0.0914
23136W        W39030  10.906  11.812  13.250 -0.0975  0.0620  0.1473
23137W        W39031  14.303   7.161  14.467  0.1623 -0.1793  0.0636
23138W        W39032   4.732  11.718  15.946  0.3099  0.0196 -0.1084
23139W        W39033  10.439   9.313  12.566 -0.1773 -0.0366  0.3022
23140W        W39034   4.518   9.083   1.590  0.1662  0.1953 -0.1843
23141W        W39035   0.096   1.508  13.399  0.2434 -0.1591 -0.0523
23142W        W39036   9.750  16.313  11.847 -0.0164 -0.1048 -0.5354
23143W        W39037   2.085   6.936  11.419 -0.1318  0.0406  0.3581
23144W        W39038   5.948   0.724  15.279 -0.3572 -0.1491 -0.0078
23145W        W39039  15.297   8.377  14.874 -0.2528  0.0486  0.2433
23146W        W39040  10.251   2.005   3.980 -0.2531 -0.2654  0.4434
23147W        W39041  12.968  13.877  11.917  0.0092  0.0128  0.2097
23148W        W39042   8.732  13.545  14.630 -0.3909  0.1318  0.1848
23149W        W39043  12.847   8.031   2.451 -0.3536  0.2183 -0.2845
23150W        W39044  15.129  15.796  13.607 -0.2442 -0.1123 -0.0145
23151W        W39045   9.221   8.437   5.905  0.0401  0.1282 -0.3058
23152W        W39046   2.098  11.224  12.869  0.2463 -0.0937 -0.0368
23153W        W39047   7.167  14.004   0.004  0.0640  0.4018 -0.0015
23154W        W39048  13.119  17.038   4.716 -0.3113  0.0979  0.5435
23155W        W39049   5.334  13.957  13.595 -0.1126 -0.1649 -0.1990
23156W        W39050  13.198   4.798   1.369  0.1089  0.0826  0.0824
23157W        W39051   6.713   6.978   4.442 -0.0635  0.0562 -0.1777
23158W        W39052  17.385   1.841   0.420  0.0406  0.1324 -0.0176
23159W        W39053   7.058  18.418  11.036 -0.1658 -0.0812 -0.1601
23160W        W39054   5.340  13.454   1.420 -0.1955 -0.4684  0.3179
23161W        W39055  17.793   1.421   1.808  0.0986  0.0993  0.1314
23162W        W39056  12.052   9.452  10.160 -0.2941 -0.2569 -0.1626
23163W        W39057   6.885   7.590   5.590 -0.0249  0.3156 -0.0980
23164W        W39058   1.823  11.130   0.888 -0.0433 -0.2553  0.1431
23165W        W39059   0.793   2.179   3.774 -0.0076 -0.0455 -0.0271
23166W        W39060  15.826   4.892   3.603  0.1627 -0.0939 -0.0143
23167W        W39061   6.854   5.926  10.420  0.0893 -0.1540  0.0443
23168W        W39062   7.015   1.244   2.317  0.1172  0.1159  0.1884
23169W        W39063   4.673  16.829   0.812  0.2117  0.1117 -0.2351
23170W        W39064   8.897  14.069  14.656  0.1255  0.0941 -0.1052
23171W        W39065  12.160  14.151  14.874  0.0877  0.2401  0.1569
23172W        W39066   8.954  13.935   1.529 -0.1132  0.2083  0.1327
23173W        W39067   7.655  16.235   3.037  0.1282  0.1488  0.0608
23174W        W39068   2.547  18.093   0.513 -0.1113  0.1454 -0.1400
23175W        W39069  15.985   6.956  13.169 -0.1909 -0.3266 -0.0020
23176W        W39070   0.911  11.470   1.943 -0.1931  0.2631  0.0387
23177W        W39071   5.906  14.449  15.041 -0.1003  0.1659 -0.0100
23178W        W39072   0.744  14.334   0.956 -0.0436  0.4020 -0.0912
23179W        W39073   7.910  16.916  13.077 -0.0192 -0.0652  0.1141
23180W        W39074   8.997  11.015   4.404 -0.0592 -0.1162 -0.1593
23181W        W39075   5.091  18.246  11.457 -0.1518  0.2250 -0.0020
23182W        W39076  18.357  14.827  12.006 -0.1220  0.1299  0.0835
23183W        W39077  14.406   4.571  12.858  0.1808  0.2531 -0.0087
23184W        W39078   5.409  15.347  14.401 -0.2366 -0.2783  0.3642
23185W        W39079   0.910   4.377   2.791  0.3309 -0.2004 -0.0705
23186W        W39080   3.030  11.982   4.045 -0.0368 -0.4124  0.3765
23187W        W39081   1.596  11.855  11.794  0.1641  0.1678 -0.3763
23188W        W39082   7.119   7.899   2.700 -0.2458  0.1074  0.1390
23189W        W39083  13.534  11.774   3.202  0.0207 -0.2201 -0.0057
23190W        W39084  16.546  17.371  14.022 -0.1847  0.2617  0.0589
23191W        W39085   8.109   7.352  13.609  0.3826  0.0960 -0.3169
23192W        W39086  14.345   2.579  15.224  0.0556 -0.0385 -0.1193
23193W        W39087   3.354  13.418   3.949 -0.0903 -0.0051 -0.1426
23194W        W39088   9.765   7.299  15.955 -0.1550 -0.1420 -0.1055
23195W        W39089   9.979  16.565   2.627 -0.1677 -0.0214  0.1765
23196W        W39090  10.496   2.922  13.764  0.1108 -0.2584  0.1992
23197W        W39091  17.738  17.384  14.445 -0.2753 -0.1760 -0.1048
23198W        W39092  15.389   3.711   5.088  0.2521 -0.2649 -0.1183
23199W        W39093   8.294  12.213   5.142  0.0366 -0.0928 -0.1402
23200W        W39094  18.345  13.714  11.705 -0.5828  0.0709  0.0492
23201W        W39095  17.004  11.202  13.344  0.1094  0.0483  0.1268
23202W        W39096  11.553  12.506  13.156 -0.0106  0.0914 -0.0528
23203W        W39097   9.065  12.289  13.458 -0.1833  0.0351 -0.1790
23204W        W39098  16.129   5.147  13.979  0.1244  0.0382  0.3515
23205W        W39099   4.262  13.471   9.853  0.0188  0.4291  0.1332
23206W        W39100  16.484  13.192   0.500  0.1578  0.2392  0.0789
23207W        W39101   9.355   1.368  16.130 -0.0455  0.3071  0.2890
23208W        W39102  10.652  15.165  13.695 -0.1050  0.2685  0.0447
23209W        W39103  11.677  11.884  14.626  0.0555 -0.1321 -0.0442
23210W        W39104   6.087   9.972  15.604 -0.1694 -0.1869  0.4876
23211W        W39105  16.394   5.548   6.315 -0.0068  0.0088  0.0522
23212W        W39106   1.240   9.977   3.777  0.1462 -0.1078  0.0679
23213W        W39107   0.065   0.835   2.193 -0.0146 -0.0458  0.3133
23214W        W39108   1.334  12.868   4.719 -0.1299 -0.0207  0.1987
23215W        W39109  15.148   9.725   0.127 -0.0646  0.1186 -0.0252
23216W        W39110  16.294   9.999  14.548 -0.0754  0.1665 -0.0712
23217W        W39111   9.637  10.615  11.362  0.2090  0.0672 -0.0984
23218W        W39112   6.703  16.808   1.874  0.1853 -0.1320 -0.0593
23219W        W39113  10.560  14.593   2.575  0.1004 -0.1684  0.1015
23220W        W39114   7.834   6.338  12.447 -0.2556 -0.1955 -0.4395
23221W        W39115   6.950  15.189   4.138 -0.0687 -0.1533  0.1374
23222W        W39116   9.082  18.442   0.824 -0.0958  0.1551  0.1876
23223W        W39117  17.671   2.073  11.758 -0.3728 -0.0805 -0.0400
23224W        W39118   0.035   3.327  14.584 -0.0236  0.0556  0.2827
23225W        W39119  16.020  12.777  13.493 -0.0296  0.2444  0.2790
23226W        W39120   1.432   0.603  12.731 -0.2684 -0.0785 -0.1936
23227W        W39121  16.198  12.990   0.866 -0.0794  0.3963 -0.1422
23228W        W39122   2.959   8.596   4.058  0.1446 -0.0817  0.1371
23229W        W39123  16.317  18.428   3.407 -0.0930  0.0731  0.1699
23230W        W39124  13.686  17.282  13.799  0.2072 -0.0568  0.2487
23231W        W39125   1.840   0.718   2.634  0.0011  0.0026 -0.2086
23232W        W39126  12.879  15.268  14.606 -0.0746  0.1856 -0.0078
23233W        W39127   8.861   5.417   0.239 -0.1234 -0.1589 -0.2969
23234W        W39128   3.110   0.401  15.201 -0.0041  0.0374 -0.0495
23235W        W39129   2.358   7.629   4.944  0.0836  0.1706 -0.0167
23236W        W39130   0.071  15.213   2.235 -0.0771  0.1647 -0.2490
23237W        W39131  11.793  14.253   3.379  0.4532 -0.0605 -0.1699
23238W        W39132   2.382   6.932  14.851 -0.1063 -0.1477  0.1540
23239W        W39133   4.558  11.293  12.572  0.0360 -0.1603 -0.2842
23240W        W39134   9.252   5.826   5.571  0.2304 -0.0808  0.0691
23241W        W39135   3.970  10.311  13.789 -0.1431  0.0022  0.0695
23242W        W39136  16.908   0.342   4.446 -0.1787 -0.0002 -0.3691
23243W        W39137  14.992   8.367  13.609  0.1165  0.3407 -0.5451
23244W        W39138  18.150  10.107  14.622 -0.1680 -0.0953 -0.1389
23245W        W39139   3.967   6.933   4.442  0.1549  0.0617  0.1910
23246W        W39140   7.974   1.353   3.153  0.0812 -0.0563  0.0865
23247W        W39141  18.320  11.777   0.142  0.1594 -0.2124  0.1185
23248W        W39142  11.763   8.428  15.260 -0.1551  0.3315  0.1015
23249W        W39143   4.197   6.411  12.525 -0.0262  0.1217 -0.0166
23250W        W39144  17.582   3.676  12.905  0.2095 -0.1286  0.3107
23251W        W39145   9.841  17.775  10.824  0.2745 -0.0171  0.2340
23252W        W39146  14.151   6.109   4.914 -0.2222 -0.1675  0.0926
23253W        W39147  15.758   9.140   4.516  0.0198  0.2887  0.2715
23254W        W39148   4.714  16.708  14.964  0.1950  0.0279  0.0948
23255W        W39149  17.387  14.399  13.257  0.2089 -0.2991 -0.0662
23256W        W39150   2.341   0.559   5.303 -0.1886  0.1516 -0.2546
23257W        W39151   0.393   3.257   4.425  0.4702 -0.3034  0.2434
23258W        W39152  17.636  14.650   1.596 -0.3282 -0.1351 -0.3415
23259W        W39153  17.025  15.085  12.237  0.3279 -0.0462  0.1988
23260W        W39154   1.486   2.827  10.327  0.1440  0.0868  0.1174
23261W        W39155  15.027  11.424   2.466  0.0592 -0.0461  0.2116
23262W        W39156   5.686   2.422  12.814 -0.1645 -0.0841  0.1533
23263W        W39157  10.559   9.058   1.020 -0.1194 -0.1888  0.0315
23264W        W39158  14.577   4.929  13.230 -0.0537  0.0874  0.1808
23265W        W39159   7.998  14.494   4.670 -0.1847 -0.2743  0.2830
23266W        W39160   3.312   6.576   0.699 -0.0005  0.0859 -0.0160
23267W        W39161  12.059  10.967  11.078  0.0349 -0.2293  0.2699
23268W        W39162  12.934  16.653  13.346 -0.0557 -0.0903 -0.0503
23269W        W39163   4.261  15.262  11.621 -0.1069 -0.2756 -0.0140
23270W        W39164  17.152   2.746   6.807 -0.1471 -0.1769 -0.1462
23271W        W39165  17.354   1.915  15.012 -0.0980 -0.2043  0.0628
23272W        W39166  16.197  11.957   3.059  0.1354 -0.0612 -0.1024
23273W        W39167   3.785  17.446   6.167 -0.0036 -0.1258 -0.0172
23274W        W39168   6.395  10.997   5.261 -0.2367 -0.0836  0.0252
23275W        W39169  15.283   8.852  10.953 -0.1374 -0.0918 -0.3672
23276W        W39170   0.097   2.510   1.799  0.1162  0.0816  0.1615
23277W        W39171  16.502   0.850   2.818  0.2556 -0.3038  0.0977
23278W        W39172   3.505  12.607  11.520 -0.0685  0.0808 -0.5167
23279W        W39173  17.512   6.762  14.135 -0.2629  0.1771  0.2296
23280W        W39174   3.838   3.234   0.442  0.2657  0.0988  0.1222
23281W        W39175  14.472   9.964  14.389 -0.2663 -0.1906  0.1774
23282W        W39176   4.276   3.402   0.137 -0.2836 -0.2721 -0.3302
23283W        W39177  12.774   2.822   1.140  0.1242  0.4241 -0.0266
23284W        W39178  12.153   5.429   3.018 -0.1915 -0.2360 -0.0193
23285W        W39179   5.776  14.075  14.749  0.4337  0.0644 -0.0058
23286W        W39180  10.076   8.159   4.885  0.2763 -0.0604  0.0386
23287W        W39181   6.661  11.190   2.290  0.1045  0.1179  0.0521
23288W        W39182   1.950   9.893  14.828  0.2436 -0.0101 -0.0451
23289W        W39183   5.521   0.167   5.828 -0.0897  0.2367  0.2915
23290W        W39184   3.468  12.390  12.004 -0.2061  0.2115  0.2511
23291W        W39185   7.434  12.101  11.096  0.2425  0.0138 -0.1183
23292W        W39186   7.217   4.374   4.770 -0.0960  0.5045 -0.1130
23293W        W39187  13.909   4.410  14.230 -0.0585 -0.0176 -0.0064
23294W        W39188   4.584   2.515  13.031 -0.0309  0.0695 -0.0153
23295W        W39189  10.757  11.547   4.959  0.2560 -0.0879 -0.1806
23296W        W39190   4.187   5.760  12.554 -0.0964  0.0348 -0.3678
23297W        W39191   2.933   3.716  14.036  0.2001  0.0225 -0.2709
23298W        W39192   8.097  12.620   4.927  0.2160  0.1112  0.0285
23299W        W39193   1.347   5.663  14.687  0.0357 -0.0276 -0.1656
23300W        W39194   2.370   0.599   2.682  0.2943  0.4585  0.1545
23301W        W39195  17.272   6.785   0.385  0.3311  0.0041  0.0331
23302W        W39196  13.691   1.508  12.515 -0.1786  0.0281 -0.0512
23303W        W39197   1.139   6.367   2.499 -0.2726  0.3387  0.0483
23304W        W39198  15.627   0.627  15.055  0.2559 -0.0817 -0.2440
23305W        W39199   9.762  12.615  13.804 -0.1640  0.1907 -0.1452
23306W        W39200   6.773   4.208   4.534 -0.0581  0.1489  0.3432
23307W        W39201   1.048  17.485   1.352 -0.1873  0.1864  0.1832
23308W        W39202   5.837  11.243   0.510 -0.3331  0.1264  0.0390
23309W        W39203  16.452  12.367  14.717  0.2470 -0.0556 -0.0285
23310W        W39204   1.872   4.105  13.893  0.1865  0.2433  0.0830
23311W        W39205   0.902  10.220  15.885  0.0912 -0.1053  0.0849
23312W        W39206   8.386  10.524  10.628  0.2979 -0.0759  0.0594
23313W        W39207  17.595  11.998  15.083 -0.0215  0.2579 -0.1236
23314W        W39208   9.677   4.483  14.579  0.3255  0.1321 -0.2809
23315W        W39209  10.487  14.113   1.361 -0.4224  0.1098  0.1522
23316W        W39210   5.285  12.764  15.063  0.1433  0.1224  0.0232
23317W        W39211   3.103  10.782   4.159 -0.1858 -0.0655 -0.1039
23318W        W39212  17.877  12.060  12.635  0.0331 -0.1114 -0.1034
23319W        W39213  12.018   0.866   1.907 -0.2086  0.4502  0.1422
23320W        W39214  13.419   7.518  16.043  0.2992  0.0527 -0.0542
23321W        W39215  12.428  18.429   1.754 -0.3762  0.0320 -0.2162
23322W        W39216   3.584  13.030   6.087 -0.3646 -0.0781  0.3407
23323W        W39217   6.050  16.960  14.406 -0.1425  0.0222  0.0038
23324W        W39218  13.899   0.018  11.166  0.1458  0.2863 -0.1695
23325W        W39219   1.690   3.565  12.210 -0.4813  0.1095  0.0450
23326W        W39220  14.193  12.647   4.335 -0.5190 -0.3284  0.0789
23327W        W39221   8.762  11.017  10.023 -0.0500 -0.0827  0.1387
23328W        W39222   2.241  16.268   0.170  0.1913 -0.3068  0.1855
23329W        W39223   0.540   6.126  14.989  0.1195 -0.0071 -0.3506
23330W        W39224  14.156  15.859   5.395 -0.1438  0.0427 -0.1741
23331W        W39225   3.221  13.796   0.586 -0.4116 -0.2110 -0.1619
23332W        W39226  14.951   0.718   0.510 -0.1961 -0.1180 -0.2714
23333W        W39227  17.175   6.890   1.221 -0.0798 -0.0122  0.0900
23334W        W39228  12.895  10.720   4.980 -0.0386  0.0812  0.1774
23335W        W39229   8.193  13.354  11.892 -0.1218 -0.1464  0.0651
23336W        W39230   3.103  13.340   2.231  0.0653 -0.0845 -0.0546
23337W        W39231   4.454   9.470  14.495  0.1218  0.2423 -0.1480
23338W        W39232   0.817   1.758  15.429  0.0119  0.5359  0.0524
23339W        W39233  14.038   9.766   2.162  0.1336  0.0836  0.2221
23340W        W39234   8.294   0.793   1.278  0.0934 -0.2691 -0.2676
23341W        W39235   3.120   6.956   1.389  0.2891  0.1305 -0.4379
23342W        W39236   8.762   9.817  13.467  0.1735  0.3811  0.1539
23343W        W39237   1.483  13.874   0.395 -0.1417 -0.0211  0.0586
23344W        W39238  16.833   0.573  13.885  0.0034  0.1406  0.0730
23345W        W39239   1.619  17.450  15.903 -0.0126 -0.1659 -0.1394
23346W        W39240  11.022  18.293   1.941  0.1562 -0.2399  0.0304
23347W        W39241   7.310  10.980  11.231 -0.0390 -0.1395 -0.0769
23348W        W39242   7.894   2.921  10.816  0.0884  0.1332 -0.3024
23349W        W39243  10.607  17.613   5.188  0.1981 -0.0573 -0.1412
23350W        W39244  13.015   9.673   3.210  0.3237  0.3452 -0.3301
23351W        W39245  13.700  14.308  11.019  0.3418 -0.2886 -0.0501
23352W        W39246   4.160  16.265   3.955 -0.0791  0.2680  0.0138
23353W        W39247   9.191   4.562  12.708 -0.2913  0.3111  0.1411
23354W        W39248   2.100  13.390   5.720 -0.2033 -0.0880 -0.0186
23355W        W39249   2.151  14.241   5.054  0.0885  0.2506  0.1309
23356W        W39250  16.310   1.671  11.983  0.2902 -0.0460  0.3206
23357W        W39251  17.015  15.791   4.217 -0.1849 -0.1496  0.0474
23358W        W39252  16.399   7.515  13.175  0.0255  0.0659 -0.0308
23359W        W39253  14.344  14.434   3.258  0.2470  0.2681 -0.4086
23360W        W39254   0.619  15.133   1.567  0.1039  0.1970  0.2617
23361W        W39255  10.898  12.136  14.344 -0.0810 -0.1102  0.0933
23362W        W39256   2.700  15.426  11.860 -0.0531 -0.0438  0.2299
23363W        W39257  16.031  17.808  15.455 -0.1589 -0.0037  0.1072
23364W        W39258   1.863  13.200   3.745 -0.1806 -0.1812 -0.1278
23365W        W39259  11.916   6.706   4.045 -0.2170  0.1213 -0.0735
23366W        W39260   6.607  12.006   0.852  0.3706  0.0295  0.2269
23367W        W39261   6.666  17.181   1.357  0.3324  0.0200 -0.0090
23368W        W39262  17.541  15.919  11.512 -0.1521 -0.1563  0.2330
23369W        W39263   3.869  15.627   0.836 -0.1928  0.2744 -0.3989
23370W        W39264   9.486   2.633   3.813 -0.0225  0.0312  0.0670
23371W        W39265   6.661   6.933   0.984  0.1608  0.0646  0.3032
23372W        W39266   9.609  16.076   0.014 -0.0741  0.1040 -0.0040
23373W        W39267   8.336  18.078  14.479  0.1413  0.2339 -0.1963
23374W        W39268   1.500   5.489  13.640  0.3139  0.1059 -0.0908
23375W        W39269   4.387   6.560  10.879 -0.0110 -0.0082  0.1457
23376W        W39270  15.920  12.645   0.569 -0.0437  0.1549 -0.1175
23377W        W39271   5.000  18.225  13.855 -0.0382 -0.0760 -0.0620
23378W        W39272   7.021  12.765   1.607  0.0528  0.0356 -0.1744
23379W        W39273   4.415   1.502   0.737 -0.0648  0.0970 -0.1440
23380W        W39274   0.587  14.626  12.885 -0.2230 -0.0028 -0.0728
23381W        W39275  17.293   2.769   5.684  0.0471  0.0034  0.0858
23382W        W39276   1.047   0.636   3.150 -0.0933 -0.0038 -0.0379
23383W        W39277  13.811  12.292  14.074 -0.0873 -0.0664 -0.0276
23384W        W39278  13.160   9.529   2.692 -0.2608 -0.2811  0.2843
23385W        W39279  18.360  13.375   1.436 -0.1592  0.1198 -0.2303
23386W        W39280  10.859  10.303   1.659 -0.1695 -0.2515  0.3488
23387W        W39281   0.257   6.117  16.092  0.0875  0.0433  0.0024
23388W        W39282  16.155  12.183   0.544 -0.1592  0.1181  0.0357
23389W        W39283  10.476   0.711  11.226 -0.2535 -0.0973  0.0356
23390W        W39284   6.119   4.946  12.053  0.1363 -0.0410  0.0822
23391W        W39285  15.410  12.843   2.137  0.2946  0.0798  0.0701
23392W        W39286  16.388   0.496   6.567  0.1129  0.2521 -0.0698
23393W        W39287  13.826   3.351   3.515 -0.1754  0.1476  0.2405
23394W        W39288   1.640  11.988   4.589  0.1048  0.2078 -0.1394
23395W        W39289   2.824  13.490  15.204  0.2207 -0.0028  0.1030
23396W        W39290   0.528   4.133   4.392 -0.2642 -0.0312  0.0104
23397W        W39291   1.988   1.618   2.807  0.1755 -0.2651  0.0610
23398W        W39292  11.917   1.109  11.393 -0.1406  0.0875  0.0717
23399W        W39293   0.029   2.716   1.368 -0.0216  0.3034 -0.1129
23400W        W39294  12.884   4.237   5.780  0.1771 -0.0206  0.1313
23401W        W39295   1.013   5.308  15.649  0.2684 -0.3121 -0.1096
23402W        W39296   0.200  11.458   1.682  0.2495  0.1024 -0.3431
23403W        W39297   3.173  10.748   1.104  0.2448  0.2033 -0.1910
23404W        W39298  11.903  13.214   1.764 -0.1131 -0.0732 -0.2198
23405W        W39299  16.981  12.917  15.212 -0.1064 -0.0571  0.1237
23406W        W39300  17.482   8.004  13.039  0.0225 -0.1505  0.1121
23407W        W39301   5.839  15.765  14.187  0.2570  0.3651 -0.1267
23408W        W39302   6.961  10.215  11.737  0.2801 -0.0416 -0.2041
23409W        W39303   4.924   6.696   4.576 -0.0741  0.1559 -0.1804
23410W        W39304  10.990  12.403  14.861 -0.0651 -0.1457  0.1132
23411W        W39305   0.808   1.614  14.929 -0.0306 -0.0306  0.4949
23412W        W39306   4.212   8.956   0.778  0.1424 -0.1978  0.3730
23413W        W39307   3.926  12.336   1.666 -0.2566 -0.1731  0.0635
23414W        W39308  13.951   3.171   4.119  0.0954 -0.4451  0.1656
23415W        W39309   4.208  12.019   3.513 -0.0208 -0.0173  0.0231
23416W        W39310  14.786  11.985   0.757  0.0579  0.1508  0.1676
23417W        W39311  10.863   7.868   5.511  0.1223  0.0472 -0.1615
23418W        W39312   7.782  16.120  13.459 -0.0119 -0.5252 -0.0450
23419W        W39313  12.355  12.534  12.275  0.1793 -0.0610  0.1045
23420W        W39314   2.433  14.355   1.526  0.2357 -0.2477 -0.0921
23421W        W39315   3.619  15.529  14.584 -0.3484 -0.0013  0.0138
23422W        W39316   7.554   3.907  13.830 -0.0926 -0.3168 -0.4225
23423W        W39317   1.059   5.676   5.258  0.0717  0.0276 -0.2929
23424W        W39318   6.835  13.635  11.996 -0.4305  0.0166  0.2444
23425W        W39319   2.351  17.321   0.574  0.0512  0.2201  0.0462
23426W        W39320   6.891   8.440  11.298  0.1516 -0.2023  0.1798
23427W        W39321   8.727   1.277  14.207  0.0053  0.0217 -0.0295
23428W        W39322   4.907   4.793   4.781 -0.1979 -0.0429  0.0104
23429W        W39323   8.749  11.916  13.456 -0.1796  0.2072  0.2871
23430W        W39324  14.439   3.873  12.751 -0.2615 -0.0695  0.1409
23431W        W39325  17.051  10.804   3.006 -0.1595  0.0256 -0.2321
23432W        W39326   9.289  13.666  14.840 -0.2084  0.2940  0.0467
23433W        W39327   8.526   0.655  14.846  0.0665 -0.3227  0.3042
23434W        W39328  10.739  17.168   1.227  0.1065 -0.0024  0.0218
23435W        W39329  14.029   7.072   0.986 -0.0830 -0.0333  0.2996
23436W        W39330   8.806   5.533   1.465 -0.0330  0.0032 -0.4290
23437W        W39331   1.018  13.797   5.394  0.0686 -0.0578 -0.1191
23438W        W39332  14.553   3.490   2.192 -0.4366 -0.0415  0.0467
23439W        W39333   7.108  16.780  13.327  0.0287 -0.0726 -0.1582
23440W        W39334  17.942   9.471   1.377 -0.2461 -0.0660 -0.1374
23441W        W39335  17.192   5.243  14.760  0.3765 -0.1684  0.1594
23442W        W39336   5.437  16.217   0.317 -0.1346 -0.1554  0.1576
23443W        W39337   7.076  12.725   6.030  0.0156 -0.3715 -0.2070
23444W        W39338   2.622  13.387  12.147  0.0815 -0.0485  0.2912
23445W        W39339   6.150  18.465  15.805 -0.1654 -0.1954  0.1107
23446W        W39340   2.442   6.328  13.951  0.0555 -0.1280  0.1419
23447W        W39341  16.656   0.973   3.639 -0.2640 -0.0680 -0.1240
23448W        W39342  10.541   5.800  14.175  0.0843 -0.3272  0.0452
23449W        W39343   1.653   1.055  12.788 -0.1897  0.0306 -0.0139
23450W        W39344   5.953  15.308  12.828  0.1290 -0.4451 -0.1674
23451W        W39345   7.667   1.443  10.188 -0.0241 -0.2348  0.2724
23452W        W39346   0.373   0.539  12.110 -0.2496  0.1063  0.1739
23453W        W39347  12.393   3.957   2.695  0.1881  0.2734 -0.2524
23454W        W39348   7.935   5.977   3.594 -0.1353 -0.1173  0.2079
23455W        W39349  13.999   4.341   3.390  0.2580 -0.1632 -0.1850
23456W        W39350   1.971   9.994   3.661  0.0021 -0.0459 -0.1611
23457W        W39351  11.515  17.468  15.135 -0.1136  0.0523  0.0091
23458W        W39352  14.132  13.004   0.292 -0.2214  0.0500  0.1272
23459W        W39353   6.783   2.848  15.205  0.0203  0.0611 -0.0647
23460W        W39354  11.661   5.106  13.410  0.1055 -0.0444  0.0424
23461W        W39355  16.859   0.426   2.778 -0.2704 -0.1982  0.0208
23462W        W39356   7.560   3.543   4.855 -0.2589 -0.2817 -0.0371
23463W        W39357   1.383   3.281   3.294  0.0619  0.0840  0.2655
23464W        W39358   8.629   8.996  15.506 -0.2144 -0.1193  0.2825
23465W        W39359  10.000  10.317  14.366 -0.2557  0.0719 -0.2420
23466W        W39360  13.827  15.920   0.792  0.1160  0.2183 -0.0287
23467W        W39361   8.277  13.904  11.097  0.2169 -0.0093  0.1204
23468W        W39362   1.150   7.636  13.104 -0.0779  0.1122  0.2013
23469W        W39363  18.420   9.298  15.593 -0.2416 -0.0770  0.2798
23470W        W39364   2.945  12.865  13.909  0.0339  0.0247 -0.0702
23471W        W39365  12.025  15.372  12.212 -0.1574  0.0358  0.0454
23472W        W39366   6.344   5.883   2.673 -0.0588 -0.1455  0.1353
23473W        W39367  16.926  11.182   5.521  0.1404 -0.4103  0.1698
23474W        W39368  16.119  11.766   1.490  0.0240  0.2946 -0.1670
23475W        W39369   5.308  12.161  11.598 -0.1901  0.0734  0.0317
23476W        W39370   1.410  13.391  12.408 -0.0510  0.0518  0.0381
23477W        W39371  14.494   5.308  14.732 -0.0223  0.2105 -0.0560
23478W        W39372   4.119   3.963   0.242  0.1638  0.0200 -0.1594
23479W        W39373  11.288   1.209   4.470 -0.2102 -0.0521 -0.3185
23480W        W39374   8.943   3.735   1.172 -0.0296 -0.2784 -0.1748
23481W        W39375  17.311  15.230   2.784  0.1364 -0.2492 -0.4557
23482W        W39376   4.455  15.653  15.098  0.0097 -0.0361  0.1399
23483W        W39377  14.734  13.484   4.309  0.1250 -0.1295 -0.3412
23484W        W39378   3.730  12.529   3.858  0.0542  0.0118  0.1380
23485W        W39379   6.042  17.549   2.933 -0.0427  0.0843 -0.0109
23486W        W39380  10.759  17.580   4.310 -0.0413  0.0497  0.2386
23487W        W39381  13.337   4.060  11.968  0.1490  0.0846 -0.0630
23488W        W39382   3.853   3.042   3.661  0.1000  0.2513  0.0215
23489W        W39383   4.761  17.905   2.363  0.0187  0.1563 -0.0735
23490W        W39384   6.170  15.303  11.522 -0.1162  0.1449 -0.0756
23491W        W39385  15.466   4.730   4.315 -0.1478  0.1085 -0.4481
23492W        W39386   3.008  12.959   3.956 -0.2264  0.3522  0.0654
23493W        W39387  14.965   9.675   2.840 -0.1314  0.2098  0.0541
23494W        W39388   7.837  10.433   0.866 -0.2096 -0.0731  0.0197
23495W        W39389  15.561   7.602  14.435  0.1637 -0.2330  0.0746
23496W        W39390  14.322   3.648   3.531  0.1091 -0.1110  0.0247
23497W        W39391  17.933   7.367  12.708  0.0968 -0.1116  0.1625
23498W        W39392   2.607  10.975   4.096 -0.1843  0.0462  0.0346
23499W        W39393   9.683   5.762   1.177 -0.2299  0.0770  0.1448
23500W        W39394   5.242   8.324   0.574  0.0988 -0.2686  0.1883
23501W        W39395  10.929   3.217   0.846  0.4052 -0.1949 -0.0513
23502W        W39396   3.549   7.741  11.136 -0.0217  0.1303  0.1108
23503W        W39397   9.901   2.085   4.620 -0.0065  0.2393  0.0773
23504W        W39398   5.782  10.626   3.849 -0.2525 -0.0098 -0.1781
23505W        W39399  18.273  10.752   5.058  0.0373  0.0678 -0.0697
23506W        W39400   2.945  16.960  14.984 -0.1126  0.1620  0.3206
23507W        W39401  17.020   9.365  14.001 -0.2687  0.1686 -0.0936
23508W        W39402  13.106   5.438   3.552 -0.0271  0.0617 -0.0751
23509W        W39403  17.334   2.454  13.558 -0.1731  0.2546  0.1493
23510W        W39404  16.960  14.999  13.234  0.1008 -0.1019 -0.3136
23511W        W39405   1.648   2.937   4.042  0.4460 -0.0770 -0.0559
23512W        W39406  11.636   7.349  12.747 -0.0298 -0.1166  0.1183
23513W        W39407   7.737  15.854  13.003  0.0985 -0.0962 -0.1065
23514W        W39408  17.876  12.513   1.351 -0.0452 -0.1764 -0.1392
23515W        W39409  16.742  15.053   4.860  0.1283 -0.2571  0.3507
23516W        W39410  13.571  17.035   1.801 -0.3073  0.1233 -0.1370
23517W        W39411  15.494  13.398  12.638  0.2157 -0.2181 -0.3102
23518W        W39412  11.110  17.835   2.362 -0.0909  0.1060 -0.0207
23519W        W39413  18.388   4.747   1.667 -0.0342  0.0290 -0.0709
23520W        W39414   0.150   9.794   3.748  0.1434 -0.1173 -0.1906
23521W        W39415   6.467  11.778  16.133  0.0732 -0.0988 -0.1281
23522W        W39416   1.710   5.196   1.006  0.0778 -0.1206 -0.0063
23523W        W39417  16.636   6.936  15.274 -0.2094 -0.2413 -0.1081
23524W        W39418   1.938   2.292  14.843  0.3738 -0.1614 -0.2466
23525W        W39419  10.674   2.197   0.553  0.4238 -0.0176  0.2604
23526W        W39420   4.795   8.392   3.528 -0.2413 -0.1968 -0.2121
23527W        W39421   0.485  10.215   4.230  0.0693 -0.1751 -0.1735
23528W        W39422  15.404   3.181   5.317  0.0489  0.0550  0.0477
23529W        W39423  15.187   8.847  11.846  0.0958 -0.1064 -0.1824
23530W        W39424   1.006   9.552  14.454  0.3733  0.2659  0.0253
23531W        W39425  10.090   9.797  14.670 -0.1427  0.1800 -0.0537
23532W        W39426  13.489   8.756  12.026  0.0604 -0.0530 -0.0955
23533W        W39427  18.058   7.161  13.110 -0.2537 -0.1764 -0.1227
23534W        W39428  11.105   0.363   3.547  0.2797 -0.3223 -0.2108
23535W        W39429  11.756  12.653   0.322  0.0764 -0.0420 -0.0919
23536W        W39430  10.419   2.152  11.517 -0.0328  0.2258 -0.2889
23537W        W39431   5.837  13.096   3.675 -0.1767 -0.1144 -0.0170
23538W        W39432   3.545  17.773  13.952 -0.4015 -0.0637 -0.3885
23539W        W39433   9.187  15.020  13.977 -0.0748  0.1500  0.0726
23540W        W39434  17.385   6.499   4.655  0.0168  0.1545  0.2295
23541W        W39435  15.500   0.727   2.959  0.1559  0.0737  0.0348
23542W        W39436   1.379   7.468   5.585 -0.4821  0.0605 -0.2257
23543W        W39437  10.651  14.903   4.618 -0.0975 -0.1480  0.1494
23544W        W39438  16.685  15.820  14.481  0.0378  0.0954 -0.0050
23545W        W39439   3.017   6.173  15.496  0.4819  0.1748 -0.2072
23546W        W39440  12.847  11.389   2.724  0.1464  0.3516  0.0185
23547W        W39441  16.968  12.339  10.178  0.0771 -0.1023  0.1521
23548W        W39442  10.208  10.601   3.506 -0.0568 -0.2486 -0.3669
23549W        W39443  13.825   4.123  11.977  0.1369 -0.1396  0.2469
23550W        W39444  16.585   8.728  13.753  0.0642  0.0832 -0.2011
23551W        W39445   5.221   1.254   0.524 -0.2961  0.2149  0.2544
23552W        W39446   0.702   7.088  14.447 -0.3978 -0.2897  0.1809
23553W        W39447  14.919  12.441  14.648 -0.3229  0.2075  0.0011
23554W        W39448   0.613  16.393   4.752  0.0281  0.0212  0.0518
23555W        W39449  12.957   9.184   5.569 -0.2304 -0.0258  0.0167
23556W        W39450  11.610   7.737  13.791 -0.2501  0.0857  0.3813
23557W        W39451  17.472   5.332   4.818 -0.2703 -0.0642 -0.2364
23558W        W39452   5.454   8.459  10.964  0.3672  0.2650  0.0084
23559W        W39453  14.099   3.741   2.155  0.3557 -0.0896 -0.3267
23560W        W39454   7.886  14.752  14.074 -0.1034 -0.0880  0.0115
23561W        W39455   9.938  11.484  11.674  0.0416 -0.1859 -0.3197
23562W        W39456   2.130  10.669  14.620  0.2135  0.0674  0.2618
23563W        W39457   0.910   4.294  12.452  0.0068  0.1852 -0.3664
23564W        W39458   3.744   9.916   0.691  0.1254 -0.1087  0.0579
23565W        W39459   7.678   8.931   0.091  0.1473 -0.1850 -0.3067
23566W        W39460  10.253   3.495  14.405  0.0067 -0.1019  0.1193
23567W        W39461   0.684  16.122   3.629  0.1996 -0.0094  0.1911
23568W        W39462  17.028   1.243  14.520  0.0276  0.1955 -0.1544
23569W        W39463  15.377   2.277  14.337  0.0508 -0.1372 -0.0367
23570W        W39464   0.786   3.009  12.982  0.1754 -0.2893 -0.1685
23571W        W39465   8.791   5.764  10.230  0.0990  0.1998  0.0857
23572W        W39466   8.510   3.526  14.030  0.1734  0.0258 -0.0706
23573W        W39467  18.318  13.974   4.526  0.0593  0.2201 -0.1582
23574W        W39468   9.152   9.450   1.294 -0.0076  0.4040 -0.3022
23575W        W39469   1.082   6.898   0.746 -0.2790 -0.2634  0.0461
23576W        W39470   1.239   0.980  10.455  0.1503  0.0675 -0.2375
23577W        W39471  10.890  13.825   4.209  0.1934  0.4133 -0.1105
23578W        W39472   8.800   5.971  14.297  0.1277 -0.0585 -0.3190
23579W        W39473  16.233  12.431   0.984 -0.0742  0.2846 -0.0424
23580W        W39474   4.834   1.567   4.473  0.0816  0.1637 -0.2994
23581W        W39475  16.975  12.454  12.600  0.1937 -0.2779 -0.2077
23582W        W39476  12.521   8.351   5.352  0.1552 -0.0160 -0.3272
23583W        W39477  14.553  16.740  10.573 -0.0821 -0.2417  0.1149
23584W        W39478  17.886   5.024   0.868 -0.0938 -0.4136 -0.0915
23585W        W39479  10.965   3.574   0.409 -0.1051 -0.0605  0.0063
23586W        W39480   8.320  17.500   0.754  0.2157 -0.0746 -0.0791
23587W        W39481   4.418  13.519   1.184  0.0055  0.1808 -0.0702
23588W        W39482   3.283  17.272  12.749 -0.0764  0.0962 -0.1022
23589W        W39483   6.333   6.979  13.232  0.1653 -0.1149  0.0424
23590W        W39484  10.845   3.089  12.815 -0.1722  0.0880  0.0324
23591W        W39485  10.831  18.027   4.950 -0.1545  0.0011  0.3307
23592W        W39486  11.547   4.235  14.426  0.1800 -0.2665  0.2464
23593W        W39487   2.908  11.156   1.572 -0.0860  0.3133 -0.1220
23594W        W39488   6.366   3.283   4.270 -0.1121 -0.1749  0.0662
23595W        W39489   0.722   8.745   3.869 -0.0738 -0.0092 -0.3334
23596W        W39490  16.788  13.347  11.617  0.1601  0.0112 -0.0494
23597W        W39491  12.211  12.716  11.855  0.1977  0.2316 -0.2490
23598W        W39492  12.516  13.456  16.043  0.0688  0.0537  0.1712
23599W        W39493   4.018  15.577   1.328 -0.2115  0.0225  0.5263
23600W        W39494   7.697   3.705  12.631  0.2937  0.0357  0.1875
23601W        W39495  16.692  12.158   0.637  0.0307  0.1138 -0.1341
23602W        W39496  15.906   7.979  15.480  0.1267  0.3069  0.0300
23603W        W39497   5.515   3.232  12.769  0.1449 -0.3315  0.2295
23604W        W39498   0.586  17.970   2.509 -0.0362  0.1375  0.0182
23605W        W39499  15.061   7.748   3.475  0.0116 -0.1041 -0.0097
23606W        W39500   1.182   1.548  12.808  0.2714 -0.0957  0.1049
23607W        W39501   5.629  16.379   1.481 -0.0072  0.1598  0.0439
23608W        W39502  16.689   8.443  15.914 -0.1588 -0.1536 -0.1216
23609W        W39503  11.119   8.566   2.161  0.3161 -0.1876 -0.0698
23610W        W39504   6.683  11.080   3.343 -0.2315 -0.1237 -0.0364
23611W        W39505  14.044  14.124   2.275 -0.1357  0.2899 -0.0633
23612W        W39506   5.917  12.283  13.316  0.1572 -0.0478  0.0964
23613W        W39507  17.369   8.890   0.358 -0.1912  0.1681 -0.1303
23614W        W39508  12.281  16.987  13.528 -0.1279 -0.0109 -0.1015
23615W        W39509   7.599  13.304   0.547  0.0068 -0.2749 -0.1375
23616W        W39510  13.396   7.440   4.842  0.0181 -0.2377 -0.2398
23617W        W39511   5.702   3.986   6.061 -0.1081 -0.1346 -0.2008
23618W        W39512  12.202   9.383   2.020  0.1800  0.0736  0.0167
23619W        W39513   4.181  10.841   4.622 -0.0282  0.0418 -0.4899
23620W        W39514  17.269   2.966  13.178 -0.1717  0.0167  0.0249
23621W        W39515   1.503   5.341  15.775 -0.0064 -0.3727 -0.0915
23622W        W39516   6.138  11.307   0.099  0.0796 -0.1416 -0.2806
23623W        W39517  15.973   5.631   5.864  0.1386 -0.1542  0.1546
23624W        W39518   9.796  17.093   4.283 -0.1653  0.1713 -0.0375
23625W        W39519   6.037   9.943  12.469  0.1044 -0.1548 -0.4877
23626W        W39520   0.138  17.919   4.896  0.0265 -0.0938  0.0832
23627W        W39521   5.113  18.035  15.820 -0.0359  0.3024  0.1270
23628W        W39522  17.997  15.094   0.845 -0.2034  0.1634 -0.0016
23629W        W39523   7.600  16.876  16.088 -0.3153 -0.0945  0.1506
23630W        W39524   9.256   1.040  14.071 -0.0404  0.1602  0.0931
23631W        W39525   7.321  13.450   1.749  0.0411  0.3488  0.0407
23632W        W39526   9.628   5.677   0.683  0.0330  0.1197  0.3945
23633W        W39527   6.139  13.795  16.134 -0.1071  0.1265  0.0809
23634W        W39528   5.579  12.311   4.191  0.0870 -0.0696 -0.1402
23635W        W39529  13.790   5.687  11.404 -0.0806  0.2679  0.0522
23636W        W39530  13.275   9.209  14.478 -0.2927 -0.2837  0.3148
23637W        W39531  11.567  16.885   2.140 -0.1601 -0.0240 -0.0471
23638W        W39532   3.467   8.320   4.065  0.1362  0.1995 -0.3046
23639W        W39533   0.440   5.392  11.623 -0.0158  0.2426 -0.2700
23640W        W39534   5.472   5.584  16.123 -0.0047  0.1788  0.0598
23641W        W39535   7.854   3.778  13.097  0.0033  0.2540 -0.2448
23642W        W39536  10.331  10.899  13.609 -0.2710 -0.2461  0.3590
23643W        W39537  14.602  14.683  12.287  0.1789  0.0024  0.0985
23644W        W39538   0.541   9.989   6.007  0.0885 -0.1353 -0.0912
23645W        W39539   6.477   6.213  13.375  0.1291 -0.0274  0.1253
23646W        W39540   6.674  17.774  11.736 -0.0163  0.0763 -0.1147
23647W        W39541   9.884   6.786  16.017 -0.2489 -0.1513  0.1321
23648W        W39542  15.736  18.380   3.426 -0.0512 -0.0699 -0.1553
23649W        W39543   3.023  10.245  12.802 -0.1439 -0.0076 -0.1756
23650W        W39544  18.226   8.823  15.552 -0.0462  0.1295  0.2067
23651W        W39545   0.318  15.349   5.217  0.1808 -0.2104 -0.5193
23652W        W39546   8.203  16.129  13.062  0.0641 -0.1351 -0.0373
23653W        W39547  16.879   3.413   2.008  0.0846  0.1059  0.0402
23654W        W39548   3.816  10.295  10.027 -0.1053 -0.2418 -0.0567
23655W        W39549  16.478   6.500   3.315  0.1184  0.3153 -0.1560
23656W        W39550  12.873   8.710  11.236  0.2482 -0.1513  0.0355
23657W        W39551  11.078   4.732  11.148 -0.1699 -0.2122 -0.1174
23658W        W39552  10.487   0.024   0.995 -0.1920 -0.0164  0.1114
23659W        W39553   3.118  13.614   4.601  0.1406  0.0824 -0.0631
23660W        W39554  17.862   4.669  15.505  0.0038 -0.0250 -0.0091
23661W        W39555  16.096   6.153  15.549  0.0471  0.0985  0.0907
23662W        W39556  15.228   2.468   5.165 -0.1589 -0.3443 -0.0136
23663W        W39557   0.667   9.875  14.727 -0.1581  0.1409 -0.1743
23664W        W39558   9.583  14.910   1.400  0.3372 -0.1249 -0.1207
23665W        W39559  14.335   1.921   1.266 -0.1389  0.3714  0.1849
23666W        W39560  11.615   0.750   3.154  0.0702  0.1927 -0.5486
23667W        W39561  10.300   6.426   4.611  0.1880 -0.1743  0.2084
23668W        W39562   2.331   9.783  14.151  0.2774 -0.0662  0.1719
23669W        W39563   3.255   5.153   2.311 -0.0719 -0.0833 -0.0125
23670W        W39564  13.287   3.863   0.152 -0.1282 -0.1080  0.1546
23671W        W39565  10.506   4.013  14.162  0.2871  0.3763  0.1635
23672W        W39566   5.037   6.970   1.431  0.0085 -0.0377 -0.3272
23673W        W39567  13.111  11.246   0.652 -0.0436  0.1524 -0.4271
23674W        W39568   1.119   0.549   1.611  0.1142 -0.0719 -0.1373
23675W        W39569  16.744  11.996  11.332 -0.0552  0.0374 -0.2290
23676W        W39570   3.664   6.900  12.275 -0.0286  0.0026 -0.0462
23677W        W39571   4.934  12.672   5.656 -0.0710 -0.1725 -0.0854
23678W        W39572   0.748  11.202  15.102  0.0490  0.2295  0.0042
23679W        W39573   6.001   6.709  15.254  0.1281  0.0268  0.0414
23680W        W39574   6.715   9.178   4.651  0.1135  0.3198 -0.0826
23681W        W39575  10.873  10.961  13.889  0.1574 -0.2286  0.0623
23682W        W39576  16.786  17.949   1.724 -0.1871  0.1687 -0.1789
23683W        W39577   7.971   1.926  14.530 -0.0594 -0.2643 -0.1074
23684W        W39578  17.122  15.289   1.011 -0.4223  0.1199  0.3965
23685W        W39579   5.613   7.023  14.370 -0.2761  0.0493  0.3303
23686W        W39580  16.088   3.513   1.446  0.2411 -0.0439 -0.0843
23687W        W39581  14.102   0.773   1.758  0.0294 -0.3489 -0.4817
23688W        W39582  12.067  15.786  14.739 -0.2044  0.1678  0.3957
23689W        W39583  11.621  12.109  12.790  0.0723 -0.0747 -0.1581
23690W        W39584  12.615   4.827  15.615  0.0485  0.1341 -0.2201
23691W        W39585  12.827  13.154   2.389 -0.0579 -0.1967  0.0574
23692W        W39586  10.881   9.424  14.857 -0.0670  0.0210  0.1789
23693W        W39587   6.441   4.604   2.802 -0.1260 -0.1417 -0.1476
23694W        W39588   4.720   0.654   2.499  0.1749  0.1342  0.1947
23695W        W39589   9.669   2.111   2.248 -0.0431 -0.0282 -0.1016
23696W        W39590   0.095   6.171   5.405  0.1668 -0.1946 -0.0529
23697W        W39591  16.515  14.431  12.517  0.1694  0.1839 -0.1740
23698W        W39592   4.758   6.557   2.817  0.1085 -0.2896 -0.0964
23699W        W39593   9.677   0.107  14.333  0.0250  0.0302 -0.0679
23700W        W39594  13.244  10.855  14.201  0.3352 -0.0988 -0.1037
23701W        W39595   7.204   7.971   4.206 -0.1866 -0.1861  0.2818
23702W        W39596   8.810   6.370   4.800 -0.2671 -0.1198  0.0525
23703W        W39597  10.787   0.290   3.161  0.0052 -0.0006  0.0176
23704W        W39598   3.411   5.462   4.121  0.1104 -0.0306 -0.0173
23705W        W39599  17.822   1.626   3.913  0.0586 -0.2641  0.2801
23706W        W39600  18.452  17.322   3.923 -0.3424 -0.0841 -0.0432
23707W        W39601   3.239  16.423   3.349  0.0704  0.0509 -0.2019
23708W        W39602  10.382   3.036   5.321  0.2372 -0.1140 -0.2976
23709W        W39603  13.924   7.713   5.378 -0.0172  0.3435  0.2316
23710W        W39604  15.041  18.254   2.022  0.0173 -0.0273 -0.1809
23711W        W39605   4.948   5.838   3.198  0.2483  0.1565 -0.0872
23712W        W39606   2.659   0.937   2.953 -0.0917  0.0089 -0.1763
23713W        W39607  13.790   0.895  13.743  0.1864 -0.1183 -0.2423
23714W        W39608  13.554  14.854   3.514  0.0332 -0.0494 -0.0254
23715W        W39609  10.487  14.312   3.498  0.0359  0.2380 -0.2391
23716W        W39610   9.371   6.659   0.801  0.1091  0.0778 -0.0820
23717W        W39611  12.245   1.411   2.968  0.0287 -0.0856  0.1397
23718W        W39612   9.925   7.324   3.845 -0.3005 -0.2714  0.1700
23719W        W39613  14.922   7.197   0.845  0.2856  0.0055  0.1796
23720W        W39614  14.535   1.476   1.014  0.1710 -0.1699 -0.0400
23721W        W39615   8.278   5.348   2.370 -0.0420  0.2647 -0.4045
23722W        W39616  10.276   6.471   1.773  0.1868  0.0252 -0.0653
23723W        W39617   5.168  10.575  12.428  0.0185  0.1382 -0.0171
23724W        W39618  13.544  13.714  15.997  0.4333  0.1742 -0.2053
23725W        W39619  13.512  17.172   9.836 -0.0231  0.1143 -0.2207
23726W        W39620  12.900   3.846   3.488  0.0334  0.0065  0.1267
23727W        W39621  12.012   6.248  11.162 -0.0819  0.2610  0.0971
23728W        W39622  15.208   7.946  13.461 -0.0340 -0.0638 -0.2250
23729W        W39623   6.173   1.074  11.854  0.0586  0.3376  0.0583
23730W        W39624  16.338  15.828  15.658  0.2874 -0.2264  0.1053
23731W        W39625  12.019  17.236   1.978 -0.0914 -0.0099 -0.0987
23732W        W39626   3.805   6.385   5.272 -0.1404 -0.0834 -0.0511
23733W        W39627  14.336  14.814  14.892  0.3120 -0.1051 -0.0489
23734W        W39628   3.161  13.569  15.975  0.2760  0.1101  0.1567
23735W        W39629   2.339  13.238  11.784  0.4107  0.1278 -0.3612
23736W        W39630   8.204   4.524  13.950 -0.1123 -0.0775 -0.0715
23737W        W39631   4.442   6.957   0.487  0.2622 -0.4024  0.2552
23738W        W39632  11.246  17.978  13.345  0.1785 -0.0101 -0.0336
23739W        W39633   9.200   1.889   1.373 -0.2063  0.1843  0.4516
23740W        W39634   7.813   4.788  13.793 -0.0919 -0.1186 -0.0396
23741W        W39635  14.261  12.646  15.289 -0.1758  0.0607  0.1014
23742W        W39636   2.074  13.205   0.560 -0.0875  0.1735  0.2021
23743W        W39637   0.096   6.173   2.265 -0.1997  0.1670  0.1254
23744W        W39638  13.534   7.235  11.790 -0.2917 -0.0880  0.1412
23745W        W39639  11.182   0.219   0.501 -0.1602  0.1013 -0.0501
23746W        W39640  13.086   2.462   4.146  0.2350  0.1895  0.1707
23747W        W39641   7.193   5.740   2.938 -0.4124  0.1913 -0.2140
23748W        W39642   4.458   8.711  13.076 -0.3655  0.1886  0.1822
23749W        W39643  16.130   5.797  15.043 -0.0905 -0.2313  0.1643
23750W        W39644  13.748  17.436  12.019  0.1907 -0.1748 -0.1118
23751W        W39645  13.863  12.992  10.629 -0.0560 -0.0295  0.1011
23752W        W39646  17.211   5.154  13.101  0.1969  0.2138  0.1895
23753W        W39647   8.927  14.422   3.691  0.1019  0.0034  0.2707
23754W        W39648  10.602   1.597  11.652 -0.1251 -0.0281  0.1667
23755W        W39649   5.625   1.488   3.975  0.2652 -0.1495  0.2040
23756W        W39650  13.090   9.671  12.653  0.1943  0.1413  0.0425
23757W        W39651  17.703  10.631  16.107 -0.1086 -0.0683 -0.2329
23758W        W39652  16.403   1.202   4.311  0.1653 -0.1391 -0.0051
23759W        W39653   1.601  15.437  14.787 -0.3926 -0.0541 -0.0347
23760W        W39654  11.416  12.018  13.253  0.3282 -0.1363 -0.0359
23761W        W39655  13.712  16.934  11.398 -0.2939 -0.3141  0.1084
23762W        W39656  16.585  12.905  14.321 -0.1113 -0.2481  0.0346
23763W        W39657  10.215   2.673  11.405 -0.1837 -0.1290  0.1507
23764W        W39658  10.827  17.265  13.684  0.0809  0.1173 -0.0911
23765W        W39659   0.414  13.040  14.670  0.0701 -0.1874  0.1748
23766W        W39660  11.262  10.773  10.636 -0.1213  0.0205 -0.3119
23767W        W39661  17.763   4.650  10.429  0.2756  0.1437 -0.2613
23768W        W39662  16.129   5.026   1.928 -0.0908 -0.0867 -0.2079
23769W        W39663  13.744  17.899   1.153  0.0673 -0.2432  0.2274
23770W        W39664   4.287   8.510  11.248  0.0840 -0.3549 -0.0003
23771W        W39665   6.899   8.530  15.664 -0.0187 -0.0304  0.2200
23772W        W39666  12.402  10.588   1.220 -0.2681 -0.1173  0.1513
23773W        W39667   8.955  16.935  13.699 -0.0014  0.0707  0.0603
23774W        W39668  17.283   2.325   4.981 -0.0686  0.4670  0.1455
23775W        W39669   2.816   5.766  11.239 -0.2870  0.2234  0.0308
23776W        W39670  16.031   7.673  11.837 -0.1691  0.1911 -0.1266
23777W        W39671  16.310   0.625  14.806 -0.0022 -0.0036  0.0572
23778W        W39672  11.459  14.253  15.841  0.2925  0.1462  0.1007
23779W        W39673   0.816  12.852   5.010 -0.2489 -0.0226 -0.0449
23780W        W39674  17.159   9.759   4.620 -0.1094  0.0951  0.0322
23781W        W39675   1.677  10.970  12.190 -0.0726 -0.0097  0.1972
23782W        W39676  12.951  18.372   0.841 -0.0697  0.1697 -0.5532
23783W        W39677   8.352   5.587  13.884  0.0855  0.2380 -0.2626
23784W        W39678   5.762  12.871   1.983  0.2929 -0.2474 -0.1997
23785W        W39679  10.281   9.510   2.962  0.0927  0.0345 -0.1378
23786W        W39680   3.550   4.768   2.985 -0.1680  0.1341  0.0589
23787W        W39681  15.425  16.404   1.368  0.1248  0.0408 -0.0380
23788W        W39682   5.622  13.262  14.602  0.0558  0.0087  0.0052
23789W        W39683  11.890   4.090  13.708  0.1212 -0.1406 -0.3223
23790W        W39684  11.727  13.263   2.986 -0.1867 -0.1231  0.0944
23791W        W39685  16.423   6.488   4.655  0.0608  0.0460 -0.0711
23792W        W39686  16.079  16.548   1.920 -0.0677 -0.1188 -0.0858
23793W        W39687  16.092  13.558  10.500 -0.0378 -0.1925 -0.4643
23794W        W39688   4.028  10.269   0.887  0.0068 -0.2549  0.1192
23795W        W39689  11.841   1.893   4.746  0.0946  0.1170 -0.1315
23796W        W39690  14.461   2.840   4.816  0.0281 -0.0251  0.0080
23797W        W39691  15.050  10.135   3.632 -0.3871  0.0541  0.3168
23798W        W39692   8.989  13.785  11.695 -0.2050 -0.2355  0.1162
23799W        W39693   4.344  14.680  10.287 -0.0898  0.1251  0.0851
23800W        W39694   9.867  15.624  15.104  0.0042 -0.0563  0.0558
23801W        W39695   8.895  15.560   2.292  0.2313 -0.0895  0.0511
23802W        W39696   2.171   9.477  12.060 -0.0067  0.3581  0.0371
23803W        W39697   5.464   9.272  14.215 -0.4302  0.3347 -0.0573
23804W        W39698  17.437  13.996   4.523 -0.1647  0.0090  0.2072
23805W        W39699   8.305   4.639   2.426  0.1737 -0.0626  0.2384
23806W        W39700  14.484   8.264   3.086 -0.4241  0.3466 -0.0461
23807W        W39701   2.664   6.347   4.223 -0.3272  0.1532  0.1111
23808W        W39702  13.055   9.313   4.488  0.0811  0.0768 -0.2912
23809W        W39703   2.675  11.782  15.039 -0.1718  0.0323 -0.3005
23810W        W39704   5.539   1.935   2.295 -0.0471  0.0023  0.2516
23811W        W39705   0.184   0.235   3.239  0.0892 -0.2197 -0.0110
23812W        W39706  15.665  14.054  13.929 -0.0144 -0.0370 -0.0134
23813W        W39707   9.453   8.065   3.180 -0.0524 -0.0544 -0.3521
23814W        W39708   2.885   5.842   4.185  0.0860  0.0694  0.1525
23815W        W39709   7.204  13.110   3.495  0.0392 -0.1489 -0.0780
23816W        W39710  11.412  14.264  13.836  0.0339 -0.5249  0.0475
23817W        W39711   5.338  15.253   5.933  0.1354 -0.1631  0.1222
23818W        W39712   2.126  17.469  14.011 -0.0305 -0.0189 -0.1136
23819W        W39713   2.292   9.323  10.899  0.2034  0.1091 -0.0711
23820W        W39714  13.853   9.334   2.249  0.3568 -0.0330  0.0374
23821W        W39715   2.182  17.526   9.967  0.2548 -0.3629  0.2516
23822W        W39716  14.071   5.967  14.274  0.1025  0.1753  0.2262
23823W        W39717  14.126   8.058   2.799 -0.2225 -0.0711 -0.2991
23824W        W39718  15.107   4.378   2.004 -0.2285 -0.0923 -0.1672
23825W        W39719   8.640  13.669   3.918 -0.2425 -0.0595  0.2439
23826W        W39720   1.667   8.935  13.255 -0.0422  0.0534 -0.0975
23827W        W39721  16.925   3.681  14.083 -0.2613  0.0992  0.0507
23828W        W39722  18.008  14.401  15.740 -0.0708  0.2095 -0.1957
23829W        W39723  12.384   8.073   2.619 -0.0233 -0.2077 -0.1252
23830W        W39724   8.411  10.632   3.074  0.3026  0.5625  0.2739
23831W        W39725  13.127   5.458   3.025  0.3683  0.1532  0.1955
23832W        W39726  14.158  13.548   0.285 -0.5298 -0.1789 -0.1341
23833W        W39727  14.335   0.430   1.427  0.1571  0.2002  0.0046
23834W        W39728   7.931  17.045   4.514 -0.0984  0.0924  0.1299
23835W        W39729   7.338   1.833  11.523  0.0917  0.0963  0.1724
23836W        W39730   7.251  11.556   2.834 -0.1258 -0.2438 -0.0934
23837W        W39731   3.876  10.761  14.129  0.0546  0.1574  0.1069
23838W        W39732   6.858  17.845   2.433 -0.1892  0.0195 -0.1752
23839W        W39733  11.452  15.763   4.948 -0.0372  0.4118 -0.0840
23840W        W39734   7.817  18.443   0.715 -0.1432 -0.1643 -0.0602
23841W        W39735   8.769  11.848  13.962 -0.1897 -0.0838 -0.0337
23842W        W39736   9.141   6.152   3.725  0.1652 -0.2049 -0.1416
23843W        W39737   7.656   3.738  14.945 -0.0168  0.2268 -0.0210
23844W        W39738   8.197  16.325   4.222  0.0513  0.4076 -0.0399
23845W        W39739   0.556   8.416   0.868 -0.1567  0.1921 -0.2067
23846W        W39740   0.896   9.428  14.935 -0.2050 -0.1286  0.3509
23847W        W39741   3.568  13.216   2.163  0.1060  0.0902 -0.1055
23848W        W39742   6.916  16.655  15.605 -0.3158 -0.1935  0.1545
23849W        W39743   0.734   3.309  10.587 -0.2188 -0.2023 -0.1794
23850W        W39744   0.921  16.905  11.979 -0.0123  0.1529 -0.2216
23851W        W39745   0.463   3.974   2.455 -0.0144  0.1689 -0.0998
23852W        W39746   0.069   6.819  11.511  0.1330  0.0423 -0.0613
23853W        W39747   5.014  16.338   0.639  0.0627 -0.2062  0.1308
23854W        W39748   9.534  10.863   0.847 -0.0703  0.0989 -0.0529
23855W        W39749   1.247  14.104  11.232  0.0266  0.4030  0.3867
23856W        W39750   3.097  13.708   2.718 -0.0764  0.3002 -0.1602
23857W        W39751  13.334   5.560  13.740  0.1387  0.0647  0.1592
23858W        W39752  12.926  10.147  12.392 -0.0799  0.3029 -0.2360
23859W        W39753   3.098   0.848  10.436 -0.0543  0.3317  0.4926
23860W        W39754   9.965   8.598  11.410  0.1246  0.1498  0.1250
23861W        W39755   0.614   2.607   0.105 -0.0553  0.0534 -0.0633
23862W        W39756   5.432   3.190   3.025 -0.0897 -0.1208  0.0352
23863W        W39757   5.157  16.559   5.484 -0.2434 -0.1416  0.3830
23864W        W39758   8.420  17.353   0.325 -0.0527  0.0416 -0.3556
23865W        W39759  13.645   6.058  14.415 -0.3123  0.1844  0.0744
23866W        W39760   1.351  17.803   3.885  0.1644  0.2887 -0.1611
23867W        W39761   2.540  18.158   3.767  0.0261 -0.1378 -0.1860
23868W        W39762  15.791  13.046  15.487  0.2673 -0.2703 -0.4136
23869W        W39763  10.998  16.016   5.214  0.1580 -0.0557  0.1883
23870W        W39764  14.655   0.833  13.802 -0.0506 -0.1574  0.2241
23871W        W39765   6.805   8.535  14.735  0.0936 -0.1797  0.3503
23872W        W39766   9.107   4.561   5.108  0.1891 -0.0614  0.0954
23873W        W39767  12.741  14.573   6.435 -0.0910 -0.1950 -0.2946
23874W        W39768  12.697   5.660   2.782 -0.0569 -0.1043 -0.1768
23875W        W39769  12.801   4.118  15.850 -0.2469 -0.0406  0.1675
23876W        W39770   6.939  10.495   5.945 -0.1025 -0.1561 -0.1509
23877W        W39771   2.605   4.085   2.607  0.1246  0.2092  0.3676
23878W        W39772   9.646  14.931  11.979  0.4268  0.3298  0.0006
23879W        W39773   9.199   8.914   0.451 -0.2108  0.1492 -0.2193
23880W        W39774   3.844  11.763   4.290  0.0055 -0.1875  0.0225
23881W        W39775   2.391  16.031   5.860 -0.2235 -0.2145 -0.1028
23882W        W39776   7.439  17.254  14.640 -0.0361  0.0102  0.0722
23883W        W39777   4.251   6.606  13.636  0.2833  0.1586  0.0138
23884W        W39778   0.915  16.783  15.714  0.3540  0.1633 -0.3088
23885W        W39779   6.249  14.696  12.733  0.0554 -0.3227  0.3764
23886W        W39780   1.921   0.141   2.638 -0.0053 -0.0145  0.2906
23887W        W39781  15.100   4.433   4.248  0.0321  0.2121 -0.0586
23888W        W39782   3.792   0.308  12.779 -0.1230  0.3823 -0.0881
23889W        W39783   3.590   8.412  15.279 -0.1408  0.3110  0.1332
23890W        W39784   4.847  13.798   1.523  0.2969 -0.0439  0.0799
23891W        W39785  16.237   1.647   4.167 -0.1677 -0.2880  0.0850
23892W        W39786  14.539   8.504   6.558 -0.2996 -0.3541 -0.2963
23893W        W39787   6.276   0.191  11.626  0.3734 -0.0513 -0.0255
23894W        W39788   0.670   1.116   3.327 -0.1165  0.1526 -0.0547
23895W        W39789   3.773   7.368  11.387 -0.0671 -0.0512 -0.0404
23896W        W39790  17.445   9.323   1.398  0.0158 -0.0157  0.0675
23897W        W39791   9.145   1.159  12.954  0.0004 -0.4333 -0.1908
23898W        W39792   7.403  16.354   5.996 -0.2541  0.2132 -0.1876
23899W        W39793   1.801  11.547   0.507  0.0240  0.1588  0.0211
23900W        W39794  13.663   8.464  14.877 -0.5412  0.2164  0.4951
23901W        W39795  13.588  13.729  15.300  0.5887  0.1681 -0.1396
23902W        W39796   2.746   9.820  12.763  0.0302  0.2497  0.0873
23903W        W39797   4.296   4.419  14.960  0.1076  0.2024 -0.1847
23904W        W39798   9.666  11.923   5.772  0.1691  0.1140  0.1442
23905W        W39799  17.857   1.545   2.413 -0.1728 -0.0057 -0.1588
23906W        W39800  15.902   1.764   5.276  0.0767 -0.2880 -0.2103
23907W        W39801  13.979   3.941  13.497  0.1180  0.1236  0.0747
23908W        W39802   2.844  14.823  13.360  0.0765  0.4047  0.3253
23909W        W39803  11.835   3.082   2.792  0.0612 -0.3922  0.0982
23910W        W39804   9.568   7.841   5.729 -0.1938 -0.0494 -0.1494
23911W        W39805   2.944  11.825  11.808 -0.0318 -0.1624 -0.0418
23912W        W39806  11.459   3.997  11.230  0.0677 -0.1654 -0.0271
23913W        W39807  11.882  15.814  12.937 -0.1609  0.2302 -0.3411
23914W        W39808   0.343   2.791  15.891  0.2144 -0.2983 -0.3331
23915W        W39809  15.760  16.062   0.190  0.2426  0.3936  0.1775
23916W        W39810  10.918   1.508   4.896 -0.1678  0.2212 -0.0702
23917W        W39811  15.102   8.855  14.991  0.0539 -0.1819 -0.1128
23918W        W39812   6.414  13.978  11.261 -0.0217  0.0462  0.0816
23919W        W39813  13.699  14.203  14.423  0.0300 -0.1102 -0.0174
23920W        W39814  13.072   3.512   3.125  0.1063  0.0834 -0.0181
23921W        W39815  12.519   8.485   3.856  0.1074  0.1112 -0.0917
23922W        W39816  10.254   9.070  15.240 -0.1558 -0.1806  0.2071
23923W        W39817  11.086  10.121  10.846  0.0862  0.0153  0.0170
23924W        W39818   2.836  15.167   1.914  0.1300  0.0770  0.0613
23925W        W39819  11.958   7.722   5.361  0.1228  0.1151  0.0063
23926W        W39820   7.449   8.836   2.027 -0.2457 -0.4703 -0.1362
23927W        W39821   9.968  15.687   3.046 -0.0167  0.1340  0.1623
23928W        W39822  11.295  17.225  13.942  0.0974  0.2171 -0.4151
23929W        W39823   6.356   8.798  14.775 -0.1289 -0.0313  0.2413
23930W        W39824   7.766   1.487   4.734  0.3107 -0.2495 -0.3191
23931W        W39825   9.427   7.776   2.788  0.2666  0.3108  0.2102
23932W        W39826   5.061  18.363   1.863  0.2708  0.1096  0.2859
23933W        W39827   6.885  12.231   3.207  0.0139 -0.0091 -0.3349
23934W        W39828  14.224   4.151  13.082 -0.1151 -0.0600  0.0466
23935W        W39829  16.307  13.495  15.626  0.1493  0.2833  0.0711
23936W        W39830   3.189   6.613   2.861  0.0365  0.3304 -0.1005
23937W        W39831   0.108   7.793   5.868 -0.0450 -0.0449  0.0744
23938W        W39832   5.513   0.729  15.723  0.2042  0.3474  0.1351
23939W        W39833  10.699  12.020   3.805  0.1299 -0.0343  0.0827
23940W        W39834  15.668   4.103   5.377  0.2645 -0.0648  0.0703
23941W        W39835  14.464  12.846   2.290 -0.3453 -0.1901 -0.0408
23942W        W39836   7.481  18.340  11.324  0.0588 -0.0154 -0.1023
23943W        W39837  14.239   6.472   5.798 -0.1219 -0.0937 -0.1587
23944W        W39838  12.414   9.952  11.964 -0.0346 -0.1594 -0.2775
23945W        W39839   6.959  13.965   0.447 -0.3268 -0.1850 -0.1316
23946W        W39840   5.025   4.643   5.273 -0.0847  0.1862  0.3085
23947W        W39841   8.217   0.558   1.884 -0.0618  0.1637 -0.1849
23948W        W39842   9.879   6.979  14.718 -0.1879 -0.0646 -0.0239
23949W        W39843   7.976   2.533   1.666 -0.1966 -0.4080 -0.0588
23950W        W39844   9.103  15.679  12.941  0.1079 -0.2678 -0.2900
23951W        W39845  16.226  14.840  13.512 -0.1532  0.0328  0.1887
23952W        W39846  12.866   5.250  15.670  0.1002 -0.3150 -0.0111
23953W        W39847  15.829  18.028  11.168  0.0661 -0.0057 -0.0681
23954W        W39848  14.511  10.226   5.573  0.4330 -0.3339 -0.2336
23955W        W39849   3.683   3.014   5.618  0.1708 -0.0626  0.3401
23956W        W39850  10.508   3.775   0.172  0.0179  0.0481  0.1091
23957W        W39851   8.864  14.259  13.251  0.1670 -0.5292  0.2755
23958W        W39852  13.714   1.600   0.185  0.1231 -0.2133  0.0529
23959W        W39853   7.515  10.753  13.334 -0.0134  0.2636  0.0783
23960W        W39854  10.765  18.308  15.429  0.2221  0.0586 -0.1714
23961W        W39855  10.212   2.941   4.167  0.0077  0.1020 -0.2955
23962W        W39856   0.677   1.906   4.747  0.2286 -0.0488  0.1476
23963W        W39857  15.576   2.170  11.644 -0.1430 -0.0054  0.1437
23964W        W39858  17.114   2.430   5.993  0.2963 -0.1139  0.1359
23965W        W39859  16.309  12.868  13.038  0.2110  0.0171  0.0014
23966W        W39860  16.776  10.955   4.487 -0.2143 -0.0637  0.0453
23967W        W39861  15.738   0.341  11.998 -0.0995 -0.0163  0.2216
23968W        W39862  10.662  11.449   0.001 -0.1280  0.1833 -0.0207
23969W        W39863   1.710  10.667  11.645  0.0517  0.3603  0.0132
23970W        W39864   1.011   8.300   1.180  0.2683  0.0968 -0.2756
23971W        W39865   2.144   4.435   0.186 -0.1923  0.3687  0.2071
23972W        W39866  16.737   2.446   2.915  0.2394 -0.2295 -0.0789
23973W        W39867   3.735  16.773  14.195  0.4904  0.0686 -0.0113
23974W        W39868  14.040  12.756   1.616  0.0166 -0.1708 -0.4001
23975W        W39869  16.444   1.664  13.869  0.0091  0.0417 -0.0445
23976W        W39870  11.100  11.523   0.422  0.1713 -0.2262 -0.1928
23977W        W39871   4.493   3.648   4.534 -0.0888  0.1053  0.3281
23978W        W39872  14.112   3.204   2.018  0.3490  0.0096  0.1345
23979W        W39873   6.760   1.578   4.324  0.0074 -0.1541  0.0156
23980W        W39874  13.494   1.134   0.143 -0.2280 -0.1806  0.0605
23981W        W39875   2.852   0.927   1.202 -0.0357 -0.1380 -0.2016
23982W        W39876  16.895  16.834  15.288  0.5390  0.1048  0.3211
23983W        W39877   5.960  15.302  14.692 -0.2759 -0.1261  0.1620
23984W        W39878   0.863   7.363   5.406  0.0077 -0.1559 -0.0761
23985W        W39879  11.711   9.952   2.607  0.0721  0.0036 -0.4197
23986W        W39880   9.284   3.449  12.108 -0.0682  0.0605  0.1061
23987W        W39881  13.549   1.442  13.086 -0.0658  0.2143  0.1191
23988W        W39882  13.723   3.103  14.566  0.0903  0.0884 -0.1026
23989W        W39883  17.703   2.589   3.834 -0.0883  0.0761  0.1578
23990W        W39884  15.957   2.442   2.630 -0.1697  0.0007 -0.2780
23991W        W39885  17.379  10.150  12.037  0.0678  0.0415  0.3606
23992W        W39886  17.034  14.128   1.818 -0.2646  0.0117 -0.0064
23993W        W39887   9.145   2.306  15.895  0.0154 -0.1615 -0.1966
23994W        W39888   7.976   9.520  11.441 -0.0860  0.0502  0.0143
23995W        W39889   2.916   3.691   0.028 -0.0839  0.0649 -0.2549
23996W        W39890  13.711  16.494  14.662  0.1759  0.0750 -0.0265
23997W        W39891  11.647  17.419  12.071  0.2828  0.1702  0.0586
23998W        W39892   0.856  18.381   1.170 -0.0754 -0.1363 -0.1885
23999W        W39893  10.163  13.276   0.147  0.3385 -0.0960 -0.1155
24000W        W39894  15.343   7.679  12.225  0.1015  0.0603  0.0252
24001W        W39895   6.637  16.322  11.369  0.3226 -0.1697 -0.2727
24002W        W39896   6.947  14.199  12.625  0.0015 -0.3438  0.1439
24003W        W39897   2.625  14.730   1.789 -0.1173 -0.3415 -0.5089
24004W        W39898   5.425  11.762   2.845 -0.1599 -0.0597  0.1523
24005W        W39899  17.072  14.868   4.489  0.0413  0.2716  0.1249
24006W        W39900   2.571  17.365   2.524  0.0960  0.0122 -0.0377
24007W        W39901   2.768   3.635  12.482  0.1042 -0.2387 -0.2374
24008W        W39902  18.009  10.332  12.736 -0.0599 -0.3034 -0.0681
24009W        W39903   5.354   6.812   2.641 -0.1692 -0.2492 -0.1600
24010W        W39904   5.263   4.552   4.101 -0.1217 -0.0705 -0.3276
24011W        W39905   9.695   0.635   0.642 -0.2849  0.2699  0.0469
24012W        W39906   3.137  12.777   3.074 -0.2132  0.1137 -0.0212
24013W        W39907   5.655   0.892   1.875 -0.2445 -0.3254 -0.3056
24014W        W39908   2.761  10.820  11.807  0.2568  0.0780 -0.3108
24015W        W39909   8.471   7.762  14.591 -0.3963  0.0419  0.0487
24016W        W39910  13.235  11.336  16.098  0.2311 -0.1820 -0.0983
24017W        W39911   5.198   9.525  12.836 -0.2565  0.2309 -0.0515
24018W        W39912   5.679   8.895   0.008  0.0306 -0.0838  0.0290
24019W        W39913  18.215   3.704  12.838  0.1515 -0.3476  0.0531
24020W        W39914   2.230  15.575  11.672 -0.0929 -0.0566  0.2532
24021W        W39915  11.860   6.714   4.713 -0.1169  0.1537 -0.0317
24022W        W39916   7.758  17.257   4.927  0.2120 -0.1837  0.1462
24023W        W39917   4.332  10.609  14.859  0.2303  0.1136 -0.1036
24024W        W39918   8.073  17.989   2.835 -0.0082 -0.3897 -0.1417
24025W        W39919  11.308  17.430  13.431  0.0494  0.0297 -0.2362
24026W        W39920   8.545   4.038  14.902 -0.0070 -0.0401 -0.2893
24027W        W39921  14.305   1.991   5.334  0.1221  0.4054  0.0703
24028W        W39922   1.525  15.993  11.412 -0.1743 -0.0227 -0.1261
24029W        W39923  10.813  14.595   1.563  0.0218  0.1793  0.0265
24030W        W39924   2.548  12.023   1.308 -0.2332 -0.0488 -0.0766
24031W        W39925   8.170   9.921  14.075 -0.0994  0.1638  0.2506
24032W        W39926   1.100   5.641  16.019 -0.2462 -0.0582 -0.3729
24033W        W39927  12.383  13.623   5.352  0.2558 -0.2082 -0.0167
24034W        W39928   4.274   8.317   4.359  0.1753  0.1263  0.0225
24035W        W39929  13.422  14.658  14.426  0.3527  0.0770  0.2438
24036W        W39930   7.292  12.347   0.305 -0.1857 -0.0721 -0.0310
24037W        W39931   5.824  10.117   4.021  0.0186  0.2538 -0.0708
24038W        W39932  15.388  12.676  13.515  0.0503  0.1425  0.1933
24039W        W39933   6.419  16.126  12.557 -0.4398  0.2982  0.2834
24040W        W39934   6.246  15.141  12.488 -0.3106 -0.2017 -0.0429
24041W        W39935   5.745   7.930   5.089  0.4842  0.2495  0.0386
24042W        W39936  18.202   7.884  12.852  0.2229 -0.0685  0.2803
24043W        W39937   0.329  12.248  13.072 -0.2193 -0.2874 -0.2174
24044W        W39938   8.876   1.397   0.776 -0.3241  0.0353 -0.2902
24045W        W39939   2.662   2.161  15.966  0.3040 -0.1366  0.0853
24046W        W39940  12.158  16.496   5.843  0.0790 -0.1613 -0.1787
24047W        W39941  17.575  16.707   4.617  0.3592  0.2133  0.2003
24048W        W39942   0.744   4.530   4.587  0.1813 -0.2502 -0.0998
24049W        W39943  13.202   7.568   4.406 -0.3543 -0.1700 -0.0150
24050W        W39944  16.082  17.406   3.786 -0.2430  0.0737  0.2755
24051W        W39945  13.774   8.819   0.474 -0.2711 -0.0473  0.0292
24052W        W39946   8.736   3.621   0.688 -0.2336  0.3841 -0.3111
24053W        W39947  18.205   2.452   3.663  0.0604  0.2296 -0.0773
24054W        W39948  12.699   9.616   6.080 -0.0038  0.0124  0.1854
24055W        W39949   1.388  14.562  15.779  0.0520  0.2468 -0.1600
24056W        W39950   2.084   1.741   1.352  0.1217  0.0061 -0.2679
24057W        W39951   2.648   2.706   1.230  0.1083 -0.2447 -0.1826
24058W        W39952  15.826  15.151   0.094 -0.0035  0.0346  0.0763
24059W        W39953  10.821  17.696  15.452 -0.0222  0.0731 -0.0454
24060W        W39954  10.477   9.491   2.499 -0.1156 -0.0984  0.2565
24061W        W39955   2.840   5.495  14.390  0.0489  0.2737  0.0439
24062W        W39956   1.062   9.839  15.665 -0.4018  0.0113 -0.0627
24063W        W39957  10.027   9.041   6.182  0.1220 -0.1079  0.2487
24064W        W39958  17.650   0.596   1.900 -0.2570  0.2551  0.0057
24065W        W39959  10.616   6.363   1.042  0.1242 -0.0668  0.3864
24066W        W39960  11.560  11.319   3.486  0.0288 -0.3737  0.0201
24067W        W39961  17.564  12.500   2.150  0.2770  0.2094  0.2028
24068W        W39962  13.729  12.622  10.999 -0.1491 -0.0999 -0.3331
24069W        W39963   7.431   0.603  14.948  0.0503 -0.1200  0.1032
24070W        W39964   4.607   8.634   4.101 -0.1185  0.0199  0.0212
24071W        W39965  16.123  10.914  14.510 -0.1209 -0.1912  0.0396
24072W        W39966  16.725  15.536   2.685  0.0837  0.1730  0.2786
24073W        W39967  10.066  15.203   5.216 -0.1012  0.1063 -0.0760
24074W        W39968  12.225  12.511  14.973  0.1712  0.2062  0.0395
24075W        W39969   5.550   6.583  12.670 -0.3176  0.2380  0.0339
24076W        W39970  16.338  11.625  15.104 -0.0296 -0.1619  0.2219
24077W        W39971   3.773  14.388   4.903 -0.3609  0.1515  0.0416
24078W        W39972   9.902  13.255   2.484 -0.1739  0.0991  0.1826
24079W        W39973  11.290  10.607  15.086  0.2143 -0.0226  0.0581
24080W        W39974  16.622   8.432   2.604  0.0606 -0.2818 -0.1545
24081W        W39975   4.931   9.015   5.414 -0.0639  0.0310  0.1356
24082W        W39976   7.631   2.566  12.331 -0.2980 -0.1041 -0.0678
24083W        W39977  15.501  16.017  11.526  0.1195 -0.1629  0.1188
24084W        W39978   5.829   7.232   4.421 -0.2324  0.1855 -0.0770
24085W        W39979   9.477  17.909   6.368 -0.0330 -0.4330  0.0225
24086W        W39980   6.118  14.344  13.040 -0.2492 -0.1295  0.1785
24087W        W39981  17.110   6.509  14.037 -0.1864  0.1681  0.2037
24088W        W39982   6.674  17.477   0.718  0.0941  0.2794 -0.0139
24089W        W39983  10.703  18.001  15.032  0.0589  0.0488 -0.1874
24090W        W39984   0.774  16.126   2.702  0.1359  0.1257 -0.1935
24091W        W39985   1.532   9.835   4.423 -0.0700  0.0150 -0.1304
24092W        W39986   4.178   6.221   0.167 -0.0773  0.4471  0.1095
24093W        W39987  18.298   3.195  15.920  0.0970  0.2910 -0.2142
24094W        W39988   7.458   0.420  15.452 -0.3551  0.4573 -0.0249
24095W        W39989  14.443   7.136   4.095  0.3630 -0.0742  0.0334
24096W        W39990   2.106   7.771   5.932 -0.3266 -0.2531 -0.0906
24097W        W39991  11.825  12.415   4.527  0.1663 -0.0264 -0.0453
24098W        W39992   5.975  17.418  13.075  0.1397 -0.4064  0.1020
24099W        W39993   3.532   5.227   3.269  0.0299 -0.0532 -0.1757
24100W        W39994  10.495   5.334  15.381 -0.0179 -0.3567  0.1285
24101W        W39995   8.558   9.385  15.083 -0.2273 -0.0158 -0.1888
24102W        W39996  13.462  17.408  11.428 -0.5661 -0.1169  0.0012
24103W        W39997   2.215  10.094   2.616  0.3027 -0.1196  0.1590
24104W        W39998   6.560   6.845  11.755 -0.2057 -0.1061 -0.1261
24105W        W39999   0.156  11.390   0.264 -0.1322 -0.0584 -0.1732
24106W        W40000   0.245   6.275   4.951 -0.0418 -0.3216 -0.0806
24107W        W40001   7.012   5.002   3.336  0.0885 -0.1439  0.0056
24108W        W40002   5.259  12.666  11.705  0.1828 -0.2363 -0.0297
24109W        W40003   1.002  16.183  15.521 -0.3372 -0.2448 -0.0604
24110W        W40004  15.419   3.685   5.606 -0.2628 -0.2898 -0.0922
24111W        W40005  14.278  10.933   3.865  0.0960  0.1455 -0.3018
24112W        W40006   8.345  17.657  14.200 -0.1830  0.2341  0.0090
24113W        W40007  10.702  11.977  12.051 -0.0974 -0.0107  0.1055
24114W        W40008   6.378   7.108   5.681  0.1566  0.1022  0.2473
24115W        W40009   7.940  14.029   1.198  0.2649  0.2636 -0.0077
24116W        W40010  14.820   0.594  12.073  0.0429 -0.0424 -0.1182
24117W        W40011  13.242  15.074  11.128 -0.0162  0.2511 -0.1499
24118W        W40012   0.460   5.099   1.049 -0.0601  0.0167  0.0029
24119W        W40013   5.322   2.215   1.084 -0.0017  0.2045  0.0887
24120W        W40014  14.452   6.355  11.933  0.4280  0.0256  0.0340
24121W        W40015  16.822   3.423  13.671  0.2777 -0.0827 -0.1209
24122W        W40016   7.740  13.476   3.384  0.0392  0.2113 -0.0051
24123W        W40017   3.258   6.753   2.414 -0.1498  0.1717 -0.0372
24124W        W40018  14.374  14.485   4.554  0.1110 -0.0417 -0.4563
24125W        W40019   8.654   2.863   3.364 -0.0124  0.3939 -0.1743
24126W        W40020   7.635  14.265   3.243 -0.0890 -0.2965 -0.0086
24127W        W40021   6.974  13.082   2.076  0.2803 -0.1972 -0.0888
24128W        W40022   3.016   8.766   0.088  0.1671 -0.3403 -0.2716
24129W        W40023   7.001   4.617  13.869 -0.0313 -0.0594 -0.3154
24130W        W40024   7.030  12.125  15.236 -0.0679  0.0936  0.0750
24131W        W40025  17.080   4.628  16.109  0.2136  0.0069  0.2120
24132W        W40026   6.098  16.745   2.621 -0.0757  0.1041 -0.1051
24133W        W40027   0.303  17.925  13.466  0.3012  0.0628  0.0399
24134W        W40028  17.799  15.274   5.113  0.2752 -0.3152 -0.0459
24135W        W40029  16.137  12.447  12.076  0.3575 -0.1912  0.0041
24136W        W40030  11.448   7.376   0.339  0.0315 -0.0510  0.2922
24137W        W40031  12.664  16.279   2.747 -0.0790 -0.2147  0.2855
24138W        W40032  15.070  12.917  14.769  0.1541 -0.0242  0.1386
24139W        W40033   6.150  15.649   2.651 -0.1909 -0.0184 -0.0576
24140W        W40034  13.875   9.218   0.725 -0.4190 -0.0450 -0.1655
24141W        W40035  18.463   6.401  13.804  0.0355 -0.1726 -0.1767
24142W        W40036  11.386   5.337  11.224 -0.2342 -0.0410 -0.2659
24143W        W40037   5.154  11.968  12.057  0.1917 -0.2922 -0.1582
24144W        W40038   0.605  17.109   3.845  0.3465  0.1494  0.0885
24145W        W40039   7.569  16.052  12.628 -0.0021  0.1454 -0.3002
24146W        W40040   4.445   3.845   2.168 -0.1179  0.0596  0.1018
24147W        W40041   7.980   0.234  12.947 -0.1173  0.1233 -0.2060
24148W        W40042  13.234   5.575   2.093  0.0022  0.2098 -0.0424
24149W        W40043   3.270   5.486  14.627 -0.1981  0.1258 -0.3170
24150W        W40044   1.974   7.285  15.914 -0.1207  0.0877  0.2749
24151W        W40045   3.214  18.339   1.649  0.1951  0.1366 -0.0056
24152W        W40046  17.405   1.923  13.526  0.2248  0.1525 -0.0990
24153W        W40047  12.316   2.101   4.696 -0.2373  0.1328  0.0735
24154W        W40048  12.794  12.418  12.453  0.0491 -0.2300 -0.0924
24155W        W40049  13.099   7.654  14.062 -0.0417  0.1905  0.2334
24156W        W40050  16.038  11.596  16.011 -0.3632  0.1841  0.2181
24157W        W40051   2.434  12.792  14.018 -0.4141  0.0794  0.0500
24158W        W40052  10.354   5.072   1.401  0.0595  0.1331 -0.0543
24159W        W40053  16.050   4.057   4.202  0.1991 -0.0211  0.3956
24160W        W40054   1.210  17.195   2.199 -0.0464 -0.0456 -0.1636
24161W        W40055   3.702   0.221  13.323 -0.1379  0.3451 -0.3031
24162W        W40056   8.673  16.715   2.240  0.2385  0.1248  0.2647
24163W        W40057  12.932  10.509  13.017 -0.1535  0.3740 -0.1828
24164W        W40058  14.885   7.907   2.339 -0.0066 -0.3022  0.2224
24165W        W40059  14.306   0.696   3.317  0.1384  0.0763 -0.0520
24166W        W40060   7.566  17.941   0.742  0.0042 -0.2242  0.0653
24167W        W40061   6.576  15.863  15.452 -0.0395 -0.2404  0.1675
24168W        W40062   6.175   1.155  15.712 -0.0685 -0.4731 -0.0991
24169W        W40063  16.161  13.043  15.805 -0.1573 -0.1179  0.0254
24170W        W40064  16.484   0.115  16.151 -0.0932  0.1479 -0.0795
24171W        W40065  13.045   8.233  12.750  0.1287 -0.1435  0.0071
24172W        W40066  16.261  15.580   0.769  0.2456 -0.0811 -0.1355
24173W        W40067  10.081  13.738   3.240 -0.1505 -0.1506 -0.2813
24174W        W40068  17.724   1.433   5.034 -0.2809  0.1534 -0.2804
24175W        W40069   4.268  18.017   0.030  0.0207  0.0724 -0.3180
24176W        W40070   2.856  12.590  14.351  0.0438  0.1428 -0.0811
24177W        W40071  18.348   2.209  14.739  0.1497 -0.1463  0.1615
24178W        W40072   1.428   7.810  13.699  0.0855 -0.1888  0.2215
24179W        W40073   9.241   9.017  15.685 -0.0845  0.3057  0.0867
24180W        W40074  13.176  18.453   2.990 -0.2121 -0.3649  0.0216
24181W        W40075  11.139  14.846  13.111 -0.1399  0.2406 -0.4139
24182W        W40076  13.196   7.736  12.928 -0.1108  0.0781  0.1489
24183W        W40077  13.800   6.294  12.730 -0.3345  0.1891  0.0648
24184W        W40078   8.171  12.509  11.764 -0.0332  0.4470 -0.1769
24185W        W40079  13.850   1.184   2.147 -0.0169 -0.0699 -0.0019
24186W        W40080   4.447  11.030   1.478  0.0926 -0.0667 -0.0962
24187W        W40081   6.825  10.846   5.494  0.2387 -0.0494  0.3097
24188W        W40082  13.498   1.138  14.816 -0.1441 -0.0753 -0.1347
24189W        W40083  13.798  14.150   5.044  0.0834 -0.1142  0.0249
24190W        W40084  10.087   7.457  12.211  0.1217 -0.2527 -0.4029
24191W        W40085  15.181  15.488  14.852 -0.1264  0.1347 -0.2906
24192W        W40086   0.564   2.227  12.324  0.1262 -0.2911 -0.2010
24193W        W40087  13.695   0.050   3.009 -0.1656  0.4797  0.1251
24194W        W40088   0.009  17.707  12.597 -0.3742  0.2525 -0.2509
24195W        W40089  11.699   7.940   4.999 -0.1810 -0.1156 -0.0617
24196W        W40090   0.774   3.697  14.683 -0.0560  0.1562  0.1347
24197W        W40091  17.772  17.561   3.985 -0.0805  0.0107 -0.0829
24198W        W40092  18.027  10.706  11.533  0.0796  0.0665 -0.0391
24199W        W40093   2.585  13.825   2.932 -0.2913 -0.1498  0.2086
24200W        W40094  11.350  12.481   0.577  0.2021 -0.1494  0.0340
24201W        W40095  18.391   1.032   3.801  0.0197  0.0229  0.2173
24202W        W40096  14.836   3.060   6.606 -0.3098  0.0663  0.1096
24203W        W40097   8.056   0.137   3.971  0.1061 -0.3389  0.0046
24204W        W40098   5.185   0.301  13.609 -0.0932  0.0965 -0.0032
24205W        W40099  16.808  16.062   2.451 -0.3112 -0.0416 -0.1222
24206W        W40100   5.881  16.506   4.032  0.2506  0.1948 -0.0380
24207W        W40101   8.029  15.279  12.373  0.1576  0.0165  0.0726
24208W        W40102  16.485   1.685   5.784 -0.5572  0.0667  0.2658
24209W        W40103   7.073   4.330  13.441 -0.0847  0.1679 -0.1249
24210W        W40104   9.635  16.535  15.597  0.4865  0.0153  0.0873
24211W        W40105   9.084   5.591   2.184  0.0245  0.3059 -0.1945
24212W        W40106  13.663  18.311  14.497  0.2085 -0.2373 -0.3134
24213W        W40107   2.721   3.964   3.099  0.4334  0.2388  0.0080
24214W        W40108   6.308  18.338  13.191 -0.2247  0.1684 -0.1328
24215W        W40109   8.451   9.810   4.093 -0.3166  0.0121 -0.2979
24216W        W40110   3.605   7.865  12.117 -0.3019  0.0682  0.1578
24217W        W40111  14.697  10.291   2.720  0.1125  0.2537  0.0835
24218W        W40112   0.868  17.369   3.106 -0.0845 -0.0571  0.1314
24219W        W40113  17.102  12.489   1.829 -0.1277 -0.0234 -0.1223
24220W        W40114  15.518  18.307   0.099  0.0504 -0.2166  0.1211
24221W        W40115  13.585   9.365   4.506 -0.0175 -0.0505  0.4408
24222W        W40116  12.646   2.907   3.422  0.1978 -0.1327 -0.2447
24223W        W40117   2.473   4.363   4.223 -0.0802  0.2223  0.3374
24224W        W40118  17.399   3.559  13.870  0.0637  0.3994  0.1710
24225W        W40119   6.462  17.360  13.602 -0.0478  0.3118 -0.2237
24226W        W40120   0.710  11.024   4.878  0.0277 -0.3002  0.0754
24227W        W40121   7.000   7.315   0.286 -0.0579 -0.1699 -0.2035
24228W        W40122   4.929   8.779   3.188  0.2111 -0.2235 -0.1746
24229W        W40123   6.487   1.242  14.549 -0.1806  0.1515 -0.2244
24230W        W40124   1.642   1.869  15.557 -0.0768  0.0978  0.1670
24231W        W40125   9.198   6.066  15.775  0.1794 -0.1004  0.0934
24232W        W40126  12.309   0.489   4.905  0.0170 -0.0311 -0.2847
24233W        W40127  11.204   8.616   1.611 -0.0658 -0.0634 -0.0501
24234W        W40128  13.179   1.796   1.469  0.0375  0.2265 -0.0244
24235W        W40129  10.355   0.187   2.754 -0.0643  0.3950  0.1221
24236W        W40130   0.310   2.079  14.307  0.0759 -0.2663  0.1927
24237W        W40131  12.056   0.982   1.410  0.0548  0.3036  0.1080
24238W        W40132   9.420  14.792  13.470  0.3087  0.3582  0.1864
24239W        W40133   4.438   7.318   5.273 -0.2069 -0.0959 -0.0831
24240W        W40134   4.016  13.221   1.868 -0.1671 -0.0239  0.1780
24241W        W40135  15.320   7.841  14.887  0.0755 -0.0842 -0.0269
24242W        W40136   1.885  15.131   5.296  0.2325 -0.2524  0.2609
24243W        W40137   9.922  12.138  13.885 -0.1246 -0.3487  0.2109
24244W        W40138  15.639   1.022   3.463  0.2230 -0.2242  0.0125
24245W        W40139  17.264  13.788  15.422 -0.0155 -0.0191  0.0503
24246W        W40140  10.511   6.801   3.516 -0.1359  0.1452 -0.1809
24247W        W40141  13.402  14.354  14.007 -0.3974  0.2909  0.1309
24248W        W40142   6.412   3.997  13.944 -0.3585  0.2583  0.0301
24249W        W40143  17.946  17.933  11.837 -0.1719  0.1585 -0.2058
24250W        W40144   7.275   0.335   5.460 -0.1660  0.1273 -0.1267
24251W        W40145  12.727  16.457  12.896  0.1405  0.2009 -0.0477
24252W        W40146  14.041  15.665   1.151 -0.1879 -0.1216 -0.2299
24253W        W40147  11.439  16.769  15.723 -0.1339  0.0592  0.1242
24254W        W40148   9.715   0.444  11.823  0.0206 -0.1958 -0.0685
24255W        W40149   7.468   7.762   3.022  0.1047 -0.1110 -0.1873
24256W        W40150   2.143  17.157  15.819  0.0511 -0.3920 -0.1029
24257W        W40151   9.859   4.362  15.048  0.0068 -0.1432 -0.0710
24258W        W40152   7.326   3.121   1.540 -0.1514 -0.0727  0.0967
24259W        W40153   7.765  13.603  11.646 -0.2419 -0.4449 -0.0223
24260W        W40154  11.088  18.370  12.411 -0.0709  0.1207  0.1554
24261W        W40155   1.513   8.649  15.198 -0.0800 -0.0913 -0.0693
24262W        W40156  10.396   1.224   0.603  0.1174 -0.2620 -0.2438
24263W        W40157  17.234  10.536  15.635 -0.2340 -0.0174  0.0616
24264W        W40158  12.519   2.890  12.087  0.0065 -0.3894  0.0116
24265W        W40159   2.626   5.152  12.980 -0.1612 -0.2058 -0.0314
24266W        W40160  10.557  14.098  13.454 -0.2287  0.0360 -0.0837
24267W        W40161   8.329  12.578   4.340 -0.3774  0.2523  0.0992
24268W        W40162   9.080   9.497   2.024 -0.1241 -0.0040 -0.0385
24269W        W40163   1.302   0.734  13.290  0.0644  0.2094  0.4138
24270W        W40164  17.630   4.636   2.162 -0.0487  0.3904  0.1985
24271W        W40165   5.369  18.333  11.835  0.0898 -0.1215 -0.0124
24272W        W40166   8.622  14.311   2.732 -0.3861  0.3777  0.0549
24273W        W40167  16.850  12.603   2.794  0.2127 -0.0082 -0.0865
24274W        W40168  14.033  16.462  11.552 -0.1584  0.1324  0.0402
24275W        W40169  14.670  17.375   3.191 -0.3768  0.0201 -0.1368
24276W        W40170  13.305  15.629   0.328  0.0484  0.4219  0.1147
24277W        W40171  17.587   6.205   1.761 -0.1151 -0.2011 -0.3074
24278W        W40172   9.111  11.608  12.900 -0.0082  0.2948  0.0632
24279W        W40173   0.165  10.130  14.961 -0.0205  0.3336  0.2061
24280W        W40174   5.971  15.806   4.146  0.2056 -0.0554 -0.0857
24281W        W40175  17.641  10.420   2.935 -0.1026 -0.0670 -0.0909
24282W        W40176  15.320   9.774   3.918  0.1021  0.0845  0.0002
24283W        W40177   9.582   2.139   5.969 -0.3096 -0.1076 -0.3027
24284W        W40178   4.627   4.913  13.042 -0.0121  0.1083 -0.2798
24285W        W40179  16.460   8.247  14.857  0.1301  0.2841  0.2696
24286W        W40180   3.239   6.478   4.927 -0.1054 -0.0265  0.1367
24287W        W40181  16.329   6.815   0.151 -0.0142 -0.3127 -0.2967
24288W        W40182   2.477  18.308  12.573  0.0184 -0.0837  0.1317
24289W        W40183  16.193  18.154  11.654  0.0669  0.0416  0.0465
24290W        W40184  17.449   8.371   4.775  0.0319 -0.4122 -0.0187
24291W        W40185  10.501  15.288   2.205  0.1422  0.0516  0.1167
24292W        W40186   8.277  18.244   2.480 -0.2182  0.3730  0.0963
24293W        W40187  10.983   4.158  12.501  0.0987 -0.0473  0.1606
24294W        W40188   0.858  12.477  13.917 -0.0021 -0.0462  0.0886
24295W        W40189   5.117   4.652   1.902  0.2153  0.2218  0.0455
24296W        W40190   3.704  12.108   3.577 -0.3002 -0.0247  0.0779
24297W        W40191  14.890   7.407   2.518  0.3811 -0.0134  0.2034
24298W        W40192   4.819  11.159   1.133  0.1012  0.1644 -0.0735
24299W        W40193  17.165  16.089  14.502 -0.0240  0.3032 -0.1397
24300W        W40194   8.197   4.255   0.157  0.1634 -0.0505 -0.1015
24301W        W40195   3.497  14.950  16.149 -0.0285  0.1839 -0.1697
24302W        W40196  11.106   1.767  13.575  0.1033  0.0841 -0.3447
24303W        W40197  13.907  15.261  12.309  0.0406 -0.1108  0.0531
24304W        W40198  11.633   0.338  11.527  0.0515  0.0746  0.2223
24305W        W40199  10.748  17.315   0.758 -0.1880  0.0959 -0.2231
24306W        W40200   9.573  11.498  13.729  0.0433  0.0821 -0.0052
24307W        W40201   7.848  14.386  15.869  0.1215 -0.0971  0.1084
24308W        W40202  12.654   2.049   4.106 -0.0409  0.0060 -0.1772
24309W        W40203  16.753   3.454   3.059 -0.1894  0.1532 -0.1300
24310W        W40204  13.461  10.822   0.131 -0.3719 -0.0487  0.2484
24311W        W40205   7.789   0.967  11.846 -0.1121  0.0514  0.3444
24312W        W40206   0.270  17.133  15.684  0.0971 -0.1400  0.0113
24313W        W40207  15.216   2.195  12.930 -0.1296 -0.0122  0.0118
24314W        W40208  17.366   0.844   3.427 -0.1139  0.1329  0.1671
24315W        W40209   4.965  17.487  14.548 -0.2634  0.1071 -0.1515
24316W        W40210  13.848   2.034   4.497  0.0656  0.1398 -0.1840
24317W        W40211  15.649  16.757   2.380 -0.0417  0.2028  0.0210
24318W        W40212   0.236   3.213   3.946  0.3373 -0.0709 -0.1771
24319W        W40213   9.549   2.181   2.760 -0.2398  0.1414 -0.4949
24320W        W40214  16.851  15.695   0.408  0.1437  0.0837  0.0786
24321W        W40215   0.690  18.369  11.110  0.0178 -0.3756 -0.2419
24322W        W40216   0.519  10.714   2.133 -0.1045 -0.3117 -0.0301
24323W        W40217  17.868   3.140   0.431  0.1873  0.1398 -0.1929
24324W        W40218   8.215   8.341   3.293  0.1088  0.0066  0.4428
24325W        W40219   6.152   3.071   5.241  0.3192 -0.1726 -0.0708
24326W        W40220  12.312   7.063  14.116  0.0163 -0.1366 -0.2313
24327W        W40221   7.305   2.671  15.750  0.1428  0.0597 -0.1998
24328W        W40222  14.373  16.868   3.636  0.2310 -0.0571  0.0994
24329W        W40223   3.357   1.320  16.057  0.2064  0.0810 -0.3561
24330W        W40224   7.613  13.417  14.216  0.0300  0.0103  0.0233
24331W        W40225  16.355  16.388   4.378 -0.1951  0.0470 -0.1404
24332W        W40226  17.342  14.964   4.094  0.0855  0.2169  0.2581
24333W        W40227  17.753   0.641  15.222  0.0799 -0.1501  0.0191
24334W        W40228   8.800   4.012  13.272  0.2669  0.2836 -0.2460
24335W        W40229  15.465   4.144  15.786 -0.2072  0.3986  0.1506
24336W        W40230  13.092   4.955   6.478 -0.1587  0.3752  0.0503
24337W        W40231  14.714  11.942  11.180  0.0690 -0.2262  0.3144
24338W        W40232   2.242   3.174   3.490  0.2472 -0.2389  0.1707
24339W        W40233  15.908   8.069   4.322 -0.2311  0.1246 -0.0894
24340W        W40234  14.433   5.952   0.190 -0.0310 -0.0749 -0.0018
24341W        W40235   6.642   1.851  15.422  0.1159  0.0708  0.3012
24342W        W40236   7.163  18.351  11.822 -0.4078 -0.0530  0.2791
24343W        W40237   4.148  17.190   3.858 -0.4968 -0.0574  0.0080
24344W        W40238  13.704   2.933  13.456  0.2166 -0.0618  0.1726
24345W        W40239   8.049   4.956   2.103 -0.1170  0.0390 -0.1053
24346W        W40240   6.587   0.194  13.547  0.2806 -0.0624 -0.3443
24347W        W40241  15.185   5.637   4.716 -0.2150  0.1271 -0.2153
24348W        W40242   7.700  16.258   0.538  0.0133  0.2906 -0.0117
24349W        W40243   9.565  14.819  14.881 -0.0505  0.4100 -0.2228
24350W        W40244   1.797  10.224  12.830  0.1781  0.0968  0.1274
24351W        W40245   1.409  14.043  15.596  0.3009  0.2481  0.0496
24352W        W40246  10.297  13.613   1.199  0.3098  0.0321  0.0245
24353W        W40247   4.326   9.955   0.009 -0.0264 -0.5312  0.1198
24354W        W40248   0.043   6.398  14.819  0.2890  0.0248 -0.2767
24355W        W40249   4.871   1.087   6.109  0.1988  0.1891  0.1355
24356W        W40250  18.296  17.569   4.699 -0.1685  0.0067  0.2271
24357W        W40251   7.420   7.096  11.947  0.0847 -0.1039  0.0266
24358W        W40252   8.802  17.434  11.960  0.2895 -0.1146  0.2544
24359W        W40253   9.465   4.356  12.004 -0.0928 -0.1233 -0.2143
24360W        W40254  15.306   7.061   2.988  0.1958 -0.0254  0.0355
24361W        W40255  12.752  11.159  15.614 -0.2731 -0.1289  0.0214
24362W        W40256  16.798   6.633   2.909  0.2189 -0.0312 -0.0298
24363W        W40257  11.401  17.070   0.581 -0.0364 -0.1401 -0.2364
24364W        W40258   5.443  17.071  12.461 -0.1884 -0.1433 -0.0320
24365W        W40259  18.341  16.643  14.586  0.1753  0.1772 -0.1198
24366W        W40260  16.198   7.854  15.094  0.0293  0.0700 -0.1736
24367W        W40261  16.532   9.635  15.547  0.1158 -0.0257 -0.2585
24368W        W40262   1.962  15.193  15.029 -0.0275  0.0552 -0.1644
24369W        W40263  14.863  11.084   0.931 -0.0591  0.0350 -0.0914
24370W        W40264  11.924   0.115  13.382  0.1009 -0.1871  0.0403
24371W        W40265   6.460  12.754  14.311 -0.0616  0.2909 -0.2468
24372W        W40266   3.413   5.956   5.386  0.1688  0.0121  0.0144
24373W        W40267   6.332   8.908   4.669  0.1017  0.1599  0.0137
24374W        W40268   7.396  12.656  15.455 -0.2151 -0.2734  0.0011
24375W        W40269   8.929  13.109  14.383 -0.0538 -0.0369 -0.0693
24376W        W40270  15.465  15.803   2.310 -0.0778  0.0142  0.0980
24377W        W40271   1.164  12.850  14.033 -0.3999 -0.0967  0.0067
24378W        W40272   5.535  11.757  15.618  0.0533  0.3929  0.0066
24379W        W40273  13.719  11.820   1.989  0.3446  0.0895 -0.1994
24380W        W40274   5.747   1.355   0.280 -0.1534  0.0605 -0.0781
24381W        W40275   2.651  18.301  12.109 -0.1705 -0.1125 -0.1055
24382W        W40276   5.713   1.238  10.988 -0.0822 -0.0897 -0.1758
24383W        W40277   2.997  17.794   3.523 -0.0270  0.1122  0.1049
24384W        W40278   8.099  16.152  12.549  0.1433  0.2770  0.3473
24385W        W40279   9.047  11.350  10.272  0.1421  0.0907 -0.0853
24386W        W40280  15.618   2.460  13.855 -0.2675 -0.0542  0.2691
24387W        W40281  16.864   5.412   4.094  0.0192 -0.0361  0.0793
24388W        W40282  16.252  13.315  14.232 -0.0014 -0.1615  0.0447
24389W        W40283   2.054   6.754  12.641  0.0269 -0.2112 -0.1344
24390W        W40284   6.806   2.088   2.199  0.2150  0.1408 -0.0214
24391W        W40285   3.102  14.745  15.614 -0.2544 -0.0142 -0.1392
24392W        W40286  13.053  17.579  15.593 -0.0088  0.1697  0.0376
24393W        W40287   6.917   9.131  14.287 -0.0823 -0.1718  0.2034
24394W        W40288  14.376   2.102   2.776 -0.0219 -0.0591  0.0480
24395W        W40289  14.316   2.318   2.211  0.2163  0.0804  0.2098
24396W        W40290   2.415   0.481  12.477 -0.2002  0.2671 -0.1122
24397W        W40291   9.764   3.932  15.988  0.3771  0.2121 -0.3517
24398W        W40292  12.920   0.359  15.739  0.2433 -0.0866  0.0385
24399W        W40293   1.896  15.031   4.784  0.3574  0.0137 -0.1444
24400W        W40294  17.225  10.146   2.963  0.1144  0.1119  0.1381
24401W        W40295   9.149  11.121   2.097 -0.3592 -0.1285 -0.0037
24402W        W40296   3.632   5.905  14.827 -0.0005 -0.0298  0.2095
24403W        W40297   8.138   5.798   2.569  0.0077 -0.0051  0.1930
24404W        W40298  16.287  14.135   0.799 -0.2122  0.0072 -0.1895
24405W        W40299   0.763   0.173   0.717  0.2647  0.1893 -0.2497
24406W        W40300   3.422   0.787  13.910 -0.1168 -0.4569  0.0115
24407W        W40301  15.252   5.575   5.287  0.1078  0.2143 -0.1545
24408W        W40302   3.617  12.913  11.080 -0.1692  0.1178  0.0286
24409W        W40303   8.069   7.084   4.178  0.2385  0.3557  0.3269
24410W        W40304   5.292  11.061  13.826 -0.3313  0.3018 -0.0295
24411W        W40305   5.608   3.333   0.788  0.2016 -0.0309  0.0280
24412W        W40306  13.032   0.995   3.274  0.1707 -0.1342  0.1841
24413W        W40307  17.356  17.318   0.697 -0.0464  0.1939 -0.0604
24414W        W40308   9.874   6.739   0.813  0.3427  0.3037  0.4880
24415W        W40309   0.058   1.863   3.385  0.0491  0.1452 -0.1320
24416W        W40310  13.275   2.649   1.431 -0.5356 -0.2644  0.0664
24417W        W40311  15.203  15.339   3.943 -0.0677 -0.0447  0.0863
24418W        W40312   7.153  15.634   2.533 -0.0010 -0.3019  0.0031
24419W        W40313   6.268  13.074  13.933 -0.2049 -0.1774  0.1094
24420W        W40314   0.616   9.262   0.475 -0.2030 -0.2580 -0.0369
24421W        W40315  12.597   1.599  11.170 -0.2400 -0.2405 -0.5841
24422W        W40316  10.613  16.323   0.788 -0.2366  0.1540 -0.0228
24423W        W40317   7.846  17.446   0.649 -0.0259 -0.2080  0.1631
24424W        W40318   2.730   4.848   4.626 -0.1697 -0.0945 -0.2334
24425W        W40319  13.719  16.642   5.720 -0.0397 -0.1603 -0.0130
24426W        W40320  13.641  10.890   3.022 -0.1832  0.3784 -0.1621
24427W        W40321  12.809  15.242   1.131 -0.0530 -0.0143  0.2383
24428W        W40322   0.228   0.365  11.667  0.2151 -0.4767  0.3052
24429W        W40323  10.279   5.139   0.887 -0.2199  0.0680  0.0759
24430W        W40324  14.693  17.805   1.174 -0.2632  0.0442 -0.0648
24431W        W40325   4.675   9.803  15.382  0.0494 -0.1316 -0.3970
24432W        W40326  17.662  15.643   2.680  0.0639 -0.0220  0.2123
24433W        W40327   7.661   2.710  11.222  0.0763 -0.1340 -0.1082
24434W        W40328   4.466   8.281  12.046 -0.0490  0.2512  0.1629
24435W        W40329  17.719   6.327   0.327  0.1077  0.0576 -0.1301
24436W        W40330   4.655  15.869  14.648 -0.1284  0.3078 -0.4015
24437W        W40331  18.112  14.039   5.587  0.3121 -0.0109 -0.1021
24438W        W40332  12.152  14.152   0.965  0.1383  0.0512  0.1437
24439W        W40333  11.165   2.245   0.548  0.1941 -0.1698 -0.0310
24440W        W40334   8.352   6.539   5.345 -0.0439 -0.4262  0.0655
24441W        W40335  17.556  10.150  11.536 -0.3035 -0.1101 -0.0945
24442W        W40336   6.834   2.813  15.754  0.0419 -0.0797 -0.0207
24443W        W40337  15.548  10.711   0.308 -0.4371 -0.1400  0.1095
24444W        W40338  18.137  15.373   4.804  0.0480  0.1222 -0.2502
24445W        W40339   7.020   2.822   5.082  0.3793 -0.3209 -0.0875
24446W        W40340   9.486   5.016  13.777  0.2490  0.1035 -0.3304
24447W        W40341  14.692  12.880   4.148  0.2824  0.0887 -0.0503
24448W        W40342   6.477   3.219  14.267  0.2765  0.1680  0.1445
24449W        W40343  12.968  12.318  16.101  0.1284 -0.3614 -0.2382
24450W        W40344  10.008   6.831   4.973 -0.0490 -0.0696 -0.2492
24451W        W40345  13.655  18.283   2.536  0.1295  0.1480 -0.1690
24452W        W40346  13.956  14.832   0.660 -0.1707 -0.0228 -0.2560
24453W        W40347  10.959  12.815   0.410 -0.1872 -0.1680  0.0906
24454W        W40348  12.109  11.325   3.372  0.0074  0.0040  0.0142
24455W        W40349  16.316  14.982   2.717 -0.0644 -0.0293  0.2419
24456W        W40350  15.717   4.431   3.413  0.0098 -0.2354  0.4072
24457W        W40351   4.429  12.653  12.235 -0.2863 -0.3624  0.2048
24458W        W40352  10.203   2.463   4.135  0.1347 -0.1245  0.2665
24459W        W40353  12.710  17.736  14.708 -0.0066  0.2023 -0.1829
24460W        W40354  10.141   1.719   1.352  0.3976  0.1841  0.1758
24461W        W40355  11.928   4.728   5.765 -0.1298 -0.0740 -0.1148
24462W        W40356  10.874   0.535  14.245  0.0419 -0.2023 -0.1632
24463W        W40357   0.935  10.600  11.787  0.0720  0.4064  0.0433
24464W        W40358  12.413   9.312   5.610 -0.0482 -0.1057 -0.1635
24465W        W40359   3.624   0.822  13.106  0.1475  0.1568  0.0479
24466W        W40360   7.385  17.534  12.397  0.2602 -0.1260 -0.0993
24467W        W40361   1.946  10.402   0.677 -0.1445 -0.0502  0.1745
24468W        W40362  10.293  14.026  12.646 -0.2799 -0.0066 -0.0667
24469W        W40363   7.864  16.047  15.125  0.0612 -0.2817 -0.0041
24470W        W40364  18.303   4.480   6.162  0.2034  0.3804  0.0397
24471W        W40365   3.507  18.107  12.003 -0.3209  0.1291 -0.0992
24472W        W40366   8.964   7.934   3.130  0.0078  0.0441 -0.1033
24473W        W40367  17.104   4.003  12.457 -0.0580 -0.0216  0.1163
24474W        W40368  17.714   9.432  12.269  0.1695 -0.2265  0.2550
24475W        W40369  10.754   3.144   1.327 -0.1059 -0.1502 -0.0539
24476W        W40370   0.347  10.393  12.456  0.0744 -0.2475 -0.0092
24477W        W40371   8.651   8.913  12.554  0.1519  0.5062 -0.1390
24478W        W40372   5.241   0.812  13.109  0.0317 -0.0754 -0.1666
24479W        W40373   1.775  11.132   4.168 -0.1063  0.2800  0.2062
24480W        W40374  11.703   1.442  11.814  0.3777 -0.2186 -0.1811
24481W        W40375   3.193   9.572  11.486 -0.0488 -0.1726  0.2847
24482W        W40376   8.281   3.384   3.653 -0.0766 -0.0139  0.0104
24483W        W40377  15.398  10.581   3.466  0.2038  0.1158 -0.2523
24484W        W40378   0.680   1.417  15.801 -0.0717  0.0976  0.0209
24485W        W40379   0.916  11.342  16.041  0.2669 -0.1328 -0.0065
24486W        W40380   1.739   2.659   1.551  0.0264 -0.0631 -0.1895
24487W        W40381   6.080  16.185   4.445 -0.1183 -0.2867  0.3774
24488W        W40382  10.019  11.532   1.196 -0.0368  0.0804  0.1350
24489W        W40383  10.734  17.831  10.830  0.3338 -0.0036 -0.4145
24490W        W40384  10.706   3.482   2.134  0.2193  0.0168 -0.4569
24491W        W40385   4.273  10.323  10.865 -0.4560 -0.1865 -0.3268
24492W        W40386  18.120   0.603  13.378  0.2468  0.2474 -0.1441
24493W        W40387   3.942   4.662  15.830 -0.1372 -0.2641  0.1136
24494W        W40388  18.444   3.020   3.454 -0.2489  0.1074 -0.1633
24495W        W40389  12.284  11.328  12.314 -0.1377  0.1810  0.1865
24496W        W40390   2.781  12.462   4.018 -0.0007 -0.0294  0.2259
24497W        W40391  14.734   8.984   1.412  0.1088  0.1532  0.0937
24498W        W40392  14.428  13.630   2.937  0.1240  0.3778 -0.0194
24499W        W40393  16.401   4.151   3.399  0.0580  0.3194  0.0540
24500W        W40394   5.879   5.886   2.905 -0.1721 -0.2477 -0.0641
24501W        W40395  14.121   6.054  12.144 -0.1645 -0.3177 -0.1639
24502W        W40396   2.036  13.690   3.991 -0.1050 -0.1284 -0.0219
24503W        W40397  13.091   3.726  15.886  0.0882 -0.2499 -0.1420
24504W        W40398   1.976   0.389   3.028 -0.1869 -0.2420 -0.2730
24505W        W40399   3.915   7.799  15.813  0.3360  0.1572  0.0194
24506W        W40400  11.395  15.036  12.767 -0.0073  0.2170 -0.1332
24507W        W40401  14.666   4.036  15.265  0.0280 -0.1599  0.0515
24508W        W40402  15.325   8.092   3.222 -0.3066  0.2021  0.2627
24509W        W40403   7.873   7.780   1.702 -0.1095 -0.1485  0.1052
24510W        W40404  11.678   2.399   4.493  0.0275  0.0587 -0.1049
24511W        W40405  13.021   5.477  11.345  0.2141  0.2436  0.0553
24512W        W40406   0.355  14.698   0.239 -0.2333 -0.1604 -0.0942
24513W        W40407   8.581  17.165  11.569  0.2394 -0.0786  0.2493
24514W        W40408   5.040  16.880   5.899 -0.1112  0.4057  0.0495
24515W        W40409   2.170   5.478   2.344 -0.1995 -0.1394  0.3701
24516W        W40410  15.497   0.327  11.521 -0.1125  0.0337  0.0830
24517W        W40411  10.157  10.271  13.848  0.2474  0.2941  0.3761
24518W        W40412   3.674  13.729  10.867 -0.1659  0.0538 -0.4485
24519W        W40413   6.612   8.552  15.146  0.0959  0.3103 -0.1049
24520W        W40414  17.199  12.534   6.563 -0.0090  0.1667  0.4210
24521W        W40415   4.681   9.467   5.562 -0.2506 -0.1880 -0.0139
24522W        W40416  18.345   2.821   4.009 -0.0876  0.1452 -0.1450
24523W        W40417   7.936   0.809  15.846  0.2014  0.0509  0.0927
24524W        W40418  16.961  11.945  12.122  0.1213  0.0520  0.0507
24525W        W40419   0.926   6.623   2.887 -0.0730 -0.1914  0.2914
24526W        W40420   8.247  10.750  14.773  0.1294 -0.0254 -0.1310
24527W        W40421  12.983   5.216  13.937 -0.1352  0.0027 -0.0641
24528W        W40422   8.269   9.816   1.454 -0.1779 -0.0584 -0.1261
24529W        W40423   4.569   8.098  12.888  0.0569  0.1730  0.0292
24530W        W40424  16.717  13.818   0.870 -0.3989  0.1832 -0.0983
24531W        W40425   6.419   9.158   2.160  0.2582  0.0357  0.1311
24532W        W40426  13.690  15.153  13.000 -0.1000  0.4290 -0.0578
24533W        W40427  18.318   0.848  15.582 -0.2723 -0.3247 -0.1814
24534W        W40428   9.626  15.887   3.377  0.1478  0.1398 -0.0886
24535W        W40429  12.028  15.932  15.465 -0.0906 -0.3833 -0.4632
24536W        W40430   7.275   7.370  15.161  0.0461  0.2521  0.4675
24537W        W40431  16.294  18.192   4.433 -0.1594 -0.3608  0.1029
24538W        W40432   5.029   6.325   3.215 -0.1810  0.0092 -0.0816
24539W        W40433  14.856  10.533  13.583 -0.1517 -0.1409  0.1850
24540W        W40434  16.711  17.909  12.379  0.1694 -0.0415 -0.1169
24541W        W40435   6.243  13.154  11.763 -0.1803  0.0947 -0.1805
24542W        W40436   5.776  17.786  12.507  0.2133 -0.0114 -0.1575
24543W        W40437   6.762  11.915   5.259  0.3115 -0.0533  0.0478
24544W        W40438   3.026   8.618   2.485 -0.0155  0.1727  0.0944
24545W        W40439  11.066  16.828   3.233 -0.0458 -0.1862  0.0853
24546W        W40440  16.247   4.040   0.483 -0.1454 -0.0764 -0.0390
24547W        W40441   4.557  11.018   0.460  0.1254 -0.1085 -0.0889
24548W        W40442   8.366  10.632  15.338 -0.0817  0.2425 -0.2305
24549W        W40443   4.844  12.935  12.983 -0.3157 -0.2911 -0.2897
24550W        W40444   5.696  12.465  11.833  0.2198 -0.1988 -0.1730
24551W        W40445   4.195  14.562   1.423  0.3945  0.2712 -0.0017
24552W        W40446   9.104  12.799  13.413  0.3481  0.2672  0.3105
24553W        W40447   6.369  13.974   5.643  0.1052 -0.1855  0.0647
24554W        W40448  16.749  14.669  13.496 -0.3015 -0.2138  0.1410
24555W        W40449   9.904   9.218   4.906  0.0303  0.2617  0.0513
24556W        W40450   5.641  13.527  15.590 -0.3547  0.1806  0.2171
24557W        W40451   2.805   7.878  15.846 -0.1608 -0.1029 -0.0117
24558W        W40452   5.599  16.901   0.145  0.1777 -0.1679  0.1061
24559W        W40453   8.048   4.767   4.997 -0.1403 -0.1150 -0.2941
24560W        W40454   5.670   5.909   6.301  0.1410 -0.0321 -0.2121
24561W        W40455   6.955   7.677   3.133 -0.2601 -0.4804  0.0170
24562W        W40456   2.952   8.244   5.014 -0.2709  0.0856 -0.2560
24563W        W40457  13.582   4.969  12.228 -0.0359  0.4094  0.1661
24564W        W40458   6.505   5.135  10.067  0.0007  0.0510  0.0433
24565W        W40459  13.174   0.234   0.124 -0.0512 -0.4615  0.1287
24566W        W40460   2.914   4.789   2.234  0.2618  0.1116 -0.2172
24567W        W40461  12.668  14.185  15.699 -0.1292 -0.2108  0.2419
24568W        W40462   2.006  16.625   3.040  0.1606 -0.0412 -0.0838
24569W        W40463  11.174   2.577  13.778 -0.1000 -0.0783  0.2508
24570W        W40464   2.594   5.873   2.333  0.2263 -0.0506  0.2577
24571W        W40465   8.798   2.775   2.504 -0.3116 -0.1989  0.0040
24572W        W40466  11.368   4.788  14.416 -0.2236  0.1349 -0.0453
24573W        W40467   7.550   3.928   2.356  0.0874 -0.0525 -0.2157
24574W        W40468  14.343   8.106   4.726 -0.0362 -0.2196 -0.2002
24575W        W40469   8.141   3.167  14.244 -0.1266 -0.0779  0.3268
24576W        W40470  12.463   6.837  10.550 -0.2139  0.0389  0.1856
24577W        W40471  12.263  12.091  15.507 -0.0954 -0.3126  0.0905
24578W        W40472  16.212  15.633   5.310 -0.0251  0.2932  0.0561
24579W        W40473  13.403  17.383  13.042  0.0573  0.1726 -0.0356
24580W        W40474  16.801   3.044  13.360 -0.1222  0.1446  0.1439
24581W        W40475   0.302  13.151   5.099  0.1730  0.1123  0.2718
24582W        W40476   4.873  14.322  11.458 -0.2250 -0.2608  0.0315
24583W        W40477  12.200  15.398  12.715 -0.0488  0.0073 -0.0668
24584W        W40478   1.049   3.756  12.445 -0.1459  0.1225 -0.2918
24585W        W40479   9.252  11.906   1.810 -0.2825  0.1015  0.1449
24586W        W40480  14.587   9.289   5.434 -0.0935  0.0203 -0.0562
24587W        W40481  13.904  15.538   2.569  0.3637  0.0324  0.2960
24588W        W40482  10.110   4.936  12.407  0.0386  0.1220 -0.2353
24589W        W40483  13.674   8.984   3.721  0.1600  0.0435  0.3190
24590W        W40484   3.131   3.948  15.745 -0.5490 -0.1196  0.1334
24591W        W40485  13.906   8.258   4.335 -0.0812  0.0916  0.0661
24592W        W40486   5.729  13.367   2.628 -0.0617 -0.0125  0.0350
24593W        W40487  11.524  11.009  15.935 -0.0966 -0.1924 -0.5255
24594W        W40488  15.892   3.723   5.215 -0.1904 -0.0299 -0.2506
24595W        W40489   0.072   8.431   2.090 -0.1297 -0.2655 -0.0143
24596W        W40490  12.910   8.386   2.019 -0.0650  0.0270  0.0742
24597W        W40491   5.265   3.854  13.503 -0.0308 -0.2033 -0.1744
24598W        W40492  17.161   3.282   3.698 -0.3714  0.0487 -0.3129
24599W        W40493   1.329  17.312  11.193  0.0988 -0.0047  0.0212
24600W        W40494   1.656  15.036   3.813 -0.0333 -0.1525 -0.2418
24601W        W40495   3.352   9.368  13.100 -0.1735 -0.0590 -0.2797
24602W        W40496  10.333  12.456   3.701  0.0362  0.0009  0.0981
24603W        W40497  15.347  10.470   3.988 -0.2118  0.1725  0.0910
24604W        W40498   2.454  15.022   4.610 -0.1114 -0.1586  0.0905
24605W        W40499  10.488   6.248   3.282  0.0284  0.0281 -0.2586
24606W        W40500   5.749   5.217  12.283 -0.1173  0.1196 -0.2277
24607W        W40501  12.392  11.652  11.790  0.0981 -0.1048  0.2501
24608W        W40502  10.097   3.529   0.267 -0.0632 -0.0061  0.3368
24609W        W40503   2.651   4.667  11.279  0.1184 -0.1483  0.1957
24610W        W40504   5.167   6.177  11.394 -0.0995 -0.1721 -0.0232
24611W        W40505   2.682   6.281  15.031  0.2343 -0.2512 -0.1226
24612W        W40506   4.362   7.263   4.368  0.0283 -0.1133  0.2365
24613W        W40507  14.758   0.627  15.824  0.0337  0.2543  0.1515
24614W        W40508  11.208  15.797  11.208  0.1854  0.0089 -0.0662
24615W        W40509  17.724   8.422  15.839  0.5174  0.1812  0.0612
24616W        W40510   3.173  15.154  12.993  0.0285  0.2657  0.1346
24617W        W40511  15.699   6.356   4.852  0.1445  0.0190 -0.0740
24618W        W40512   0.726  16.359   1.800  0.1866  0.2996  0.0778
24619W        W40513   2.955   6.976   0.151  0.2740 -0.2411 -0.4189
24620W        W40514  12.857   6.739  11.954  0.2666  0.4663 -0.0385
24621W        W40515   5.521  17.743  11.569  0.2528  0.0262 -0.0992
24622W        W40516   2.664   9.245   5.819 -0.0267  0.3619  0.2225
24623W        W40517   5.121  16.900  12.830 -0.3171 -0.2514 -0.0458
24624W        W40518  13.674  13.431   1.101 -0.1105  0.0322 -0.3123
24625W        W40519   1.424  16.530   4.231 -0.0287 -0.3754  0.1571
24626W        W40520  11.679  15.659  10.902  0.0164  0.1781 -0.0509
24627W        W40521   6.783   3.827   1.799 -0.1562  0.0592  0.2955
24628W        W40522   6.634   7.762   1.163 -0.0830  0.0551  0.0367
24629W        W40523  12.645  14.285   1.115  0.2332 -0.1092 -0.1196
24630W        W40524   1.503   3.137  11.959 -0.0353  0.0063  0.2333
24631W        W40525  11.129   6.462  14.231 -0.1126  0.0540  0.4129
24632W        W40526  12.988   0.527  11.827 -0.3294  0.1259 -0.2620
24633W        W40527  13.282   9.188  13.608 -0.2588  0.1626  0.0529
24634W        W40528   1.969   3.426   3.060  0.1544  0.0859  0.2027
24635W        W40529  18.329  12.157  16.003 -0.0860 -0.0208  0.3751
24636W        W40530   9.303  12.114  15.793 -0.1722  0.1301  0.0126
24637W        W40531  16.814   5.093   0.015 -0.2829 -0.1142  0.1037
24638W        W40532   2.496   2.302   1.576  0.2199 -0.2172 -0.1016
24639W        W40533   8.814  12.614   1.659 -0.2091 -0.2476 -0.0002
24640W        W40534   3.323  15.776   2.453  0.6535 -0.0404  0.2870
24641W        W40535   8.550  18.271  15.809  0.3372 -0.1898  0.2651
24642W        W40536  16.862   2.344  14.933 -0.0223 -0.0133  0.0496
24643W        W40537  17.356   0.212   4.537  0.1729 -0.0725 -0.1107
24644W        W40538  15.173  17.699   1.261 -0.2631 -0.0590  0.0405
24645W        W40539  16.358   1.793   0.662 -0.2748  0.0272  0.2400
24646W        W40540  10.215   2.188  14.420  0.0945 -0.0115 -0.3548
24647W        W40541  15.937  12.757   1.189 -0.3870  0.0491  0.2693
24648W        W40542   4.758   1.124   4.693  0.0632 -0.2903  0.1416
24649W        W40543   5.456   5.494   3.342  0.0831  0.3701  0.1945
24650W        W40544   4.385  12.728  15.202  0.2553 -0.3002 -0.1766
24651W        W40545   5.391   2.899   1.021 -0.0720 -0.1530  0.2434
24652W        W40546  16.782  14.256   2.678 -0.0422  0.1682  0.0307
24653W        W40547   6.576   3.889  15.540 -0.4540  0.0378  0.2510
24654W        W40548  15.442   7.011  13.894  0.0479 -0.1030  0.0181
24655W        W40549   0.680   6.014   5.083 -0.1300  0.0154 -0.2674
24656W        W40550  16.522  17.440   3.536  0.0026 -0.0078 -0.1059
24657W        W40551   0.607   1.588  13.398  0.1035  0.3476  0.1981
24658W        W40552  17.870  16.519  12.563  0.1844  0.1019 -0.0073
24659W        W40553   5.343  15.225   4.879  0.2521 -0.3154 -0.0169
24660W        W40554  12.235   6.614  15.539 -0.0202  0.2933  0.1119
24661W        W40555  11.360   4.295   3.131  0.1349 -0.1000 -0.1454
24662W        W40556  16.296   1.851  14.275 -0.1628 -0.1944  0.0043
24663W        W40557  18.197   2.956  13.355 -0.1266  0.0810 -0.2565
24664W        W40558  15.241   9.671   5.913  0.0609  0.2486 -0.1064
24665W        W40559   5.101   6.391   1.443 -0.0397  0.1947 -0.1827
24666W        W40560   0.819  11.362  11.126  0.0659 -0.0458  0.2591
24667W        W40561   3.298   3.669  13.052 -0.1714  0.2678  0.3174
24668W        W40562   8.834   9.407  14.116 -0.0422 -0.1349  0.1928
24669W        W40563  15.688  16.465  15.947 -0.2772 -0.2357  0.0675
24670W        W40564  18.345   7.237  13.552  0.0859  0.2542 -0.1722
24671W        W40565   5.186  12.448   3.818 -0.0908 -0.3115 -0.2171
24672W        W40566  15.514   6.227  15.395 -0.2629 -0.1466  0.2164
24673W        W40567   4.595   5.137   4.606 -0.0301 -0.1118 -0.0406
24674W        W40568  16.197   3.595   1.921  0.1230  0.2168  0.1207
24675W        W40569   2.820   9.991  13.722 -0.2070  0.0922 -0.1771
24676W        W40570   8.218   1.162   4.002 -0.0990 -0.2030 -0.3415
24677W        W40571   2.336  18.427   4.797 -0.0982 -0.1248 -0.1293
24678W        W40572  18.195   1.868   4.343  0.1171  0.0961  0.2514
24679W        W40573   3.625   8.250  15.776  0.1829  0.3141  0.2133
24680W        W40574  14.755   8.133  13.242 -0.2514  0.0993 -0.1523
24681W        W40575  12.343  13.502   3.070 -0.1027  0.0453  0.2281
24682W        W40576   7.513  15.405   6.270  0.0496 -0.1004  0.2742
24683W        W40577   9.945  10.045   0.537 -0.2711 -0.2864  0.0286
24684W        W40578   3.437   2.774  13.975  0.1866  0.0939  0.2836
24685W        W40579  18.453   5.980   0.863 -0.0922  0.0220 -0.1851
24686W        W40580  11.694  12.527   5.956  0.0191 -0.0111  0.1553
24687W        W40581   0.157   7.446  15.852  0.2084 -0.2279 -0.3022
24688W        W40582   5.932  17.610  15.236  0.0875  0.1628 -0.1214
24689W        W40583   3.735   6.745  14.264 -0.1191  0.1401  0.0872
24690W        W40584   6.416  15.577   1.875  0.1441  0.1237 -0.0127
24691W        W40585   8.976   7.021  14.864 -0.0957  0.0332 -0.2183
24692W        W40586   3.278  11.532   1.822  0.2054  0.1405  0.0160
24693W        W40587  16.453  15.519  14.810  0.0055 -0.1618 -0.1949
24694W        W40588  14.187   0.781   2.816  0.0654 -0.1671  0.0827
24695W        W40589   4.994  17.500   2.672  0.3295  0.3363 -0.0739
24696W        W40590   5.220  11.044  15.519 -0.1019 -0.0744  0.1081
24697W        W40591   6.604  14.090   0.040 -0.0701 -0.0341 -0.0389
24698W        W40592   3.525  11.302  14.016 -0.0453  0.1508 -0.0189
24699W        W40593  16.327   7.246  12.786 -0.2415  0.3074  0.3179
24700W        W40594   3.695   9.899  14.013 -0.0329  0.2270  0.0655
24701W        W40595  14.866   5.819  16.037 -0.0708  0.2170  0.2650
24702W        W40596   3.080   1.821   5.065 -0.1372 -0.0705  0.2013
24703W        W40597  12.599   1.195   4.165  0.1105  0.0437  0.0560
24704W        W40598  17.040   6.376   1.207  0.2357  0.1773 -0.0340
24705W        W40599   7.149  11.980   4.801  0.0711  0.3360  0.0794
24706W        W40600   1.926  17.350  13.578 -0.0348  0.1485 -0.0356
24707W        W40601   7.314   7.653   3.536 -0.1113  0.1670  0.0454
24708W        W40602  10.969   2.590   3.230 -0.0829  0.0140  0.1203
24709W        W40603   9.018  15.476  15.185  0.2341  0.0230 -0.1509
24710W        W40604   6.371  15.562  12.822 -0.0476 -0.0904  0.0922
24711W        W40605   0.794  18.361  14.884  0.0206 -0.0892 -0.2577
24712W        W40606   5.733  14.915   5.049 -0.2437 -0.0703  0.0136
24713W        W40607   0.437  12.081  15.878  0.0345 -0.1022 -0.0821
24714W        W40608   9.613   7.039   5.998  0.0759 -0.2052  0.0435
24715W        W40609  16.808   5.975   3.280 -0.1788 -0.0364  0.3519
24716W        W40610   4.436   3.148   2.888 -0.1996 -0.0035  0.2415
24717W        W40611   9.147   5.846  12.818 -0.0228 -0.1134  0.1421
24718W        W40612   6.659  11.389   5.214 -0.0678  0.0703 -0.2914
24719W        W40613   0.163  15.722  11.088 -0.0063  0.0607  0.0904
24720W        W40614  10.209   6.687  12.393 -0.3349 -0.1676  0.0537
24721W        W40615  15.740   4.318  14.072 -0.0187  0.0042  0.1731
24722W        W40616   5.974   8.070   3.583 -0.0495 -0.0795 -0.7308
24723W        W40617   7.114  12.955  14.578  0.0606  0.0578  0.1146
24724W        W40618   4.610  11.631  13.414  0.0550  0.2984 -0.0507
24725W        W40619  14.221  13.177   3.167 -0.2695 -0.0534 -0.0696
24726W        W40620   1.437  17.163   1.618 -0.1404  0.1716  0.0141
24727W        W40621  15.553   1.051   1.634  0.0816 -0.1867 -0.4351
24728W        W40622   2.494   3.352  12.191  0.1295  0.0617  0.0726
24729W        W40623   2.094   5.022   1.314  0.0647  0.0695  0.4945
24730W        W40624   8.451   8.100   5.564 -0.1356 -0.2870 -0.3707
24731W        W40625  11.723  11.307  15.468  0.0781 -0.0430  0.0779
24732W        W40626  18.034  17.451  11.625 -0.0740 -0.2325  0.1847
24733W        W40627  11.869  16.066   0.593  0.2455  0.2369  0.2130
24734W        W40628   7.484  18.257   4.366 -0.1079  0.2043  0.0147
24735W        W40629  11.270   0.135   1.542 -0.1534  0.4599  0.2106
24736W        W40630   2.432   4.122   3.564  0.1395 -0.0552  0.5783
24737W        W40631  12.014   2.894  13.562 -0.0342  0.4852  0.1261
24738W        W40632  17.966   0.439  14.270  0.1070  0.1072  0.0004
24739W        W40633   8.000   9.533   4.142  0.0625  0.2437 -0.0696
24740W        W40634   1.346  14.244  12.910  0.1155  0.1368 -0.0120
24741W        W40635   6.791   1.580   0.054 -0.0101 -0.3014 -0.0751
24742W        W40636  17.978  11.522   1.058  0.1785  0.0441  0.2630
24743W        W40637  10.378   6.766  11.717 -0.0142 -0.2366  0.1947
24744W        W40638  12.988   1.588   2.489  0.0720 -0.0605 -0.0126
24745W        W40639  17.412   0.544  12.717  0.0960 -0.1573  0.4083
24746W        W40640   5.939   6.658   0.480 -0.2193 -0.0589  0.0137
24747W        W40641  10.330   0.062  12.385  0.1412 -0.0163 -0.1189
24748W        W40642   9.981   0.805   1.141 -0.0043  0.2530  0.2786
24749W        W40643   7.279  10.823   3.180  0.1073  0.0614  0.1766
24750W        W40644  14.980  15.833  11.119  0.0950  0.3989 -0.1374
24751W        W40645   8.583  10.391  14.061 -0.2594 -0.0636 -0.0204
24752W        W40646   7.975  16.871  13.695 -0.1650 -0.1391  0.0800
24753W        W40647   7.279  17.302  15.321  0.1635  0.0373 -0.0830
24754W        W40648  14.341   6.337   1.123 -0.1495 -0.1160 -0.3937
24755W        W40649   0.694   6.963  15.241 -0.1834 -0.1765  0.0161
24756W        W40650  15.452   2.578   2.925  0.2184 -0.0745  0.2781
24757W        W40651   5.836  11.372  11.566 -0.0591 -0.0207  0.1906
24758W        W40652  11.175   6.296   6.034 -0.0682  0.3089 -0.0947
24759W        W40653   8.065  14.306   3.526 -0.1703 -0.1258 -0.0828
24760W        W40654  13.479  14.972  13.440 -0.1538  0.0604 -0.1053
24761W        W40655   3.485   7.492  11.845  0.0499  0.3319  0.1822
24762W        W40656   4.140  15.119   0.173  0.2619  0.1829 -0.0306
24763W        W40657  13.338  16.914   2.421  0.0759 -0.0362  0.1268
24764W        W40658   4.134  14.966  13.550 -0.0650 -0.0771  0.0625
24765W        W40659  14.268   6.891   3.647 -0.3205 -0.1587  0.1160
24766W        W40660  16.513  11.244  15.541  0.2754  0.0667  0.0121
24767W        W40661   5.309   3.032   0.234 -0.0148 -0.0157 -0.1150
24768W        W40662  13.939  13.824  11.020 -0.0313 -0.2411  0.0288
24769W        W40663  10.596   4.716   5.548 -0.2363  0.1284 -0.2692
24770W        W40664   9.013   7.195   5.302  0.1381 -0.1613  0.1901
24771W        W40665  10.478   8.059  12.715  0.1077  0.0867  0.0352
24772W        W40666  16.736   4.838   4.790 -0.0229  0.1098 -0.1502
24773W        W40667   0.210   6.726   5.209  0.0591  0.1702  0.0036
24774W        W40668   5.285   1.241  14.968  0.0264  0.0763 -0.0793
24775W        W40669   7.546   6.167  13.740 -0.0658 -0.0603  0.0304
24776W        W40670   1.865   8.544  14.127  0.3222 -0.0474 -0.2133
24777W        W40671  10.457   5.453   3.366 -0.0259  0.1021  0.0410
24778W        W40672  12.235   7.060   3.769 -0.2722 -0.0121  0.0306
24779W        W40673   0.958   7.725  13.608  0.3913  0.3215  0.1367
24780W        W40674   8.321   4.879   0.574 -0.2042 -0.2251  0.0972
24781W        W40675   6.116   0.105   3.706  0.3043 -0.0668  0.0958
24782W        W40676  16.772  17.780   1.217  0.2557  0.1102  0.0453
24783W        W40677  11.481  17.980   5.237  0.0053  0.1046  0.0638
24784W        W40678  16.598   5.637   3.757 -0.1246 -0.1120  0.0824
24785W        W40679  11.939   9.110  13.881  0.2681  0.0857  0.1080
24786W        W40680   3.170  16.648  14.031  0.2364 -0.0084  0.1102
24787W        W40681   0.025  15.113  15.249 -0.0059  0.3762  0.0008
24788W        W40682   3.056   3.046  12.458 -0.1056 -0.0168 -0.1608
24789W        W40683   8.772  10.674  12.898  0.2418  0.2083  0.0478
24790W        W40684   3.937  12.298  11.187  0.2394  0.1052  0.0336
24791W        W40685  15.432   8.735   5.062 -0.1459 -0.2244 -0.1948
24792W        W40686   1.251  11.303  12.973  0.1030 -0.0885 -0.3014
24793W        W40687   1.802  17.185  15.420 -0.2047  0.1121 -0.2506
24794W        W40688   6.347   7.456   4.199 -0.1890 -0.0681 -0.2566
24795W        W40689   2.779  14.161   1.903  0.0192 -0.3173 -0.2436
24796W        W40690   9.460  12.969  13.128  0.0088  0.0706  0.0231
24797W        W40691   2.478   2.646  12.904  0.2460  0.1257 -0.1020
24798W        W40692   3.221  15.758  15.843  0.3492 -0.1114 -0.2393
24799W        W40693   5.500  10.952  15.079  0.1291 -0.0017  0.2710
24800W        W40694   0.035  10.097  11.557  0.0352 -0.0102 -0.1850
24801W        W40695  18.420  10.617  11.863 -0.1900 -0.1187  0.3159
24802W        W40696  14.426   2.379   3.253  0.1232 -0.0680 -0.1019
24803W        W40697  14.717  18.158   6.601 -0.3802 -0.3200  0.2770
24804W        W40698  15.351   8.155  13.916  0.0684  0.1844 -0.0250
24805W        W40699  12.962  11.647   2.248  0.1580  0.0787 -0.2238
24806W        W40700   5.490  10.541   5.784 -0.1887 -0.2884 -0.0149
24807W        W40701  10.046   3.362  13.123  0.2165 -0.1506  0.0033
24808W        W40702  10.100  13.260  10.276  0.1846 -0.2495  0.1821
24809W        W40703  16.412  17.038   4.448 -0.0148  0.1097 -0.2339
24810W        W40704  16.969  16.248   2.005 -0.1665 -0.1266  0.2413
24811W        W40705  18.359   4.279   1.974  0.1684  0.2481 -0.3029
24812W        W40706  13.825  11.876   2.780 -0.3029  0.0855  0.1457
24813W        W40707  14.525   5.603   3.146  0.0801 -0.4150 -0.0529
24814W        W40708  11.162  16.276   4.253 -0.2137 -0.1076 -0.1993
24815W        W40709   2.802   5.353  12.293  0.0698  0.4859  0.1356
24816W        W40710  10.222   4.631  13.261 -0.3608 -0.2510  0.1684
24817W        W40711   5.066  14.843  13.594 -0.0929 -0.1800  0.0895
24818W        W40712  15.886  16.699  13.086 -0.0345  0.4017  0.0014
24819W        W40713   2.365  17.027  11.119  0.2073 -0.1655 -0.0294
24820W        W40714   6.034   4.407   3.084  0.1640  0.1887 -0.1235
24821W        W40715  12.698  13.176  10.958  0.1392  0.1487 -0.3324
24822W        W40716   4.203   0.493   5.296  0.0968 -0.1206  0.1520
24823W        W40717   6.644  14.456   2.652 -0.3653  0.0345 -0.3308
24824W        W40718  14.885  12.964  11.901  0.1308 -0.1662 -0.3097
24825W        W40719   3.348   9.402  13.553 -0.1845 -0.2857  0.1206
24826W        W40720  17.157  17.116   2.247  0.0268  0.0205  0.2692
24827W        W40721  11.244   6.621   2.711  0.0376 -0.0079  0.2899
24828W        W40722  12.146   6.344   0.661 -0.1378 -0.2045  0.1014
24829W        W40723   3.651  11.210  14.496  0.2407  0.1420 -0.4583
24830W        W40724   4.131  11.148   1.962  0.2049 -0.1180  0.1439
24831W        W40725   3.520  17.694   2.747  0.0407  0.0050  0.1168
24832W        W40726  17.635   8.605  11.750 -0.1764  0.5476 -0.0835
24833W        W40727  10.927  10.933   5.330 -0.0925  0.1065 -0.0646
24834W        W40728   2.544  13.618   4.518  0.0046  0.0527 -0.0336
24835W        W40729  10.677   3.821  13.722  0.0626  0.0330 -0.0270
24836W        W40730   0.989  14.526  11.430 -0.0488 -0.1292 -0.0717
24837W        W40731   5.040  17.261  12.533  0.0435 -0.0576  0.1424
24838W        W40732   5.700  11.309  15.871 -0.1515  0.0273 -0.0278
24839W        W40733  18.131   1.924  13.026 -0.0245  0.2049 -0.0761
24840W        W40734  15.978  15.691  10.912  0.2962  0.1943 -0.2445
24841W        W40735  15.009   6.621   2.211  0.1957  0.1033 -0.3895
24842W        W40736   5.370   6.587  13.630 -0.0345 -0.1856 -0.1735
24843W        W40737  13.020  17.835   3.745 -0.0028 -0.1308 -0.1933
24844W        W40738  15.519  13.483   0.627  0.0699 -0.1545  0.0581
24845W        W40739   6.600   4.413  13.662 -0.3826 -0.1026 -0.0390
24846W        W40740  13.305   3.850  15.005  0.2789  0.2333  0.0163
24847W        W40741  15.187   5.119   4.841 -0.3295  0.1659  0.0985
24848W        W40742   3.925  12.681  16.051 -0.1897  0.1175  0.0819
24849W        W40743  13.762   3.664   1.706 -0.0080 -0.1211  0.3230
24850W        W40744   1.761  13.153   2.163 -0.3059 -0.1784 -0.2648
24851W        W40745  11.093  11.582   3.684  0.0809 -0.1483  0.2445
24852W        W40746   8.049   1.783  10.314  0.0089 -0.0912  0.3136
24853W        W40747  13.169   6.549   4.771 -0.1002  0.0056  0.2877
24854W        W40748   3.335   3.914  12.616  0.0191  0.2246  0.1894
24855W        W40749  17.471   4.159  13.333  0.0099  0.3738  0.0916
24856W        W40750   1.310   5.285   4.058 -0.1721 -0.0197 -0.4070
24857W        W40751   4.280  16.749   4.838  0.1727 -0.2466 -0.2430
24858W        W40752   9.479   2.211  14.987  0.2392 -0.4211  0.0183
24859W        W40753  14.727  16.199   3.396  0.3386  0.0714  0.1902
24860W        W40754  10.878   6.325   0.225  0.2932 -0.2196  0.2068
24861W        W40755   9.028   4.830  13.925  0.0902  0.2601  0.0257
24862W        W40756   5.250   0.398   1.112  0.0547 -0.1266  0.0455
24863W        W40757   7.573  12.745  12.464  0.2303  0.1275  0.1848
24864W        W40758  10.216  12.569   2.802 -0.2236 -0.1976  0.0310
24865W        W40759  13.634  16.532  13.284  0.2716  0.2312  0.1519
24866W        W40760   9.073  13.589   3.111 -0.0217 -0.2135 -0.2154
24867W        W40761   8.265   3.723  11.308  0.0392  0.0206  0.0282
24868W        W40762  18.303   1.815   5.686  0.4641  0.1382  0.0572
24869W        W40763   4.241  17.441  13.327 -0.1433  0.0895 -0.2194
24870W        W40764   4.488  17.055   3.405  0.3817 -0.0728  0.2471
24871W        W40765   1.896   9.943  11.992 -0.1183 -0.0821  0.2337
24872W        W40766  12.668   6.776   3.169  0.0685 -0.2559 -0.0171
24873W        W40767   0.162   3.166   2.749 -0.3785 -0.1416 -0.1174
24874W        W40768  15.488  14.648   1.368  0.3490 -0.1660 -0.0119
24875W        W40769  10.771   0.755   3.872  0.1481 -0.3010 -0.0693
24876W        W40770   4.841  16.715   1.282 -0.0862 -0.4222  0.0024
24877W        W40771   0.587   9.817  14.157 -0.1139 -0.0329 -0.0132
24878W        W40772   1.832  18.324  12.944  0.0169 -0.0132 -0.0091
24879W        W40773  11.552   0.568   0.736  0.0115  0.0001  0.1560
24880W        W40774  18.265   4.776   0.191 -0.0899  0.0409 -0.0626
24881W        W40775  17.283   5.875   0.309  0.2657 -0.1567  0.0400
24882W        W40776  13.789  13.094   5.326 -0.0228  0.0406 -0.0237
24883W        W40777   2.687   6.598   2.782 -0.1701 -0.0150  0.2578
24884W        W40778  11.647   9.599  11.594  0.1308  0.0343 -0.0138
24885W        W40779   9.479  15.847   4.307 -0.0792  0.0620 -0.2853
24886W        W40780  11.577  16.533  14.805  0.2172  0.3942  0.0669
24887W        W40781   9.995   7.288   0.799  0.0879  0.1414  0.0453
24888W        W40782   0.867   6.786   2.400  0.1010  0.1392 -0.0282
24889W        W40783   6.409   8.430   5.553  0.0833 -0.0718  0.0476
24890W        W40784  17.077   0.810  15.380  0.2914  0.4226  0.1686
24891W        W40785  11.422  13.855  15.089  0.0887 -0.1766  0.0098
24892W        W40786   8.059  17.626  14.791 -0.0458  0.1142  0.2674
24893W        W40787  14.926  10.174   2.128 -0.0702 -0.0753 -0.1011
24894W        W40788   1.470  13.054  13.275  0.0039 -0.0520 -0.0914
24895W        W40789  12.265   3.442   3.948  0.3631 -0.2094  0.0849
24896W        W40790   2.568  10.372  12.566  0.1037 -0.3745  0.0594
24897W        W40791   3.992  17.280  15.570 -0.1420 -0.1366  0.1072
24898W        W40792  12.953  11.036  13.406 -0.2596  0.0734  0.0505
24899W        W40793  17.153   0.381   1.234  0.0370  0.0426  0.2879
24900W        W40794  12.177   0.032   5.155  0.0335 -0.0559  0.2842
24901W        W40795  10.108   6.460  13.566  0.1314 -0.0998  0.0280
24902W        W40796   6.684   0.930  12.565 -0.4777  0.0750  0.0299
24903W        W40797  11.023   3.330  14.685 -0.2874  0.0003  0.1297
24904W        W40798  10.528  16.579  14.195 -0.1131 -0.1233 -0.6134
24905W        W40799   3.577   1.177   0.797  0.0791  0.3243  0.0495
24906W        W40800   5.025   3.076   2.775  0.1673  0.1255 -0.0733
24907W        W40801   4.477   1.143   3.643 -0.1740  0.2349 -0.0957
24908W        W40802  12.320  16.559  14.670 -0.1857 -0.0260  0.3365
24909W        W40803  12.332  11.909  13.491  0.0819  0.0025 -0.0721
24910W        W40804  12.875  16.430   3.358  0.2229  0.2292 -0.2299
24911W        W40805  10.449  17.172   4.319  0.1297 -0.1890 -0.1013
24912W        W40806   4.427   7.201   1.155  0.0276  0.0168  0.0037
24913W        W40807   5.071  11.831  14.290 -0.1545 -0.1015 -0.0009
24914W        W40808   3.564  11.058   1.817 -0.1778  0.3516  0.0647
24915W        W40809   9.458   3.432   4.197  0.2727 -0.0413 -0.1271
24916W        W40810   1.808   5.558   1.400  0.2869 -0.1866  0.1170
24917W        W40811  10.153  10.432   4.102  0.0431 -0.0748 -0.0205
24918W        W40812   6.377  17.233   4.268 -0.3178 -0.0033  0.0767
24919W        W40813   9.448  17.397   1.012  0.1193  0.0509 -0.1117
24920W        W40814   9.621   7.412  11.904 -0.1154 -0.2509  0.2149
24921W        W40815  11.378   3.717   3.013 -0.2951 -0.3796 -0.0274
24922W        W40816  14.763  10.306  15.145  0.3357  0.0803 -0.1411
24923W        W40817   3.944  13.289  11.050  0.2545 -0.0578 -0.0324
24924W        W40818  15.826   6.955   1.786 -0.3287 -0.0456  0.0449
24925W        W40819   8.684   2.063  14.467 -0.0810  0.0008  0.0341
24926W        W40820   3.760   4.821   4.772 -0.3926 -0.0474  0.2150
24927W        W40821   0.858  15.480  15.241 -0.0928  0.2882 -0.0528
24928W        W40822   2.169   1.937  15.834 -0.0025  0.1875 -0.0931
24929W        W40823  13.199  17.624  14.746  0.0198 -0.0350 -0.1801
24930W        W40824  12.455   7.653   5.086 -0.0236 -0.1004 -0.1124
24931W        W40825   5.149   7.579  11.924  0.1750 -0.2204  0.0355
24932W        W40826  15.570  11.783  15.748 -0.2994  0.0750  0.2329
24933W        W40827  17.785   1.987   3.553  0.0601  0.0772 -0.1199
24934W        W40828  11.285   2.312   6.070  0.0783  0.0166  0.0440
24935W        W40829  12.499  15.539  14.343  0.1704 -0.1105  0.2015
24936W        W40830   6.981   5.362  13.221 -0.3478 -0.0153  0.0326
24937W        W40831   0.971  10.951   1.962 -0.1263 -0.0540  0.1669
24938W        W40832  16.092  14.769   3.114  0.1384  0.3784  0.1460
24939W        W40833   5.147   8.339  14.056  0.0846  0.3278  0.2937
24940W        W40834   4.970  10.136   3.568  0.1504 -0.1386  0.3232
24941W        W40835  16.322  10.930   4.695  0.3238 -0.0314  0.1596
24942W        W40836   0.780   3.474   3.479  0.1083  0.2379 -0.2584
24943W        W40837   2.731  15.123  15.699 -0.1821  0.0621 -0.0688
24944W        W40838   8.245  15.730  10.057  0.3419 -0.0012 -0.0121
24945W        W40839   8.732   6.654  11.540  0.1240 -0.2744 -0.2543
24946W        W40840   3.142  10.737   4.785 -0.3851  0.0780 -0.1782
24947W        W40841  18.438  14.019   5.066 -0.1854 -0.1760  0.1427
24948W        W40842   6.902  11.829  11.299  0.3336  0.1579  0.0864
24949W        W40843  18.203   0.797  14.825  0.3200 -0.0269  0.2681
24950W        W40844   2.537  11.953   4.012  0.1394 -0.0409  0.0535
24951W        W40845  12.354   2.931   0.767  0.2276 -0.0357  0.3675
24952W        W40846   3.970   5.176  10.819 -0.0825 -0.2803  0.4758
24953W        W40847  14.720  12.295   3.616 -0.0508  0.0859 -0.1338
24954W        W40848  15.142   4.623   1.582 -0.2909 -0.1487  0.2217
24955W        W40849   5.950   0.609   4.596 -0.2046 -0.1129  0.0089
24956W        W40850   4.471   7.832  14.661  0.3460  0.0232  0.1491
24957W        W40851   4.387   5.211   4.141 -0.0248 -0.3704 -0.0382
24958W        W40852  15.651  13.530  11.744 -0.1100 -0.0112  0.1281
24959W        W40853   9.284  10.602   0.428 -0.3416  0.1077  0.1770
24960W        W40854  14.603   9.656   2.486 -0.0888 -0.0171  0.0981
24961W        W40855  10.397   2.257   2.298  0.0784 -0.0298  0.3784
24962W        W40856  16.444  18.139   1.352  0.1629 -0.1783  0.1474
24963W        W40857   8.701   6.903   0.156 -0.1556 -0.1429 -0.0168
24964W        W40858  12.884   7.251   4.266 -0.2589 -0.1169  0.0257
24965W        W40859  18.255  11.476   4.532  0.0328 -0.0897  0.3700
24966W        W40860  17.173   3.761  16.010  0.2230 -0.1296 -0.1919
24967W        W40861   6.625  16.027  10.986 -0.0459 -0.1084  0.0551
24968W        W40862   0.466  18.330   3.151  0.2891 -0.0364  0.3589
24969W        W40863  14.338   5.476  11.951 -0.0900 -0.0368 -0.3652
24970W        W40864   6.360   6.315   5.150  0.0204  0.0941  0.0201
24971W        W40865  10.217   8.745   1.942 -0.1509 -0.3637  0.0797
24972W        W40866  12.813   3.743   1.759 -0.2312 -0.2089 -0.1758
24973W        W40867  16.079  12.141   3.487  0.0822  0.2199 -0.0666
24974W        W40868   2.647   9.292   1.036 -0.1882 -0.1320 -0.1721
24975W        W40869  13.346   3.991  15.523 -0.4350 -0.0763 -0.2061
24976W        W40870   3.511  14.596   4.514 -0.1134 -0.1573  0.2730
24977W        W40871  13.799  15.434   5.298  0.4130 -0.2088 -0.0125
24978W        W40872   6.179   9.853   1.663  0.3371  0.0218  0.0987
24979W        W40873   3.596  11.033  13.042  0.0875  0.0384  0.2305
24980W        W40874  11.910  16.377   1.490 -0.0047 -0.3187 -0.0221
24981W        W40875  14.895   0.574  12.671  0.2562  0.0935  0.4121
24982W        W40876  17.972   7.192   2.535  0.0456 -0.0567  0.0050
24983W        W40877  16.862  17.626  15.239 -0.0029 -0.0300  0.0758
24984W        W40878   6.752  15.543  12.516 -0.0372  0.4909 -0.0219
24985W        W40879   2.222  12.984   2.115 -0.0632  0.0799  0.2774
24986W        W40880   7.208  18.467  15.299 -0.1913  0.0293 -0.1495
24987W        W40881   7.318  11.429   4.633 -0.1627  0.3041  0.0832
24988W        W40882   2.142  16.336   5.511 -0.1085 -0.1911  0.1928
24989W        W40883  12.100  10.762   0.495  0.0988  0.0195  0.1013
24990W        W40884   9.318   3.648   5.259  0.4572 -0.1452 -0.1692
24991W        W40885  13.827  12.274   3.267  0.0733 -0.0257  0.2813
24992W        W40886   9.838  11.244   1.619 -0.1595  0.1514  0.1699
24993W        W40887  12.026  15.049  13.648 -0.0817 -0.1868 -0.1572
24994W        W40888  11.785   4.714  16.063  0.2045 -0.2931  0.0353
24995W        W40889   2.709   8.512  14.381 -0.1003  0.0840 -0.0868
24996W        W40890   3.327  17.974   4.854  0.0496 -0.2033  0.0373
24997W        W40891   5.183   3.576  14.999 -0.0942  0.1936  0.2285
24998W        W40892  14.003  13.436  15.453 -0.1165  0.2499  0.1908
24999W        W40893   2.188   4.404  11.405  0.0145 -0.0960 -0.1003
25000W        W40894  13.580  12.339   0.128  0.1415 -0.0502  0.3056
25001W        W40895   6.309  17.967  14.365  0.3793 -0.0309 -0.0241
25002W        W40896  11.567  17.907   0.457  0.1365 -0.1383  0.1364
25003W        W40897  17.587  10.988   2.809 -0.0006  0.0162 -0.0263
25004W        W40898  10.776  15.131  12.185  0.1390  0.1732  0.0426
25005W        W40899  12.160   9.859   0.020  0.0695 -0.0774 -0.3005
25006W        W40900   1.581   8.719   2.069  0.1341  0.2491 -0.4420
25007W        W40901  15.126  10.939   1.754 -0.0561 -0.2246 -0.3828
25008W        W40902  13.156  17.789  13.083 -0.0525  0.1595 -0.0856
25009W        W40903   1.332  17.356   3.200 -0.2575  0.0173  0.2147
25010W        W40904  11.766  14.140   4.437  0.1432  0.0639  0.0523
25011W        W40905   7.846  12.600   1.636 -0.1364  0.3611  0.2887
25012W        W40906   6.018  14.636  10.800  0.0340 -0.0706  0.5503
25013W        W40907   7.172  14.196  11.310 -0.2302 -0.1442  0.0007
25014W        W40908   6.217  13.931  13.370 -0.2106 -0.0238  0.1706
25015W        W40909  14.123  12.465  12.840 -0.1219  0.0059  0.1979
25016W        W40910  11.542  18.056   4.201  0.0318  0.0616  0.0445
25017W        W40911  13.916  17.048   4.043 -0.1019 -0.1053 -0.0898
25018W        W40912   5.225   6.643  14.281  0.0780  0.0407 -0.0625
25019W        W40913   7.602   6.331  12.001  0.0155 -0.0197 -0.0278
25020W        W40914  15.324   8.842   3.911  0.2181 -0.0557  0.4792
25021W        W40915   4.689  13.958  14.958  0.1673  0.0444  0.2249
25022W        W40916   4.746   9.785   0.494 -0.0333 -0.1067 -0.0130
25023W        W40917   5.251  15.640   1.160  0.1900  0.2331 -0.1904
25024W        W40918   3.671   4.804   2.461  0.1224 -0.2878  0.2066
25025W        W40919   5.637  15.772  14.682 -0.2377  0.1122  0.2054
25026W        W40920  13.874  14.757  13.244  0.1891 -0.1874  0.1912
25027W        W40921   6.096  18.139  15.407 -0.3580  0.6689 -0.0754
25028W        W40922  17.414  16.714  12.658  0.0056 -0.0696  0.4412
25029W        W40923   2.326   8.006  12.255  0.2962 -0.3089 -0.2036
25030W        W40924   7.592  14.959  12.203 -0.2129  0.3371 -0.1615
25031W        W40925   9.137  13.868   0.295 -0.0637  0.0232  0.0289
25032W        W40926   7.405  11.853   0.211  0.1914 -0.0790 -0.2070
25033W        W40927  17.045  14.989  11.679  0.0561  0.1144 -0.0078
25034W        W40928  16.446  10.220  12.529  0.1153 -0.3278  0.5385
25035W        W40929  14.341  14.558   0.769  0.0338 -0.2494 -0.2903
25036W        W40930  17.922  10.260   3.542 -0.0702 -0.3297 -0.1539
25037W        W40931   1.391   4.147  12.447 -0.0652  0.2520  0.1669
25038W        W40932  10.157   9.126   2.339  0.0761 -0.0451  0.1965
25039W        W40933   6.776   7.525   0.659  0.0674  0.1597  0.0488
25040W        W40934  10.711   2.605   2.406  0.2108  0.1336 -0.0335
25041W        W40935  17.503   9.131   5.845  0.0258  0.0627  0.0034
25042W        W40936  15.916  13.256  13.104 -0.0423  0.2578  0.1226
25043W        W40937  17.049   2.059  12.681  0.1998 -0.1195  0.0746
25044W        W40938   7.921  10.665   1.367 -0.2907  0.1283  0.1119
25045W        W40939   4.643   2.860  12.619 -0.2395  0.0600  0.0803
25046W        W40940   8.915   5.978  12.101 -0.0563  0.0945 -0.3550
25047W        W40941  17.755  15.729   4.927 -0.0897 -0.1254 -0.0009
25048W        W40942  10.760   9.322   0.076 -0.2445  0.0273  0.0997
25049W        W40943   9.632   7.557  12.427  0.1265 -0.2768 -0.0938
25050W        W40944  17.821  15.549   3.645 -0.2690 -0.0654 -0.0063
25051W        W40945  15.498  18.347   4.778 -0.0707 -0.0216 -0.0484
25052W        W40946   8.324   7.920   0.796 -0.0245 -0.2745 -0.2850
25053W        W40947  10.805   4.380  15.539 -0.0951  0.0428 -0.2168
25054W        W40948  12.864   1.385   1.362  0.3602  0.2123 -0.0652
25055W        W40949  16.108   8.121   0.473  0.1279  0.1378  0.1730
25056W        W40950  10.740   3.549  14.309 -0.0549 -0.2645 -0.2296
25057W        W40951  15.970  16.316  13.662  0.0512 -0.2341 -0.0006
25058W        W40952  14.522  12.086  14.632  0.1196  0.2009 -0.0401
25059W        W40953  15.070  16.736  12.719 -0.4054 -0.0958 -0.1137
25060W        W40954   7.318   7.154  15.969 -0.1308  0.0500  0.1272
25061W        W40955   3.981  17.924   3.664  0.3220 -0.0749  0.0185
25062W        W40956  17.198   2.671   4.559 -0.2628 -0.3912  0.0926
25063W        W40957   4.999   4.183   1.740 -0.2079  0.1051  0.2969
25064W        W40958  15.658  17.321  13.784 -0.0384 -0.0058  0.0601
25065W        W40959   1.500  10.331   5.348 -0.0940  0.3212 -0.1720
25066W        W40960   6.640   7.993   1.574  0.1746 -0.0818 -0.2408
25067W        W40961   0.039   8.943   4.546 -0.0138 -0.2677  0.1541
25068W        W40962  15.877  18.038   0.243 -0.0356 -0.1142  0.4655
25069W        W40963  12.068   1.536  12.719  0.0184 -0.0096 -0.0125
25070W        W40964   2.730  11.746  11.201 -0.2070  0.0011 -0.2722
25071W        W40965   9.149  10.350   2.560  0.1929  0.3663 -0.0311
25072W        W40966   3.316   6.448  12.456  0.0468 -0.0329  0.0457
25073W        W40967   8.344  10.326   5.192  0.2492 -0.0897 -0.1175
25074W        W40968  17.489  17.290   1.837 -0.1095  0.0214  0.1641
25075W        W40969   6.002  13.897  10.035 -0.2247  0.1416 -0.1754
25076W        W40970  11.687   7.189   3.481  0.3099 -0.1362 -0.3668
25077W        W40971  18.186   8.851  12.582  0.0770  0.2587  0.0532
25078W        W40972  17.677  12.211   1.722  0.2224 -0.0158  0.5981
25079W        W40973   5.847   5.399   3.031  0.2696  0.3581 -0.4290
25080W        W40974   3.389   6.342   6.256  0.2200  0.0879 -0.0277
25081W        W40975  13.765  17.701  14.758  0.2416  0.1250  0.1332
25082W        W40976  17.552   1.125   5.369 -0.2529  0.1357  0.1342
25083W        W40977   6.935  18.406   4.482  0.0304 -0.0054  0.1550
25084W        W40978   1.570  10.811   4.449  0.0219 -0.1219  0.1473
25085W        W40979   9.830   6.457   4.678 -0.0226  0.0675 -0.1459
25086W        W40980  14.369   0.674   0.618  0.0015  0.1915 -0.1711
25087W        W40981   4.870   0.597  11.600 -0.0790 -0.1421  0.1351
25088W        W40982  12.779  14.346  12.223  0.1720  0.1134  0.0907
25089W        W40983   1.627   0.963   2.139  0.1879 -0.3479  0.1932
25090W        W40984  14.466   4.586   3.505  0.0003  0.0357  0.0399
25091W        W40985   5.702   5.063   1.405  0.1676 -0.1535 -0.2751
25092W        W40986   2.003  15.040  13.698 -0.1084  0.5377 -0.2213
25093W        W40987  15.677  17.316  11.830  0.2039  0.1125  0.0657
25094W        W40988   7.218   9.372   2.546 -0.0658 -0.4095 -0.0530
25095W        W40989   2.505  10.008   5.169 -0.0781  0.1293 -0.2031
25096W        W40990  12.651  12.679   4.591 -0.0200  0.0841 -0.2942
25097W        W40991  10.089  16.727  14.367  0.0420 -0.2813 -0.3664
25098W        W40992   9.012   0.418   2.841 -0.1992 -0.0027 -0.2845
25099W        W40993   3.522   4.259  13.699 -0.0984  0.1814  0.1505
25100W        W40994  13.448  17.713  11.011 -0.1104 -0.3932 -0.0187
25101W        W40995   2.938  17.191  16.092  0.1406 -0.1118 -0.0252
25102W        W40996   3.667   3.645  11.972 -0.2322  0.1257 -0.2988
25103W        W40997  16.396   7.436   0.696 -0.0097  0.1986 -0.1136
25104W        W40998  15.301   9.948   5.415 -0.2032 -0.1327 -0.3177
25105W        W40999  16.495  11.728  12.353  0.1121  0.4288 -0.2430
25106W        W41000   9.400  10.473   4.966  0.0615  0.1151 -0.0302
25107W        W41001  15.805  12.213   2.762  0.4064 -0.0870  0.2539
25108W        W41002   7.751  14.533  11.514  0.0043 -0.2121 -0.0017
25109W        W41003   9.118   0.886   2.757  0.0389  0.0132 -0.0027
25110W        W41004   9.527  15.119   2.714  0.0784  0.3172 -0.0493
25111W        W41005  14.428  13.361   2.222  0.1552 -0.4259  0.0072
25112W        W41006  11.014  13.453  12.744 -0.1405 -0.1970 -0.0867
25113W        W41007  13.619  15.685   1.572 -0.1494  0.1197  0.0569
25114W        W41008   0.585  12.612   3.465 -0.0683 -0.0753 -0.2362
25115W        W41009  10.450  14.715   0.656  0.1899  0.1828  0.2346
25116W        W41010   5.639   0.361  13.397 -0.0411 -0.0091 -0.0487
25117W        W41011   2.634   7.565  11.399 -0.1982 -0.0893 -0.2289
25118W        W41012   8.250   7.250   3.229 -0.0935  0.0010 -0.1571
25119W        W41013   4.590   7.131  16.081  0.1970  0.1742 -0.5127
25120W        W41014   4.593  17.579   5.765 -0.1064  0.0131  0.0382
25121W        W41015   0.565  15.420   4.345 -0.0172 -0.2821 -0.1198
25122W        W41016   3.947  12.068   4.682 -0.7908  0.1451  0.0552
25123W        W41017  15.550   1.808   4.611 -0.1439 -0.1285 -0.0021
25124W        W41018  15.612   4.181   0.984  0.1140  0.2805 -0.0224
25125W        W41019   8.208  12.064   2.586 -0.2322  0.0274 -0.0767
25126W        W41020   8.729   5.422  11.043 -0.0708  0.0398  0.1036
25127W        W41021  15.011  10.326  13.068 -0.2596  0.0996 -0.0230
25128W        W41022  17.237   9.540  14.480  0.2906  0.3360 -0.0483
25129W        W41023   4.421   9.583   4.112 -0.0400 -0.1036  0.0072
25130W        W41024  12.894   6.949  15.528  0.0096  0.0034 -0.3059
25131W        W41025   6.114   5.842   0.940 -0.0496 -0.1362  0.1546
25132W        W41026   6.895  12.332   5.811  0.0831  0.1848 -0.0040
25133W        W41027   1.604  10.827   5.333 -0.0641 -0.2255  0.4082
25134W        W41028  14.894   9.513   1.605  0.1115  0.0399  0.0449
25135W        W41029  12.315  17.242  15.465 -0.0648 -0.0220 -0.0428
25136W        W41030   8.651  16.586  13.369  0.1450 -0.3115  0.2387
25137W        W41031  13.789   6.977  12.137 -0.0786 -0.2387 -0.2698
25138W        W41032   6.345   2.715   4.653 -0.0732  0.0916  0.1683
25139W        W41033   1.902   8.302   3.235  0.2748  0.0422  0.1007
25140W        W41034   0.160   9.419  13.733 -0.0675  0.3923 -0.0490
25141W        W41035  18.365   1.828  13.947  0.3605 -0.0588  0.0569
25142W        W41036   0.872  14.240  12.796 -0.2776  0.0003  0.3473
25143W        W41037  16.746  16.758  12.271  0.0273 -0.0570  0.1515
25144W        W41038   3.666  14.659   2.761 -0.4485 -0.0914  0.2058
25145W        W41039   5.582   6.457   1.637  0.0009  0.1588  0.1917
25146W        W41040   2.214   6.441  11.398 -0.0944  0.0491  0.0160
25147W        W41041  13.939  12.248  14.659 -0.0535  0.0437  0.0113
25148W        W41042  12.101  17.228   4.664  0.0283 -0.0687  0.0955
25149W        W41043  15.303   9.712   3.444  0.0260 -0.0919  0.0848
25150W        W41044  11.515  13.560  15.881  0.3493 -0.2939 -0.0109
25151W        W41045  13.403  10.099  13.738 -0.0386 -0.0706  0.0396
25152W        W41046  10.008  14.065   9.746 -0.1371  0.3022  0.1776
25153W        W41047  13.698  16.717   4.472 -0.0069 -0.1893  0.1043
25154W        W41048  10.273   3.541  11.088 -0.2992 -0.1418 -0.3675
25155W        W41049   7.329   2.197  13.941 -0.0055  0.0356 -0.1817
25156W        W41050  18.232   7.714   0.165 -0.2575  0.2056  0.1241
25157W        W41051  12.725  17.335  14.222 -0.2299 -0.0382  0.0497
25158W        W41052  11.031  15.065  14.399  0.0637 -0.2156 -0.2746
25159W        W41053  12.742   6.691   3.666 -0.0085 -0.2542 -0.0934
25160W        W41054  11.688   6.313  12.532  0.0977  0.1307 -0.0154
25161W        W41055   0.042  18.426  15.329 -0.1429  0.2602  0.1466
25162W        W41056  16.767  17.606  15.941  0.0099 -0.0175  0.0014
25163W        W41057  15.391   2.422   2.433  0.1715 -0.3557 -0.5681
25164W        W41058   7.799  17.125   0.323  0.0277 -0.1431  0.0723
25165W        W41059  13.569   4.441  15.227  0.2626  0.3428 -0.0041
25166W        W41060   5.613   7.779  12.107 -0.2088  0.4268 -0.1038
25167W        W41061   2.488   8.124   5.224 -0.1693 -0.3941 -0.0632
25168W        W41062   6.797   2.917  12.757  0.0498 -0.1882 -0.0211
25169W        W41063   6.335  17.445  12.477  0.0815  0.0318  0.2376
25170W        W41064   5.666   8.456   3.853 -0.1551  0.0446 -0.2066
25171W        W41065  11.437   0.996   5.641  0.1068 -0.1733  0.0216
25172W        W41066  14.303   0.207  14.469 -0.2090  0.0656 -0.2290
25173W        W41067   4.834  12.298   2.228  0.0124 -0.2041 -0.1443
25174W        W41068   0.177  17.244  14.296  0.2425  0.0661  0.0530
25175W        W41069   0.606   9.063  16.075 -0.1290 -0.1955  0.1647
25176W        W41070  12.205  12.850   3.112 -0.2195  0.0301  0.0264
25177W        W41071  16.189   6.627   1.285  0.2002  0.0206  0.1621
25178W        W41072  11.457  12.868  10.987 -0.1719  0.1536 -0.0761
25179W        W41073  14.078  12.273  11.160 -0.2764 -0.2503  0.1663
25180W        W41074   8.409  13.325  15.689  0.0522 -0.0568  0.0822
25181W        W41075   3.632  11.907  14.779  0.1007  0.1370 -0.0255
25182W        W41076  15.487  11.866  13.955 -0.1100 -0.2491 -0.1634
25183W        W41077   1.586   1.863   0.626  0.0531 -0.0205 -0.0394
25184W        W41078   8.782   2.029  12.771 -0.1521  0.3934 -0.1921
25185W        W41079   7.871   6.227   2.318 -0.0086 -0.2041 -0.2443
25186W        W41080   5.985   6.105   1.414  0.3226 -0.0134  0.2476
25187W        W41081   1.840   9.551  11.623  0.1677  0.1994 -0.2821
25188W        W41082  16.558   6.869  15.802 -0.0931  0.1742 -0.0504
25189W        W41083   3.142  12.043   1.756 -0.2144  0.0286 -0.4281
25190W        W41084   6.053   8.024  12.164  0.0111  0.2431 -0.0499
25191W        W41085   7.056  16.257  12.087  0.3596  0.6164 -0.1950
25192W        W41086  14.815   7.537  14.516 -0.2744 -0.0935 -0.0778
25193W        W41087  14.992  13.467   0.608  0.0840  0.1354  0.0549
25194W        W41088  15.967   1.581  14.468  0.2341 -0.1239 -0.0240
25195W        W41089  12.499   1.367  15.007  0.1263  0.0890  0.3752
25196W        W41090   4.738  12.806   2.700  0.1288  0.2313  0.0538
25197W        W41091   9.762   7.390  10.831  0.0502 -0.1510  0.0739
25198W        W41092   7.751  14.342  14.299 -0.2125 -0.2664 -0.1024
25199W        W41093  11.725   5.087   3.121  0.0006  0.2744 -0.0547
25200W        W41094  11.444   5.257   0.344 -0.0412  0.0781 -0.2042
25201W        W41095   7.389  14.283  14.582  0.0122 -0.2218 -0.1041
25202W        W41096  18.304  16.089   2.360 -0.0647 -0.0358  0.1824
25203W        W41097  11.071  10.751   1.452  0.2473  0.3543  0.0408
25204W        W41098   9.716   9.133   0.322 -0.0651 -0.3047  0.0151
25205W        W41099   5.402  10.453  11.527 -0.2131  0.1421 -0.1972
25206W        W41100   2.278  15.990  12.068 -0.1424 -0.2198 -0.2023
25207W        W41101  18.209   9.607  13.413  0.6105 -0.0149 -0.0486
25208W        W41102   0.528  17.657  12.534 -0.1365 -0.0767  0.2570
25209W        W41103   6.317  14.648  13.440 -0.1919  0.2932  0.1197
25210W        W41104  15.235   7.301  14.226  0.1770  0.0960 -0.0625
25211W        W41105   6.681   9.957  12.945  0.1498 -0.3382 -0.2461
25212W        W41106   1.322  10.411   4.272 -0.2204  0.0322  0.0186
25213W        W41107   2.288   6.884   1.577  0.2506 -0.0713  0.3920
25214W        W41108   2.855  14.514   3.007 -0.2442 -0.0830 -0.1913
25215W        W41109  16.319  11.903  14.555  0.2723  0.3780  0.0491
25216W        W41110  10.511   1.263   1.497  0.1474  0.1690  0.0334
25217W        W41111  18.009   7.456  15.894 -0.0552  0.0897 -0.4963
25218W        W41112   8.129   5.006  16.028 -0.2040 -0.0089  0.2067
25219W        W41113   2.605   4.619  13.774  0.0567  0.0004  0.3150
25220W        W41114   4.872  10.779  15.719  0.2737 -0.2563  0.3261
25221W        W41115   1.731   2.551  12.881  0.2505 -0.0960  0.4081
25222W        W41116  16.208  11.251   0.223 -0.1089 -0.0783 -0.1055
25223W        W41117   6.209  17.390   0.560 -0.2745  0.0330 -0.3924
25224W        W41118   5.173   8.627   0.144  0.1618 -0.1170  0.4485
25225W        W41119   6.022  13.017   2.919  0.0966  0.2506  0.1238
25226W        W41120   1.759   0.923   1.091  0.1756  0.2518  0.0607
25227W        W41121   9.048  10.277  13.541  0.0758 -0.0949  0.2040
25228W        W41122  12.245  14.659   1.061  0.3042  0.0877 -0.2924
25229W        W41123  16.003  11.564  14.185  0.0183  0.2143  0.3668
25230W        W41124   5.397  17.814  14.230 -0.2165  0.1905  0.0597
25231W        W41125  16.432   6.010  13.446  0.0645  0.1897 -0.0182
25232W        W41126  16.813   6.300  13.269 -0.1778 -0.1181 -0.1147
25233W        W41127   5.496   0.069   2.599  0.3131  0.1976 -0.0992
25234W        W41128   5.060   8.363  10.578 -0.2242  0.1303 -0.3497
25235W        W41129   7.382   8.224   0.692  0.0893  0.1326 -0.1346
25236W        W41130  12.143   7.704  13.727 -0.0188  0.3031 -0.2740
25237W        W41131   3.146   0.321   6.374 -0.2336 -0.0661  0.1876
25238W        W41132  16.886   6.073  14.660 -0.0830  0.3142 -0.1743
25239W        W41133  10.882   4.790  12.763  0.0128  0.3643  0.3305
25240W        W41134   9.337  14.936   4.522  0.1150 -0.0310 -0.3245
25241W        W41135  15.453   1.939  15.277 -0.0403 -0.0093 -0.1035
25242W        W41136  15.353   6.316   2.048 -0.2264 -0.3132  0.2775
25243W        W41137  18.353   1.953   1.053  0.1554  0.1248 -0.1553
25244W        W41138   6.337   8.405   3.368  0.0534  0.0735  0.2315
25245W        W41139  18.019   9.845   1.823 -0.0518  0.0984  0.1855
25246W        W41140   5.885   6.010  13.460 -0.0667 -0.4066  0.0452
25247W        W41141   4.001   2.446  11.223  0.1399 -0.0677  0.0229
25248W        W41142   7.556  14.378  15.405 -0.2121  0.2613  0.0283
25249W        W41143  10.034  17.479   4.047  0.0177 -0.0938 -0.0923
25250W        W41144   5.347  12.885   1.688 -0.1267  0.1410 -0.1827
25251W        W41145   9.440   0.206  13.125 -0.1953  0.2325  0.1316
25252W        W41146  16.581  16.534   3.909 -0.0548  0.2512  0.0459
25253W        W41147   5.104  10.149   5.109 -0.2886  0.0327 -0.3021
25254W        W41148   1.048   1.253  14.333  0.1986 -0.0382 -0.1160
25255W        W41149   7.932   9.618   5.090  0.3126  0.1540 -0.3346
25256W        W41150   1.837  17.226   0.639  0.2608  0.1663  0.4155
25257W        W41151   7.059   8.061   1.359  0.1886  0.0418 -0.0648
25258W        W41152   1.738  17.369   2.102 -0.0800  0.1508  0.0620
25259W        W41153  10.765   8.706   3.474 -0.1042 -0.3146 -0.3505
25260W        W41154   0.786   6.239  14.043  0.3664 -0.2236 -0.2096
25261W        W41155   9.505   9.267  14.956 -0.1051 -0.3765  0.0176
25262W        W41156   1.576  17.289   1.090  0.2303  0.0303 -0.2086
25263W        W41157   6.608  16.493  12.270  0.1717  0.1190  0.0943
25264W        W41158  15.114   6.901   0.411 -0.1525 -0.1052  0.2834
25265W        W41159   1.927   4.783  11.693  0.3194  0.1415  0.4640
25266W        W41160   9.454   9.217  13.427 -0.2109  0.1206  0.1810
25267W        W41161   3.067  17.592   2.294  0.3141 -0.1460  0.3720
25268W        W41162   8.610  12.390   0.142 -0.3183  0.1174  0.0389
25269W        W41163  16.394  11.872   4.468 -0.0197 -0.0908 -0.2066
25270W        W41164   2.677   2.928  14.242  0.3503  0.0610  0.0241
25271W        W41165  16.900  14.155  12.805  0.1686  0.3277  0.0048
25272W        W41166  18.334   9.906   0.543 -0.3250 -0.0229 -0.0003
25273W        W41167   9.936   5.438  15.558  0.0597  0.1092 -0.0792
25274W        W41168  12.721  15.796   0.450  0.2369  0.3467  0.0113
25275W        W41169   9.115  15.482   4.354 -0.1027  0.1021  0.0554
25276W        W41170  11.094   6.655  15.355  0.2119 -0.0739  0.2488
25277W        W41171   1.216  12.181   3.497 -0.1583  0.3028  0.2813
25278W        W41172   1.378  16.021   0.215 -0.0964  0.0917  0.0462
25279W        W41173  15.538  16.232  13.875  0.0364 -0.0926  0.0445
25280W        W41174  18.121   0.730   1.423  0.0051  0.2327 -0.3835
25281W        W41175  10.565   0.329   3.610 -0.1868  0.3978 -0.2461
25282W        W41176   9.736   8.798  15.812 -0.0646  0.2432  0.3886
25283W        W41177  12.230  17.755   3.015 -0.1686 -0.1608  0.0584
25284W        W41178   3.087   5.751   0.006 -0.3023 -0.1798  0.2244
25285W        W41179   1.291   9.209  13.530 -0.1403  0.2253 -0.4420
25286W        W41180  10.764   3.355  13.869  0.2650 -0.0628  0.0706
25287W        W41181   6.807   7.199   2.043  0.2351 -0.2891 -0.2240
25288W        W41182  13.765  14.735  15.204 -0.0454  0.0379  0.0034
25289W        W41183   0.185  16.206   5.275  0.3839 -0.0130 -0.0822
25290W        W41184   6.297  14.156   3.798 -0.3197  0.0193  0.0771
25291W        W41185  11.809  11.407  14.431  0.0851 -0.4031  0.4812
25292W        W41186  17.135   4.830   2.145 -0.2270 -0.0016  0.1446
25293W        W41187   1.166   3.077  15.219  0.1302 -0.2312  0.0340
25294W        W41188   9.335  13.354  15.391  0.1302 -0.2682  0.0524
25295W        W41189   7.769   3.443   3.641 -0.2371 -0.0705 -0.1855
25296W        W41190  16.016  16.663   3.050 -0.0232  0.0323  0.1727
25297W        W41191  15.930  14.756   2.513 -0.3094 -0.1322  0.2407
25298W        W41192   8.017  11.391  10.718  0.0326  0.0896 -0.2835
25299W        W41193  14.824  17.140   4.494 -0.2207 -0.0963 -0.0051
25300W        W41194   4.683   7.677  11.515 -0.2300 -0.0346 -0.0156
25301W        W41195  13.472  13.806  11.657  0.3000 -0.2246 -0.0378
25302W        W41196   7.119  16.749  15.141 -0.1327 -0.0062 -0.0807
25303W        W41197  11.309  11.903  10.033 -0.2777  0.1283 -0.0866
25304W        W41198   1.159  10.836   3.237 -0.1577 -0.2160 -0.2935
25305W        W41199   3.770  10.604  15.733  0.0354 -0.1022  0.3191
25306W        W41200   2.481  10.376  13.554 -0.0372  0.1778 -0.2542
25307W        W41201   7.772  12.959  12.850  0.1156  0.1926  0.0515
25308W        W41202  17.097   8.508  15.455  0.0362 -0.0857 -0.3884
25309W        W41203  11.045   4.337   0.689  0.0117  0.0701 -0.0135
25310W        W41204   3.445   9.911   1.333  0.0957 -0.0219 -0.0219
25311W        W41205   6.536  16.871   4.756 -0.0529 -0.2204  0.0565
25312W        W41206   2.379   9.566   4.405  0.1304 -0.0639  0.3453
25313W        W41207   8.859   7.545   4.440 -0.3818  0.2526 -0.2342
25314W        W41208  12.587   7.770   4.473 -0.0404  0.2157 -0.0334
25315W        W41209  16.693  10.095   1.444  0.0553  0.0230 -0.0892
25316W        W41210   3.345   4.111  14.138  0.0140 -0.0116 -0.1644
25317W        W41211  14.157   4.210   0.682 -0.3273  0.4178  0.0266
25318W        W41212  14.912   6.459  15.895  0.0359 -0.2376 -0.3377
25319W        W41213   0.207   4.558   6.511 -0.0983  0.0298 -0.0312
25320W        W41214  17.670   0.487  11.836  0.1642  0.0092 -0.2324
25321W        W41215  11.902   3.558  11.119 -0.0530  0.2651  0.2746
25322W        W41216   3.864  12.058   5.241  0.4215  0.1055 -0.1132
25323W        W41217   3.656  11.449   2.157  0.3476  0.0063 -0.0020
25324W        W41218   8.686   0.026   1.960 -0.0394  0.3253  0.1594
25325W        W41219  11.729   8.881  12.740  0.0007 -0.0441  0.0521
25326W        W41220  10.000  11.966  11.529  0.0760 -0.0037  0.0426
25327W        W41221  17.323  14.546  11.526 -0.1297 -0.1745 -0.1140
25328W        W41222   8.521   9.226   4.945  0.1702  0.0922  0.1727
25329W        W41223  12.314  17.455   1.610  0.0365 -0.0976  0.0235
25330W        W41224   0.382  15.473   3.864 -0.1105  0.1026 -0.1683
25331W        W41225  18.213  14.247  15.244  0.1607  0.0022 -0.1674
25332W        W41226   1.250   6.910   1.639  0.2430  0.0487  0.2006
25333W        W41227  17.340   5.325  14.173  0.4104  0.2907  0.0688
25334W        W41228   8.404   5.429   4.565  0.0812 -0.1179 -0.1901
25335W        W41229   0.545  10.178   5.118 -0.0186 -0.0280  0.1294
25336W        W41230   8.630   2.497   6.106  0.1558 -0.0060 -0.1424
25337W        W41231  14.033  10.696   0.474  0.2547  0.0570  0.0546
25338W        W41232  12.588   9.449  11.947 -0.0278  0.1433 -0.0294
25339W        W41233   0.514   3.266  12.311  0.2170  0.0192 -0.0580
25340W        W41234   8.900   3.349   2.614  0.0294 -0.0729  0.0471
25341W        W41235   4.467   2.243   3.922  0.2473 -0.2057  0.0441
25342W        W41236   8.164  17.090  11.234 -0.0104 -0.0600  0.0137
25343W        W41237  13.623  17.634   3.038  0.2313  0.1485 -0.5489
25344W        W41238  14.914   0.681  13.159 -0.0095 -0.1203 -0.2495
25345W        W41239   5.282  17.143  13.314 -0.3147 -0.0291  0.1540
25346W        W41240   6.007   2.272   0.033 -0.0096 -0.1675 -0.1239
25347W        W41241  11.652   5.521   2.861  0.2874  0.0033  0.0011
25348W        W41242   1.392  13.175  15.443 -0.0479  0.0564  0.4923
25349W        W41243   7.339   3.574  11.419 -0.0118 -0.0908 -0.1916
25350W        W41244   4.220   4.336  14.510  0.1239 -0.0040 -0.0079
25351W        W41245   4.654  13.690   0.162  0.2069  0.1495 -0.0137
25352W        W41246  13.489  16.870  12.553 -0.2141  0.2059 -0.1992
25353W        W41247  14.485  10.490   3.136  0.0278 -0.1538 -0.0547
25354W        W41248   7.922  14.840  11.130  0.0874 -0.0540 -0.0398
25355W        W41249   3.024   4.279  11.443  0.3093 -0.0611  0.2853
25356W        W41250   4.987  11.410   2.327 -0.0341  0.0515 -0.1129
25357W        W41251  16.427   7.359   1.890 -0.0613 -0.4849 -0.0084
25358W        W41252  14.169  18.015   4.900 -0.2403  0.0078 -0.1856
25359W        W41253   7.364   2.303  11.697 -0.0782 -0.2878  0.1672
25360W        W41254   0.951  11.046  12.064 -0.1100  0.0028 -0.1204
25361W        W41255  17.130  10.074   2.460  0.2174 -0.0571  0.4354
25362W        W41256  15.205   4.833   3.478  0.1381 -0.3389  0.1370
25363W        W41257  16.462   2.897   1.880 -0.0406  0.1435 -0.1434
25364W        W41258   2.067   0.699  12.150  0.1830 -0.3375 -0.0289
25365W        W41259  14.114   3.088   1.487 -0.0437 -0.2272  0.0353
25366W        W41260   5.812   6.435   0.057  0.0112 -0.1163 -0.2405
25367W        W41261   5.144  13.550  14.549 -0.4140 -0.1959  0.1260
25368W        W41262  17.202   3.774   1.845  0.0293  0.0412  0.0165
25369W        W41263   9.192  15.781  13.415 -0.0402  0.0324  0.1730
25370W        W41264  15.332   7.096  11.835  0.3067 -0.0591  0.1288
25371W        W41265  18.128  11.395   5.464  0.2064  0.0994  0.4738
25372W        W41266  15.685   8.722  11.608 -0.1316 -0.8205 -0.0023
25373W        W41267  13.023  10.530   2.150  0.3580  0.3171  0.1462
25374W        W41268   4.479   9.500   1.920 -0.0232  0.2978 -0.0060
25375W        W41269   6.479  17.823  13.942  0.0549  0.2019 -0.1336
25376W        W41270  16.219   0.678  12.910 -0.0283  0.0817  0.2045
25377W        W41271  15.069   5.424   3.664  0.0688  0.0519 -0.0623
25378W        W41272   4.418   8.700   0.394 -0.0401 -0.3947  0.3901
25379W        W41273   2.862  15.343   4.214  0.0503  0.2273  0.0282
25380W        W41274  14.734   0.211   0.639  0.0258 -0.0033 -0.0856
25381W        W41275   1.555   5.557   5.436 -0.0853 -0.3526  0.1634
25382W        W41276  13.823   4.435   0.079  0.2203  0.1200 -0.0461
25383W        W41277   8.744   3.717   6.019 -0.1357  0.1582 -0.0249
25384W        W41278   2.786  15.281   4.865  0.1060 -0.2855 -0.0833
25385W        W41279   9.425   2.985  12.950  0.1055  0.0135  0.1366
25386W        W41280   4.025   4.388   4.769 -0.1061 -0.1386  0.0424
25387W        W41281   9.458   1.302   0.589  0.0397 -0.0798  0.0373
25388W        W41282   4.879   8.520   5.564 -0.1484  0.0213 -0.3282
25389W        W41283  11.813   3.354  14.636 -0.2057  0.2673  0.0372
25390W        W41284   3.277  13.899  12.747 -0.3222  0.0522 -0.0660
25391W        W41285  15.570   0.029  10.124 -0.1081  0.3640 -0.0329
25392W        W41286  18.069  10.123   0.113 -0.1647  0.0444 -0.0347
25393W        W41287   7.630   0.541   4.650 -0.0569 -0.1551 -0.0933
25394W        W41288   2.341   8.034  15.209  0.0569 -0.2436  0.0162
25395W        W41289   8.448   2.688   3.884 -0.1638  0.2704 -0.4445
25396W        W41290  15.697   6.865  14.941 -0.0721 -0.0981 -0.1232
25397W        W41291   7.260  16.275   3.317 -0.2089  0.1461 -0.1253
25398W        W41292   4.812   8.175   4.332 -0.2049  0.0072 -0.0257
25399W        W41293  14.962  17.413  13.939  0.2356  0.3094 -0.1884
25400W        W41294  10.246  12.069  12.768 -0.0053 -0.2489  0.0319
25401W        W41295  10.283  13.404   4.781  0.3295  0.1384  0.0085
25402W        W41296   0.755   1.684  14.300 -0.1208 -0.0397 -0.1104
25403W        W41297  18.133  12.943   0.995  0.0782  0.3078  0.0924
25404W        W41298  13.840   6.567   3.660 -0.0093 -0.1211  0.0787
25405W        W41299  13.813  12.942   4.712 -0.0859  0.1107  0.0257
25406W        W41300   6.830   7.404  15.901 -0.0250 -0.0147  0.1619
25407W        W41301  17.911  12.137   2.216  0.0538  0.0061 -0.2688
25408W        W41302  16.779   0.758   5.827 -0.1359  0.1061 -0.1753
25409W        W41303  15.385   2.486  15.215 -0.3269 -0.0723  0.1711
25410W        W41304  17.645   2.208  12.238  0.0322  0.2065 -0.3490
25411W        W41305   7.413   5.727   5.532 -0.1326 -0.2028 -0.0064
25412W        W41306   7.426   1.611  12.308  0.1194  0.1974  0.2529
25413W        W41307  17.728  12.383   3.199  0.0861  0.0464  0.0649
25414W        W41308   5.024   3.381  13.399  0.3356  0.2484  0.0860
25415W        W41309  14.611   3.504  15.262 -0.1233  0.1075  0.1391
25416W        W41310   2.895   0.615  13.096 -0.1009 -0.0166  0.0578
25417W        W41311   3.075  18.306   5.185 -0.1258 -0.2269 -0.2214
25418W        W41312   4.879  16.861  13.495  0.0579  0.0696 -0.1937
25419W        W41313   7.586   2.293  15.843 -0.3193  0.0074 -0.2473
25420W        W41314  17.879  17.840   4.953  0.0247 -0.2792 -0.0357
25421W        W41315   9.663  16.821  13.582  0.0537 -0.2070  0.1955
25422W        W41316   6.044  10.818  14.698 -0.0307 -0.2607  0.0866
25423W        W41317   6.476   0.699   4.452 -0.1324  0.0508  0.0110
25424W        W41318  12.912   8.592   0.595 -0.2384 -0.1999  0.3387
25425W        W41319   6.636   3.130   3.856  0.0671 -0.2817  0.2434
25426W        W41320   7.066   1.797  10.590 -0.1361  0.0757  0.2043
25427W        W41321   3.625  13.690  15.295 -0.0351 -0.0537  0.2358
25428W        W41322   6.797   4.690   1.613  0.1735  0.2621  0.0583
25429W        W41323   2.457  12.673   3.425  0.0411 -0.3116 -0.1694
25430W        W41324  14.767   4.352   3.880 -0.0745 -0.0866  0.1390
25431W        W41325   0.170  11.132   1.275 -0.1261 -0.1876 -0.1200
25432W        W41326  15.557   0.106   2.638 -0.1733 -0.4441  0.0617
25433W        W41327   1.595  17.060   0.180  0.0251 -0.0344 -0.0140
25434W        W41328   4.040   8.550   2.809  0.0247 -0.1665  0.0111
25435W        W41329   2.279   1.581   2.384 -0.0527  0.1573 -0.1395
25436W        W41330   4.560   6.799   4.190 -0.1798 -0.0074 -0.1818
25437W        W41331  15.297   9.402   1.861 -0.0344 -0.0176  0.1278
25438W        W41332   4.397   4.123  15.989  0.1696 -0.2574  0.1140
25439W        W41333   7.735   2.632  11.821  0.0442  0.0656 -0.1860
25440W        W41334  10.913   4.969   4.632 -0.0704 -0.1799  0.1834
25441W        W41335  18.424   3.987  12.362 -0.0854  0.2011  0.2206
25442W        W41336   4.792  14.090   4.778 -0.0131  0.2210  0.0369
25443W        W41337  12.330   4.666   4.540  0.3788 -0.1084  0.1187
25444W        W41338  11.525  17.985  12.828 -0.1125  0.3174  0.0946
25445W        W41339   0.858  16.046  12.913 -0.2229  0.0916  0.1608
25446W        W41340   7.482   3.881   0.693  0.0087  0.0245  0.0749
25447W        W41341   0.906   6.265  13.196  0.1168 -0.3519  0.1801
25448W        W41342  14.764   1.495   4.382  0.0184 -0.2672 -0.0181
25449W        W41343   2.061   8.675   2.260  0.1176 -0.0522  0.0085
25450W        W41344   8.004  13.462  15.422  0.3852  0.0634  0.1784
25451W        W41345  18.231  10.097  13.625 -0.1699 -0.0266  0.1135
25452W        W41346   1.622   3.929   4.941  0.1216  0.2362  0.3309
25453W        W41347   3.142   5.979  11.563  0.2498 -0.1106  0.1645
25454W        W41348  17.285   2.531   2.058 -0.1934  0.0834  0.3198
25455W        W41349   9.765   1.558  15.401  0.4054 -0.1958 -0.0514
25456W        W41350   2.801  16.959   1.253  0.4221 -0.1647  0.1656
25457W        W41351   7.287   0.418   2.375 -0.3445 -0.3246  0.4012
25458W        W41352   5.441  11.178   0.844 -0.0529 -0.2684 -0.0402
25459W        W41353   1.168  10.150   4.700  0.0611 -0.0290 -0.3513
25460W        W41354   6.782  16.416   0.141  0.0110 -0.2109  0.0904
25461W        W41355  12.610  12.039   0.326 -0.1973 -0.2122  0.2359
25462W        W41356  11.788   3.738  13.266  0.2351  0.2631  0.0715
25463W        W41357  12.202   0.761   5.335  0.2500  0.2279  0.1934
25464W        W41358   2.351  16.785   1.324  0.1890 -0.4125  0.0320
25465W        W41359   3.178  17.195   1.523 -0.0284 -0.0086 -0.0562
25466W        W41360  10.280  14.397  13.202  0.1073  0.0446  0.2314
25467W        W41361  16.431   8.539  12.862  0.2847 -0.1488  0.0729
25468W        W41362  10.624   1.930  13.392  0.0804  0.2051  0.3671
25469W        W41363  10.664   2.393  13.664  0.2226 -0.0575  0.1967
25470W        W41364   2.567   7.878   0.583 -0.1748  0.0672  0.0948
25471W        W41365  15.076   9.685   4.396  0.1482  0.2583 -0.3712
25472W        W41366   6.514  17.799   2.043 -0.2153 -0.4500  0.0196
25473W        W41367   0.009   7.145  11.870  0.1604  0.1529  0.4148
25474W        W41368  13.789  12.624  12.497  0.0528 -0.0486  0.0150
25475W        W41369   5.038  13.858   2.545  0.0658  0.3682  0.2913
25476W        W41370   2.209   9.857   4.765  0.3964  0.1730 -0.1262
25477W        W41371  15.717  13.231   2.988 -0.2525 -0.1908  0.0532
25478W        W41372  12.170   1.536   1.934  0.2762 -0.1676  0.3065
25479W        W41373   2.322  15.330  14.626  0.0868  0.1745  0.2058
25480W        W41374  17.009   0.100  15.014  0.0459  0.0347  0.0528
25481W        W41375  11.467  16.997  12.434 -0.2278  0.2885  0.1106
25482W        W41376   6.588  11.711   2.081 -0.2325 -0.1662 -0.5661
25483W        W41377  10.010  13.979   1.416 -0.0120 -0.0025 -0.0489
25484W        W41378  10.937  16.696  15.571 -0.0789  0.0118  0.0533
25485W        W41379  10.929  17.628   1.173 -0.1128  0.0223 -0.1846
25486W        W41380   9.082  12.668   4.950 -0.1478 -0.1252  0.2670
25487W        W41381   0.211  12.697   2.250 -0.0198  0.2353 -0.0297
25488W        W41382  15.622   6.908   4.803  0.0552  0.1227  0.0499
25489W        W41383   4.778  18.327  14.280 -0.0330 -0.0006  0.0474
25490W        W41384   7.210   3.758   5.641 -0.2632 -0.1342  0.0050
25491W        W41385   5.737  11.233   2.237  0.0885  0.0096  0.1184
25492W        W41386  10.452  10.236  14.748  0.3338 -0.2460 -0.2867
25493W        W41387  17.240   2.752   5.139  0.2920 -0.0423  0.0771
25494W        W41388  13.088  15.620  14.195  0.1655 -0.0123 -0.1660
25495W        W41389  14.049   0.880   3.874 -0.0825  0.2342  0.0029
25496W        W41390   1.318   6.099   3.467 -0.0517 -0.1234  0.0245
25497W        W41391   0.472   2.553   2.159  0.2884 -0.2094  0.1320
25498W        W41392  12.081  15.388  11.618 -0.3079  0.1996 -0.1503
25499W        W41393   1.123   2.172  11.118  0.2280 -0.0721  0.1829
25500W        W41394   4.991  18.234  12.416  0.2778  0.3214  0.1932
25501W        W41395  16.612   0.379  12.946 -0.1467  0.2958  0.0178
25502W        W41396   7.728   2.930   4.144 -0.0290  0.2420  0.0948
25503W        W41397  17.797  11.252  12.072 -0.1953  0.2570 -0.0095
25504W        W41398   3.304   2.169   1.773  0.3697  0.0714 -0.1637
25505W        W41399   2.042   4.356   5.186  0.1916  0.0838 -0.0829
25506W        W41400   9.189  16.019   2.337  0.0853  0.2133 -0.2362
25507W        W41401   7.213   3.999  11.981 -0.0186 -0.4018  0.1933
25508W        W41402  15.250   9.016  14.479 -0.0979  0.4945 -0.0418
25509W        W41403  10.285   4.219   2.414  0.4307  0.0109 -0.0251
25510W        W41404   8.843  14.915  14.350 -0.0405 -0.0293  0.6397
25511W        W41405   3.808  13.750  12.758  0.1959  0.2752  0.1314
25512W        W41406  11.918  12.377  14.546  0.3530  0.0274 -0.1166
25513W        W41407   3.644  10.057  14.455 -0.1748 -0.0993  0.1277
25514W        W41408  12.207  14.636  10.597  0.3532 -0.3182 -0.1956
25515W        W41409   9.655   1.278  14.351 -0.1340 -0.0331  0.1680
25516W        W41410   9.926   4.831  11.224  0.1699 -0.1310  0.1471
25517W        W41411   2.472  10.152   3.563 -0.0464  0.0565  0.0169
25518W        W41412  11.032   4.101  13.473 -0.2043 -0.2459  0.0245
25519W        W41413  16.294   0.214   2.096  0.0466  0.3326  0.0205
25520W        W41414   2.431  16.253   3.458 -0.0274 -0.4225 -0.0811
25521W        W41415   5.886   9.247  10.054  0.2368  0.2002  0.1260
25522W        W41416  12.163  13.728   0.293  0.0213 -0.1036  0.0598
25523W        W41417   0.656   0.697   5.403 -0.0537  0.2819 -0.1844
25524W        W41418   8.527  11.331  12.333  0.3229  0.1625  0.0455
25525W        W41419  13.844   1.612  12.055 -0.1095 -0.0754 -0.3203
25526W        W41420  15.396  10.904   4.296 -0.5125 -0.0219  0.2645
25527W        W41421  17.320  17.473  13.086 -0.0866 -0.0450 -0.0516
25528W        W41422  14.664   1.713   1.983  0.3222  0.1095 -0.4068
25529W        W41423  11.213   1.923   5.149  0.2087 -0.3880  0.1535
25530W        W41424  10.210   0.851  14.855 -0.0430  0.0652  0.2078
25531W        W41425   5.120  15.534   1.865 -0.1015  0.2148  0.0800
25532W        W41426   1.728  15.924  13.596 -0.0246 -0.1043 -0.2354
25533W        W41427   7.495   9.237   5.852  0.0094 -0.1035  0.1866
25534W        W41428   6.321   6.330   0.843 -0.1368  0.0934 -0.1343
25535W        W41429   0.962  13.377   2.801  0.3252  0.2150 -0.0628
25536W        W41430   5.090   5.140   2.173 -0.1734  0.1009  0.0443
25537W        W41431   5.486  10.474   5.256  0.1261  0.1323  0.1219
25538W        W41432  17.173  16.597   4.857 -0.0383 -0.2681 -0.1845
25539W        W41433   7.751  15.096  12.818  0.1035 -0.1130  0.2243
25540W        W41434   8.277   0.911   2.796 -0.0848  0.1207  0.5293
25541W        W41435   3.307  12.150  11.566 -0.0243 -0.2632 -0.2759
25542W        W41436  12.393  10.367   0.262  0.0932  0.1148 -0.0353
25543W        W41437   9.832   0.989   5.271 -0.4115  0.0789 -0.0557
25544W        W41438  17.476  14.421   3.772  0.0608 -0.2232  0.3405
25545W        W41439   1.408   6.289  13.037  0.0286  0.3689  0.1033
25546W        W41440   9.178   3.866  16.107 -0.0733 -0.1608  0.1536
25547W        W41441   7.655   6.667   1.014 -0.0383  0.2640  0.1767
25548W        W41442   0.236   7.642   4.594 -0.0153  0.1450 -0.1814
25549W        W41443  13.767   7.897  15.847  0.0778 -0.3000 -0.0296
25550W        W41444  12.569   2.787  15.895 -0.3074 -0.1505 -0.3167
25551W        W41445   8.709  10.208   2.781  0.2651 -0.0069  0.1045
25552W        W41446   3.067  12.952  14.583 -0.0958 -0.3630  0.1197
25553W        W41447   3.065  11.258   5.031  0.0180  0.0094 -0.1020
25554W        W41448  12.216  13.198  12.400  0.5041 -0.2318 -0.0391
25555W        W41449   2.515   8.630   0.308 -0.1836 -0.2730 -0.3892
25556W        W41450  14.795   3.257   3.907 -0.1845 -0.1515 -0.0566
25557W        W41451   1.533  11.161   3.085 -0.1551  0.0130  0.0573
25558W        W41452   2.818  13.406  14.657  0.2034  0.0188 -0.0150
25559W        W41453   6.086  16.820  14.875  0.0623  0.2287 -0.1706
25560W        W41454   4.187   0.551   2.542 -0.2001 -0.0290 -0.1965
25561W        W41455   2.671  14.205  13.580 -0.1918 -0.0198 -0.0183
25562W        W41456   1.742   8.927   6.104  0.0761  0.0440  0.5426
25563W        W41457  12.645   9.675  12.852  0.2224 -0.0689 -0.0405
25564W        W41458   9.477   2.253  15.528  0.1268 -0.2656 -0.0671
25565W        W41459  16.069   4.950   0.676 -0.0801 -0.0674 -0.3413
25566W        W41460   2.449   6.805   4.306  0.0483 -0.2520 -0.0455
25567W        W41461   3.853   2.018   2.579 -0.2394  0.1686 -0.0772
25568W        W41462   1.398   7.950   4.082  0.4334  0.3474 -0.0069
25569W        W41463  11.916   9.453   5.554  0.0433 -0.1827  0.0873
25570W        W41464  16.053  14.238  14.631  0.1219 -0.3260 -0.0722
25571W        W41465  13.384  10.969  11.845  0.1351 -0.0120  0.1390
25572W        W41466  10.340  15.552   2.724 -0.2764  0.1557  0.0629
25573W        W41467   1.914   1.399   3.840 -0.1065 -0.1091 -0.2238
25574W        W41468  13.639   6.845   4.065 -0.3909  0.1656  0.3802
25575W        W41469  10.227  16.582  11.710  0.0492  0.1874  0.0044
25576W        W41470   8.084   8.698  13.297  0.1985  0.0667  0.0034
25577W        W41471   3.990   3.791   3.752  0.0604  0.0993  0.0881
25578W        W41472   7.583   4.686  12.701 -0.2882 -0.3700  0.2317
25579W        W41473   0.956   6.684  12.862 -0.0654 -0.1945  0.0369
25580W        W41474   4.232   8.101   4.800  0.0166 -0.1278  0.1785
25581W        W41475   9.746  17.311  11.656  0.0394 -0.0061  0.3226
25582W        W41476   1.036  10.882   1.404 -0.1865  0.1116 -0.1681
25583W        W41477   7.619   9.748  14.013  0.1083 -0.1075 -0.2640
25584W        W41478  17.224   7.365  14.595  0.0343  0.2991 -0.0873
25585W        W41479  14.114   9.198   5.298 -0.0087 -0.1923  0.0459
25586W        W41480   9.744  16.420  12.588 -0.2807 -0.2855  0.1402
25587W        W41481  10.075   8.017  16.008 -0.3137  0.1156 -0.1653
25588W        W41482   2.369  18.414  13.113  0.1448 -0.0154  0.1644
25589W        W41483  18.190   4.349  13.587 -0.1086  0.0944 -0.0827
25590W        W41484   3.628   1.831  13.326  0.0178  0.3728  0.1100
25591W        W41485   6.521   4.282   1.695  0.0409  0.1500  0.0108
25592W        W41486   8.012   9.094   4.706 -0.0221  0.0459 -0.1157
25593W        W41487   7.180   2.336  13.479  0.2471 -0.0362 -0.1044
25594W        W41488   7.663  11.282   0.168  0.2709 -0.0295  0.1619
25595W        W41489   9.307  15.915  13.934 -0.0076 -0.1121  0.1917
25596W        W41490   9.237   4.058  13.607  0.1028  0.2351  0.0168
25597W        W41491   3.835  16.933   0.892  0.0656  0.1389 -0.2418
25598W        W41492  13.816  10.450   1.552 -0.1783  0.1278 -0.1746
25599W        W41493   3.217  14.345   3.383  0.0898  0.2885 -0.0947
25600W        W41494  12.120  14.533   3.722  0.0316  0.0069 -0.2105
25601W        W41495   3.091   1.063   4.312 -0.0634  0.0712  0.0636
25602W        W41496  13.421  14.724  10.786  0.0719  0.0503 -0.2143
25603W        W41497   3.764   6.657   0.895  0.0481  0.0378 -0.2267
25604W        W41498   9.283  12.099  13.033 -0.0827  0.2797 -0.0676
25605W        W41499  17.689  16.429   1.557 -0.2834  0.0982 -0.0066
25606W        W41500   1.639  18.071  11.468  0.0944 -0.0930 -0.0869
25607W        W41501   1.081   4.619   5.083  0.0329 -0.0229  0.2847
25608W        W41502  15.659   4.365  15.353 -0.1019  0.1132  0.0934
25609W        W41503  16.987   2.985  12.630 -0.0944  0.0879 -0.1535
25610W        W41504   1.635   9.001  15.750  0.0734 -0.0449  0.0871
25611W        W41505   3.457  10.531  14.277  0.3357 -0.1082 -0.2015
25612W        W41506   9.440   2.802   5.253  0.0198 -0.0738  0.0075
25613W        W41507  17.951  16.994   4.559 -0.2975 -0.1106  0.2761
25614W        W41508   9.539  11.465  12.648  0.1601  0.1672 -0.2444
25615W        W41509  16.367  16.601   3.342 -0.1021 -0.1150  0.0974
25616W        W41510   4.304   7.875  13.283  0.0733  0.0690 -0.2333
25617W        W41511  16.949   1.829  13.167  0.1449 -0.0593  0.1744
25618W        W41512   4.019   8.422  14.993 -0.0253 -0.0660 -0.4433
25619W        W41513  15.378  16.695  11.187 -0.0015  0.2535 -0.0694
25620W        W41514   5.238  11.392   3.112  0.0848 -0.0237  0.0824
25621W        W41515  10.936   8.745  15.150 -0.1165  0.0779  0.1293
25622W        W41516   3.269  10.573   3.155  0.0953 -0.0917 -0.1808
25623W        W41517   2.541   5.009   1.443 -0.0089  0.2463  0.3041
25624W        W41518  12.419   2.952  14.905  0.2813  0.2161 -0.0550
25625W        W41519   2.038  15.212   2.278  0.0274  0.1866 -0.1791
25626W        W41520  12.766  12.553   1.672 -0.0906 -0.2157  0.2686
25627W        W41521  10.467   8.234   5.270 -0.2318 -0.1220 -0.3740
25628W        W41522  13.771   6.921  13.588 -0.0199  0.0032  0.1256
25629W        W41523   5.685   2.808   2.867  0.1386  0.1172 -0.2920
25630W        W41524  13.244  18.220  12.534 -0.1477  0.1332  0.2688
25631W        W41525   6.842   5.668   4.092 -0.0078 -0.1832 -0.1087
25632W        W41526  10.855   6.597  13.764 -0.1313  0.5443 -0.0212
25633W        W41527  17.747  17.935   1.229 -0.2443  0.2370 -0.0943
25634W        W41528   2.580  12.198  11.010  0.0176 -0.0770  0.0827
25635W        W41529  10.923  15.670  16.009  0.0479 -0.0999  0.1589
25636W        W41530   4.543  12.047  15.545 -0.0616 -0.0190  0.1627
25637W        W41531   4.435  10.087   3.283 -0.1784 -0.0515 -0.1354
25638W        W41532   5.852  16.788  11.752 -0.3806 -0.0385  0.2295
25639W        W41533   3.326  13.888  14.836  0.2849 -0.2388  0.2018
25640W        W41534  15.991   4.988   2.863  0.1480  0.2127 -0.0977
25641W        W41535   3.649   2.566  15.884 -0.0426  0.2579  0.2921
25642W        W41536  13.281   9.546  14.069  0.3667 -0.2428 -0.0620
25643W        W41537   8.584  15.286  14.562  0.1576  0.1285  0.0881
25644W        W41538   6.811  16.278  15.274 -0.2480  0.1941  0.1748
25645W        W41539  11.257  13.173   2.885  0.0494  0.0590  0.0472
25646W        W41540   1.832  13.227  11.422 -0.1709 -0.1484 -0.0047
25647W        W41541   6.691   1.967   4.638 -0.2146 -0.0429 -0.0857
25648W        W41542   6.702   9.229  13.399 -0.1181 -0.0665  0.3460
25649W        W41543   4.847  11.645   4.670 -0.1625 -0.2153 -0.0276
25650W        W41544   3.024   0.468  11.811 -0.0934 -0.0328  0.1813
25651W        W41545   5.171   4.203  10.834  0.1644 -0.3378  0.1537
25652W        W41546  11.594  15.463  11.412 -0.0642 -0.1519  0.1524
25653W        W41547   4.591   3.688  15.951  0.2276  0.2392 -0.1928
25654W        W41548  11.184   1.372  14.792  0.2292  0.0240  0.0964
25655W        W41549   8.473   2.279   0.885 -0.0478 -0.1147  0.1198
25656W        W41550   1.025  15.613  12.736  0.0281 -0.0964 -0.1025
25657W        W41551   1.054  15.389   3.126 -0.1574  0.0691 -0.3102
25658W        W41552   3.621   3.510  14.683  0.0699  0.1866 -0.1348
25659W        W41553  12.233   8.531  15.304  0.2833  0.2964 -0.2258
25660W        W41554   5.178   9.049  13.131 -0.0751  0.1587 -0.0145
25661W        W41555  14.861  16.875  15.630 -0.0489  0.0063  0.0843
25662W        W41556   1.921   4.064   3.858  0.2646 -0.0244  0.1573
25663W        W41557   4.205   8.820   4.271  0.1460 -0.2430 -0.2080
25664W        W41558   1.567  13.271  14.517  0.0619 -0.2169  0.0716
25665W        W41559   8.051  15.357   4.128 -0.0657  0.2176  0.1157
25666W        W41560  15.141   6.734  12.917 -0.2296 -0.0674  0.1731
25667W        W41561   0.895   6.980  13.652 -0.0164  0.5071 -0.1292
25668W        W41562  17.751  14.636   0.120 -0.0073 -0.0306  0.3063
25669W        W41563  10.836  15.129   4.074 -0.3821 -0.0967  0.2268
25670W        W41564  13.918  10.266  12.979 -0.0401  0.3420 -0.1966
25671W        W41565   2.646  15.415   3.440 -0.1306  0.0901  0.0864
25672W        W41566   3.580  12.730  14.980  0.1540 -0.2060  0.4845
25673W        W41567   0.591  10.746  12.267 -0.2543  0.2099  0.0628
25674W        W41568  10.732   4.752   0.740  0.1493 -0.1961 -0.3169
25675W        W41569   5.821   6.278  14.709  0.3187  0.0101  0.1681
25676W        W41570   3.717   5.292   2.330 -0.1022 -0.0442 -0.1588
25677W        W41571  17.664   3.014   1.000 -0.0538  0.0859 -0.3820
25678W        W41572   7.034  15.592  15.337 -0.2306 -0.2513  0.2101
25679W        W41573   5.569   5.703  13.309  0.1953  0.0034  0.2632
25680W        W41574  17.463  11.048   3.333  0.1061  0.0930 -0.0585
25681W        W41575   7.488  12.547  11.752  0.1493  0.1182 -0.1557
25682W        W41576   3.135  11.051   2.028  0.0136 -0.1622 -0.1046
25683W        W41577   3.952  14.886  11.184  0.0965  0.5856  0.0435
25684W        W41578  16.428  16.122   5.386 -0.1502 -0.0423 -0.3101
25685W        W41579  10.682  17.915  12.844  0.2828 -0.1062  0.1574
25686W        W41580  17.259   1.428   5.167 -0.1533 -0.0895  0.0260
25687W        W41581   5.158  15.114   9.869 -0.1972 -0.0067  0.4282
25688W        W41582   2.131  13.491  14.139 -0.1792 -0.0679  0.0834
25689W        W41583  18.173   0.677   4.666 -0.3430 -0.0272  0.0355
25690W        W41584   1.787   5.984   5.697 -0.0896  0.1703 -0.0940
25691W        W41585   0.834   4.277   1.011 -0.4282  0.0791 -0.0295
25692W        W41586   8.198   2.695   2.211 -0.2632  0.1060  0.1274
25693W        W41587   2.801   7.515   4.645  0.1103  0.0508 -0.2012
25694W        W41588   9.244  14.555   2.688  0.0054 -0.1380  0.0833
25695W        W41589   0.156   8.947   2.263 -0.1632  0.2138  0.2878
25696W        W41590  13.640  13.697   4.654  0.3489 -0.1354 -0.2051
25697W        W41591  10.600   2.524  12.708  0.1997 -0.2554  0.0394
25698W        W41592   5.149  10.236  14.564 -0.0096 -0.0628 -0.0702
25699W        W41593   1.990  11.718  12.638 -0.2241 -0.1270  0.1095
25700W        W41594  13.537   2.163   4.050 -0.0034  0.0706 -0.2417
25701W        W41595   9.691   4.588  12.431  0.3035 -0.2078  0.0413
25702W        W41596   9.362   9.670  15.263 -0.1653 -0.0893 -0.0553
25703W        W41597   1.393   2.456  14.166 -0.1668 -0.1127 -0.1762
25704W        W41598   6.696  15.866  13.005  0.0415  0.0276  0.1881
25705W        W41599   3.041  11.033  13.877 -0.2038  0.1516  0.0573
25706W        W41600   1.193  14.481   1.002 -0.0797  0.0223  0.0222
25707W        W41601   2.735   6.987   3.587  0.0355  0.4305  0.0939
25708W        W41602   6.032   9.679   0.338 -0.1503  0.2050  0.0229
25709W        W41603  15.560   4.188   4.267 -0.2295 -0.0472 -0.0596
25710W        W41604  11.672  14.341   2.152  0.1391 -0.4610 -0.1347
25711W        W41605   4.765   4.338   4.864  0.1843 -0.5095 -0.2139
25712W        W41606   0.344  11.049  11.714 -0.3319  0.2397 -0.1621
25713W        W41607   8.985   1.395   1.299 -0.2595  0.0758 -0.0461
25714W        W41608   5.558   9.248  12.220 -0.1650  0.1069 -0.0779
25715W        W41609  15.321  16.466  12.323 -0.0624 -0.1803 -0.0320
25716W        W41610  17.311   9.957   3.391  0.0818  0.2272 -0.2537
25717W        W41611   1.469   9.541  15.707 -0.1084  0.1486  0.2497
25718W        W41612   3.804  15.566   4.401  0.0605  0.1415 -0.1647
25719W        W41613  14.290   6.215  12.595  0.0246  0.5459  0.1137
25720W        W41614  16.978   3.841   1.390 -0.1315 -0.0895  0.4305
25721W        W41615   7.821  16.352   1.043 -0.1215  0.3648 -0.0973
25722W        W41616   1.956   7.532   4.063  0.0993 -0.3392  0.1115
25723W        W41617   6.479   2.703   5.096 -0.0124 -0.1759  0.2418
25724W        W41618  17.624  11.631  14.126  0.0212  0.0227  0.0774
25725W        W41619  14.377  17.466   5.657  0.1881  0.2918 -0.0941
25726W        W41620   7.805  15.672   5.551 -0.0551 -0.1711 -0.0659
25727W        W41621   6.438   3.553   3.005  0.2122  0.1127  0.2314
25728W        W41622  13.074   7.516   1.274  0.3971 -0.0211 -0.0034
25729W        W41623   6.409   3.360  12.792  0.0905  0.1642  0.1321
25730W        W41624  10.922   8.732   4.747  0.3873 -0.0531  0.0710
25731W        W41625   9.740  11.967   3.745 -0.2360 -0.1783  0.0670
25732W        W41626   3.642  13.634   1.410  0.0485 -0.4585 -0.0951
25733W        W41627  11.199   7.910  13.533  0.1287  0.2049  0.0433
25734W        W41628  16.470  15.337  14.291 -0.0823  0.1810  0.1354
25735W        W41629  16.138  11.474   4.666 -0.0453 -0.2459  0.2771
25736W        W41630   6.510  12.776   2.918 -0.1820  0.0568  0.1497
25737W        W41631  18.146  11.766  14.168  0.0501  0.0230  0.2233
25738W        W41632   9.858   5.694   1.727  0.1402  0.3836  0.3468
25739W        W41633   4.736   0.832  12.325 -0.1803 -0.0797 -0.2591
25740W        W41634  16.257  14.849  11.864  0.0625 -0.1129  0.0597
25741W        W41635  10.963   4.428   4.877  0.3001 -0.0379 -0.1481
25742W        W41636  13.987   4.746  15.484  0.0008 -0.1424 -0.2302
25743W        W41637  15.302   2.786  14.272  0.2739  0.1248 -0.2538
25744W        W41638  13.748  13.272  11.806 -0.3812 -0.0649 -0.0635
25745W        W41639  17.184   1.358  12.231 -0.1746 -0.0935  0.1035
25746W        W41640   4.654  15.615  14.115 -0.1524 -0.0246  0.0675
25747W        W41641  15.132  11.688  15.442  0.3354  0.0392 -0.1680
25748W        W41642  12.112  14.414   0.019  0.1469 -0.0908 -0.0049
25749W        W41643  16.293   2.211   5.157  0.1368  0.1089 -0.2862
25750W        W41644  14.842   4.539   3.204 -0.1015  0.1739  0.1204
25751W        W41645   2.966  14.196  13.118  0.0672 -0.0266  0.1786
25752W        W41646  11.774   4.314   2.025 -0.0747 -0.1713 -0.2412
25753W        W41647  10.460   3.884  11.891  0.1903 -0.3727  0.3093
25754W        W41648  13.189   4.187   2.299 -0.1627  0.2655 -0.1543
25755W        W41649  13.144  15.007  13.113 -0.3633 -0.1088 -0.2798
25756W        W41650  10.519  16.977  12.009  0.1272 -0.1216  0.2704
25757W        W41651  18.397   2.963  12.559  0.0651  0.0771  0.1714
25758W        W41652  11.301   0.879  13.561  0.0319  0.0343 -0.0099
25759W        W41653  11.302   0.677   4.486  0.1941 -0.0902 -0.0699
25760W        W41654  15.646  17.892   3.101 -0.0290  0.1942  0.0966
25761W        W41655   8.192   0.677   4.705 -0.3677  0.2164 -0.1088
25762W        W41656   9.397   8.261   5.429 -0.2077 -0.0035  0.1589
25763W        W41657  10.248  15.485  15.392  0.0329 -0.0481  0.2036
25764W        W41658   7.880   1.199   2.104  0.0136  0.1973 -0.2068
25765W        W41659  18.049  13.037   6.175  0.1428  0.1602 -0.4318
25766W        W41660  12.376  15.410  16.099  0.0247 -0.0852 -0.2114
25767W        W41661   3.379   0.491   0.484 -0.0056 -0.0399  0.2203
25768W        W41662  14.845   8.375  15.114 -0.0320  0.1016 -0.0360
25769W        W41663  18.248   4.957   5.720 -0.0700 -0.0493  0.1255
25770W        W41664  11.286  17.043   4.967  0.0483  0.0049 -0.1369
25771W        W41665  11.178  14.823   3.818  0.0414 -0.0273  0.4656
25772W        W41666   8.327   9.271   3.309  0.0336 -0.1036 -0.1375
25773W        W41667  14.628   4.516   0.733  0.3145 -0.1290  0.1537
25774W        W41668   7.589  17.915  15.936 -0.0184  0.2058  0.3234
25775W        W41669   2.107   0.476   0.792  0.2227 -0.0816 -0.0761
25776W        W41670   1.182   1.047  12.886  0.0708  0.4333 -0.0789
25777W        W41671   5.550   1.031   1.180 -0.2367 -0.0934  0.0427
25778W        W41672   1.924   9.992  15.330  0.0358 -0.1809 -0.2735
25779W        W41673  12.999  15.957   2.757 -0.0454  0.0856  0.1126
25780W        W41674   8.371   3.348   4.725  0.1448  0.3736 -0.3303
25781W        W41675  16.770  11.891  14.362  0.2122 -0.2802 -0.1017
25782W        W41676   0.055  13.729   2.097 -0.0470  0.3183  0.0149
25783W        W41677   0.051   9.693   6.757 -0.0015 -0.0627  0.1192
25784W        W41678   0.516   2.811   4.730  0.0582  0.0835 -0.3719
25785W        W41679   1.442  12.425  11.448 -0.0040  0.0311 -0.0457
25786W        W41680  11.717   7.182   3.983 -0.1422 -0.3681  0.2429
25787W        W41681   6.083  13.369  15.819 -0.1802 -0.1564 -0.3057
25788W        W41682   9.815  11.309   5.058 -0.0200 -0.1216  0.0145
25789W        W41683  14.305   3.603  13.830  0.0606  0.0469  0.2485
25790W        W41684  17.983   2.686  14.285 -0.1191  0.1090  0.2069
25791W        W41685   3.485  11.494  10.849  0.1452 -0.0564 -0.2356
25792W        W41686   6.148   8.972  15.263 -0.0578 -0.2095  0.2543
25793W        W41687  15.571   8.753  14.700  0.0850 -0.0889  0.0441
25794W        W41688  17.399  18.066  12.038  0.1258 -0.0232 -0.1597
25795W        W41689   9.371  16.911   0.723 -0.0020  0.1633  0.1417
25796W        W41690  14.025   5.672   5.109  0.1226  0.0273 -0.2148
25797W        W41691  17.555  13.275  14.626 -0.3090 -0.0133 -0.1268
25798W        W41692   7.380  14.383   3.802  0.0205  0.0193 -0.1990
25799W        W41693   0.035   7.883  11.535  0.1908  0.2179 -0.0791
25800W        W41694   5.582   8.308  16.091 -0.0703  0.0077  0.1768
25801W        W41695  16.329  11.992   4.950  0.1379 -0.2325  0.2442
25802W        W41696   7.610   4.479  15.667  0.0619  0.0894 -0.0901
25803W        W41697  14.322  17.171  14.729  0.1517 -0.3260 -0.0604
25804W        W41698  16.994   6.161   0.729  0.5270 -0.4592 -0.1822
25805W        W41699   3.136  17.548  15.750  0.0789  0.1688 -0.3196
25806W        W41700   4.906   5.845   0.865 -0.3346  0.1677 -0.0233
25807W        W41701  10.792   7.456   3.625  0.0522  0.1784 -0.0519
25808W        W41702   7.846   5.025   2.662 -0.3679 -0.0707  0.0557
25809W        W41703   1.023  12.318  11.098  0.0316 -0.2314 -0.0214
25810W        W41704   1.607  17.096  11.703 -0.1523  0.1249 -0.4322
25811W        W41705  15.014  11.646  11.556 -0.2146 -0.1460 -0.1254
25812W        W41706  12.522  15.071  14.935 -0.2210  0.0851 -0.2667
25813W        W41707  14.558  15.523  15.723  0.2478  0.1515  0.1739
25814W        W41708   0.684   4.962  11.459 -0.2485  0.1085 -0.2227
25815W        W41709  11.963   2.904   2.246 -0.2263 -0.2911 -0.1221
25816W        W41710  10.678   9.167  14.222 -0.0198  0.2245  0.2313
25817W        W41711  15.918  11.342   1.238  0.0556  0.0520  0.0097
25818W        W41712  10.192   4.577   0.459  0.1721 -0.0685  0.0559
25819W        W41713   3.638  16.031   0.710 -0.0481 -0.0413 -0.1643
25820W        W41714  12.332  13.149   0.947 -0.1064  0.2453  0.0245
25821W        W41715  15.022   2.862   2.686 -0.0695 -0.0960  0.1879
25822W        W41716   1.521  10.066  15.575 -0.0743 -0.1089 -0.1201
25823W        W41717   0.570   3.061  14.043 -0.3542  0.0209 -0.2535
25824W        W41718  15.443   6.416  14.873  0.0834  0.1681  0.2280
25825W        W41719  18.340   9.356   1.667  0.3172 -0.1291 -0.0137
25826W        W41720   2.550   5.986  12.440  0.1880 -0.0134  0.0357
25827W        W41721  15.858   6.679   3.818  0.2500 -0.1223 -0.2499
25828W        W41722   2.791  15.611   0.996  0.1116  0.1588 -0.0281
25829W        W41723  17.204  16.208   5.278  0.1671 -0.1613  0.0260
25830W        W41724   7.606  17.469  11.563  0.3499 -0.1052 -0.2138
25831W        W41725   7.900  11.552  15.260 -0.2169 -0.0818 -0.3107
25832W        W41726   4.919   1.197  13.665 -0.0455  0.3080  0.2871
25833W        W41727   7.986  11.390  12.345 -0.4555 -0.1307 -0.2336
25834W        W41728  13.587  12.868   0.140  0.0046  0.0389 -0.1352
25835W        W41729   6.461   6.304  11.949 -0.0837  0.0646 -0.0109
25836W        W41730   8.637  12.134  14.940  0.1114  0.0996  0.3154
25837W        W41731  10.757  11.200   1.441  0.2031  0.2266 -0.1693
25838W        W41732   5.636  14.898  12.675 -0.0077  0.3644 -0.2470
25839W        W41733   3.810  16.229  14.835 -0.1242 -0.0664  0.0079
25840W        W41734  10.090   9.104   3.507  0.1260 -0.1301  0.1986
25841W        W41735  14.784  14.572   2.807  0.0980 -0.3931  0.1384
25842W        W41736   3.785   6.103  11.223 -0.0612  0.1723  0.0634
25843W        W41737  17.378   6.289  14.339  0.2897 -0.1008 -0.0400
25844W        W41738  11.075  12.322  13.499 -0.0653  0.0927  0.1158
25845W        W41739  15.652   9.688  16.051  0.3734  0.1869 -0.2519
25846W        W41740   4.339   4.190   1.349 -0.1964  0.0825 -0.0206
25847W        W41741   0.920   1.601   0.035  0.2328 -0.0306  0.1737
25848W        W41742  10.062   5.753  16.022 -0.2373 -0.1324  0.0549
25849W        W41743   4.944   5.791   1.341  0.1118 -0.0034 -0.2341
25850W        W41744   7.029  15.528  11.881 -0.2447 -0.3682 -0.0680
25851W        W41745   7.869  17.031  14.702  0.0309 -0.0118 -0.4207
25852W        W41746   3.567   5.034  14.564  0.0103 -0.3187 -0.2949
25853W        W41747   1.000  12.686   3.842 -0.1077 -0.1695  0.3316
25854W        W41748  11.042   9.494  12.537  0.5339  0.3481 -0.0337
25855W        W41749   4.813   4.739  12.019  0.1779 -0.2050 -0.1618
25856W        W41750  15.059  17.101  13.225 -0.0171  0.3491 -0.0612
25857W        W41751  11.771  18.430  11.241 -0.0882 -0.0377  0.1234
25858W        W41752   7.015   5.359  14.282 -0.1020  0.0798  0.0723
25859W        W41753  10.026  15.376  13.848  0.2448  0.0428  0.0835
25860W        W41754  12.894   1.261  12.183 -0.1288  0.4566 -0.0159
25861W        W41755  15.033   0.407  15.141  0.1701  0.0833 -0.2933
25862W        W41756   8.422  11.601   2.383  0.1112  0.1077 -0.3071
25863W        W41757  10.824   0.171   4.030 -0.0744  0.0510  0.2555
25864W        W41758   6.984   6.939  11.411  0.0601 -0.2400 -0.0958
25865W        W41759  18.173   0.386  11.632  0.1524  0.0284  0.3000
25866W        W41760  15.217   6.456   5.756 -0.1026 -0.0610 -0.2858
25867W        W41761  10.527  15.532   3.340  0.3058  0.0528 -0.0584
25868W        W41762   8.835   3.845  10.607 -0.2153  0.0498 -0.0228
25869W        W41763   0.293   7.067  13.060 -0.0273 -0.1889 -0.3263
25870W        W41764   9.477   8.495  14.040  0.1053 -0.0724  0.0275
25871W        W41765   3.292   9.462   9.903  0.1055  0.3378 -0.2725
25872W        W41766   8.014   7.278   2.563 -0.1393  0.0119  0.2127
25873W        W41767  14.259  11.167   4.828  0.0519  0.4593  0.2353
25874W        W41768  18.019   2.863  13.832 -0.0203 -0.3563  0.2931
25875W        W41769   7.809  11.903  14.853 -0.0708  0.3079 -0.1953
25876W        W41770   9.044  13.950   3.658  0.0602  0.0728 -0.0915
25877W        W41771  12.223   6.174  15.843 -0.2186  0.3291  0.3100
25878W        W41772  10.766   4.151   3.613 -0.2589  0.0888  0.0706
25879W        W41773  10.322   3.300   3.029  0.1210  0.2611 -0.2316
25880W        W41774  11.138  10.109   2.626 -0.0314  0.1198 -0.2827
25881W        W41775   6.159  17.020  13.361  0.0304 -0.1614 -0.0243
25882W        W41776  13.985  10.551   4.764  0.2356 -0.1240  0.3307
25883W        W41777   1.120  17.743  16.059 -0.0433  0.0778  0.0874
25884W        W41778  13.957   2.382   2.842  0.0427 -0.0139  0.1844
25885W        W41779  10.631  11.429  11.951 -0.1894  0.3266 -0.2434
25886W        W41780   0.137  11.785  13.881 -0.1947 -0.0029 -0.0839
25887W        W41781  11.903   7.550   4.410  0.1387  0.1610 -0.0864
25888W        W41782   6.968  17.091   0.757 -0.3833 -0.5371 -0.1949
25889W        W41783  17.066  12.520   2.293  0.0921  0.2085 -0.0881
25890W        W41784  16.202   9.312  12.304 -0.0433 -0.1337 -0.0660
25891W        W41785   3.009   4.105  15.278  0.0081 -0.2054  0.1601
25892W        W41786  12.974   9.796   5.201 -0.2309  0.0173  0.0675
25893W        W41787   6.044  11.452  12.895 -0.0097  0.1914  0.0979
25894W        W41788  15.203   4.125  11.801  0.4042  0.2737  0.0344
25895W        W41789  11.135   3.170  14.197 -0.3914  0.0391  0.3269
25896W        W41790  13.653   9.581  13.789 -0.0782 -0.1089  0.1450
25897W        W41791  12.697   7.220   0.890  0.1561  0.2602 -0.0890
25898W        W41792   3.049   9.090   3.970 -0.1422 -0.0345 -0.2758
25899W        W41793   0.709  16.006  12.162 -0.2309 -0.2531 -0.4694
25900W        W41794  11.962  16.009   1.120  0.0225  0.3221  0.0527
25901W        W41795   0.689  15.139  12.662 -0.0940 -0.1193 -0.1120
25902W        W41796   9.851   9.453   3.830 -0.0336  0.0516 -0.1064
25903W        W41797   1.051  10.807   0.878 -0.0137 -0.0342 -0.2035
25904W        W41798   6.649   7.267   4.836 -0.1279  0.0079 -0.3462
25905W        W41799   0.088  14.823   5.899  0.3054 -0.1655 -0.0483
25906W        W41800   3.446  18.131  13.145 -0.0820  0.2585 -0.2820
25907W        W41801   1.685   4.620  15.299  0.0725  0.1343 -0.3916
25908W        W41802   0.252   9.778   4.838  0.0856 -0.1268  0.0800
25909W        W41803  17.780  17.679  12.238 -0.3385  0.1415  0.0845
25910W        W41804  13.491   1.612   4.202 -0.2158 -0.1924 -0.2316
25911W        W41805   4.104  13.283  14.589 -0.1160 -0.1281 -0.0654
25912W        W41806   3.917   9.874  12.581 -0.3924  0.0013  0.1624
25913W        W41807  16.722   6.767   2.440 -0.0751  0.2035  0.1229
25914W        W41808  15.034  13.071   0.324  0.0101  0.2101  0.0548
25915W        W41809   5.221  17.948   5.473  0.2790  0.1218  0.0689
25916W        W41810   2.360   0.976  14.838 -0.0802 -0.2611  0.2148
25917W        W41811  15.158   4.284   5.077  0.4321 -0.1447 -0.2504
25918W        W41812   2.255   6.701  14.282 -0.2418  0.0675 -0.0339
25919W        W41813  18.423  18.066   3.972  0.0664 -0.0608  0.3668
25920W        W41814   6.401   4.689  14.543  0.1313  0.1628 -0.0700
25921W        W41815  14.107   1.693  13.854 -0.2188  0.3038 -0.1328
25922W        W41816  14.749   7.124   4.506 -0.0126  0.0024 -0.1000
25923W        W41817  14.563  13.745  12.305  0.2176  0.1608  0.0775
25924W        W41818  14.319   6.271  13.117  0.4746  0.0315 -0.2156
25925W        W41819   8.703   1.734   1.617  0.1437 -0.0833 -0.1559
25926W        W41820   3.905   3.798  12.412  0.1040 -0.1770 -0.0979
25927W        W41821   8.326  15.796  15.013  0.1180 -0.0028  0.1906
25928W        W41822  11.383  10.074  15.150 -0.4418  0.1394 -0.0850
25929W        W41823  16.873   6.712   3.864  0.2847 -0.1409  0.1491
25930W        W41824   7.376   0.861   5.168  0.0078  0.0723 -0.0839
25931W        W41825   7.179   2.465  12.475  0.1672  0.1253 -0.1327
25932W        W41826   6.006  11.339   5.073 -0.0558  0.0590 -0.0041
25933W        W41827   7.928  18.107   1.667  0.1800 -0.1071  0.0823
25934W        W41828   8.940   7.258  14.028  0.3462  0.1968 -0.2059
25935W        W41829  14.361   1.123  15.203  0.1671 -0.0008  0.1474
25936W        W41830  13.362  17.244   4.339  0.2865  0.0080  0.2591
25937W        W41831   0.433  14.214  14.103 -0.2783 -0.1852 -0.2688
25938W        W41832  12.516   5.758   6.544 -0.1416 -0.1561 -0.1379
25939W        W41833  13.341   8.917   4.330  0.0308 -0.4150 -0.0184
25940W        W41834  15.887   4.593  12.486  0.0565 -0.1355 -0.4031
25941W        W41835   0.860   3.522  14.004  0.2750 -0.1622  0.1513
25942W        W41836   1.733  13.868  15.940 -0.0441  0.1003 -0.1133
25943W        W41837  13.368  16.701   3.518  0.1683 -0.0163 -0.2412
25944W        W41838   9.192   5.603  15.060  0.1476 -0.0458 -0.0868
25945W        W41839  17.572  15.822   2.180 -0.0048 -0.0728 -0.1689
25946W        W41840  16.272   2.719   5.087  0.1611  0.0066 -0.0453
25947W        W41841   2.418  14.070   0.779  0.0657 -0.0612 -0.1527
25948W        W41842   9.947  12.459  12.372  0.1252  0.1120 -0.2391
25949W        W41843  18.169   1.516   3.565 -0.0209  0.0683 -0.1365
25950W        W41844   5.221  16.060   1.503 -0.1396 -0.0902 -0.6550
25951W        W41845   0.177   4.406   2.314  0.2337  0.1102  0.0378
25952W        W41846  16.797   7.014   0.050  0.0677 -0.2464  0.0388
25953W        W41847  16.699   8.235  15.388 -0.1058 -0.0355  0.1989
25954W        W41848  16.759   8.981  15.506 -0.2598  0.2167 -0.0487
25955W        W41849   8.347   8.680   0.366  0.1997  0.2016  0.0414
25956W        W41850   2.394   0.204  13.553 -0.0005 -0.0709  0.1415
25957W        W41851  15.668   4.647   2.180 -0.0547  0.2722  0.1232
25958W        W41852  18.097  13.496  15.752  0.0981 -0.2141 -0.2001
25959W        W41853   8.306  13.546   1.952  0.1674  0.3089  0.0662
25960W        W41854  11.313   1.337   0.000  0.1261  0.4131 -0.2243
25961W        W41855   3.129   9.153   1.161 -0.1328  0.0638  0.2992
25962W        W41856  17.688   1.689   4.404 -0.1340 -0.1079 -0.2105
25963W        W41857  17.671   5.099   4.335 -0.1203  0.0926  0.0985
25964W        W41858   2.393  16.130  15.075 -0.3191  0.3166 -0.1846
25965W        W41859  14.750   0.234   1.131 -0.0806  0.2875  0.1205
25966W        W41860  13.893   0.427   4.104 -0.1404  0.0421 -0.2038
25967W        W41861  15.706   8.214  13.571 -0.4916  0.1683  0.0531
25968W        W41862  14.874   7.084  16.032  0.1656 -0.1867 -0.1265
25969W        W41863  12.861   2.046   3.184 -0.2315  0.1359 -0.0649
25970W        W41864   5.952   8.780  13.510 -0.0206 -0.2702 -0.2908
25971W        W41865  17.978   8.878  15.074 -0.0111 -0.0794  0.1924
25972W        W41866   3.318   3.765  11.213 -0.1189 -0.0198  0.2583
25973W        W41867  14.014  12.062   4.961  0.1944 -0.1993  0.3459
25974W        W41868   4.106  12.566  14.052  0.0719 -0.1089  0.2495
25975W        W41869   1.025   0.829   2.268 -0.2320 -0.2475 -0.4086
25976W        W41870   2.911   9.379  13.825  0.0802 -0.1638  0.0128
25977W        W41871   5.488  14.541  15.468 -0.1291  0.0872 -0.1020
25978W        W41872  15.652  17.657   4.183 -0.0177 -0.1641  0.1161
25979W        W41873   8.239  15.313  15.625  0.0803 -0.3918 -0.0168
25980W        W41874   7.022   2.810   3.835  0.0191  0.1195 -0.2136
25981W        W41875   0.333  13.744  12.290  0.3479  0.0259 -0.1287
25982W        W41876  17.388  15.451   3.871  0.4703  0.0002  0.0233
25983W        W41877   8.010   3.413  11.024  0.1216  0.2629  0.0782
25984W        W41878   7.849   2.603   5.678  0.3034  0.2081 -0.0273
25985W        W41879   0.328   5.095  15.577 -0.2462  0.2418  0.0777
25986W        W41880  13.070  13.172  12.999  0.3198 -0.2135 -0.1452
25987W        W41881   1.927  10.039  14.246  0.2758  0.1651 -0.0669
25988W        W41882   4.543  16.882   4.281 -0.0526 -0.2240  0.1949
25989W        W41883  16.531   4.154  11.830  0.3090 -0.0016 -0.0062
25990W        W41884   0.426  16.564  14.360  0.3783 -0.0661 -0.0492
25991W        W41885  13.819   9.670  12.313  0.1519 -0.1661  0.2387
25992W        W41886  11.255  14.219   0.518 -0.4134 -0.1283 -0.0839
25993W        W41887   5.307   8.671   3.511 -0.3699 -0.0088  0.3991
25994W        W41888  16.991  10.696   0.823  0.1364 -0.1796  0.0863
25995W        W41889  16.870   2.796  16.023  0.1118  0.2842  0.3589
25996W        W41890   2.779  16.454   2.041  0.1560  0.2427  0.0359
25997W        W41891   3.393   1.765   2.671  0.1386 -0.1944  0.1304
25998W        W41892  10.121   9.951  11.126  0.0270  0.2445 -0.0586
25999W        W41893   9.442   7.964   4.071 -0.2939 -0.0482  0.1481
26000W        W41894   0.260  17.298   4.838  0.0291 -0.0144 -0.2568
26001W        W41895   7.730  16.635  11.991  0.1143  0.2367 -0.3071
26002W        W41896   7.310   9.623  15.472 -0.1408 -0.3660 -0.2592
26003W        W41897   4.819   0.503  16.024  0.0537 -0.3842  0.0707
26004W        W41898   8.241   6.567   3.546  0.0107  0.4315  0.0638
26005W        W41899  14.968   2.380  12.223  0.0356  0.0366  0.5423
26006W        W41900  17.715  13.274   1.064 -0.2665 -0.0204  0.0255
26007W        W41901  14.623  14.118   2.868 -0.0306  0.1390 -0.0622
26008W        W41902  18.232   7.278   2.979  0.1919  0.1407  0.1905
26009W        W41903  12.535   0.513  12.683 -0.1075 -0.2860 -0.0600
26010W        W41904   2.116   1.850  14.906 -0.0798  0.0964 -0.0488
26011W        W41905   3.229   4.068   4.120 -0.1044  0.0704  0.0781
26012W        W41906   1.700   2.954  15.887 -0.2469 -0.0391  0.1364
26013W        W41907  14.790   3.048   0.810 -0.0685 -0.3122 -0.0946
26014W        W41908  17.736   3.077   5.088 -0.3525 -0.0803 -0.1290
26015W        W41909  10.958   2.054  11.646 -0.1685  0.1544  0.2076
26016W        W41910   4.561   2.233  10.345 -0.2252 -0.3798 -0.2162
26017W        W41911  12.131  11.070   4.449 -0.1915  0.1287  0.1946
26018W        W41912  12.945   4.898   0.641  0.4164 -0.1766 -0.0972
26019W        W41913   9.135  18.238   1.271 -0.2045  0.1352  0.0804
26020W        W41914  10.967  15.943  12.705 -0.0384  0.1763  0.2668
26021W        W41915  15.840  15.808   4.100 -0.1589  0.2088 -0.3053
26022W        W41916   0.629  10.594   0.697  0.0084 -0.2304  0.3390
26023W        W41917  12.953   4.217   4.352  0.0376  0.1937  0.0401
26024W        W41918   7.007   3.167  16.026  0.1016 -0.2199 -0.1686
26025W        W41919   6.161   6.208   5.583  0.2885 -0.0505  0.2099
26026W        W41920  16.683   9.092   3.262  0.0288 -0.0429  0.1704
26027W        W41921   1.720  16.615  12.604  0.0498 -0.0921  0.1222
26028W        W41922   8.783   9.266  14.556 -0.1738  0.3302 -0.0628
26029W        W41923   4.112  16.479  12.144 -0.0462  0.1504  0.1146
26030W        W41924   1.688  10.169   3.007  0.1192  0.2119  0.2229
26031W        W41925  10.209  17.163   6.028  0.0982  0.1906 -0.0761
26032W        W41926  12.863   5.278  12.548  0.2760  0.2304 -0.0422
26033W        W41927  12.723  13.655  15.658 -0.2583  0.0024 -0.1220
26034W        W41928   7.825  14.537   2.862  0.0571 -0.2351 -0.0476
26035W        W41929   4.862   1.156  13.078 -0.1616  0.2037 -0.2107
26036W        W41930  10.014   8.766   0.116  0.3869  0.1246 -0.1363
26037W        W41931  10.628  11.213   1.973  0.0879  0.0285  0.0709
26038W        W41932  13.598   5.411   0.366  0.0342  0.1316 -0.3535
26039W        W41933  12.390   9.440   2.501 -0.2146 -0.3022 -0.2399
26040W        W41934   2.678   1.779   3.432  0.2911 -0.2083 -0.0869
26041W        W41935   3.633   8.812   4.887  0.2484 -0.2255 -0.0599
26042W        W41936   2.177   0.180   4.357 -0.0385  0.0649 -0.1217
26043W        W41937  13.364   5.505  15.351 -0.0086  0.2670 -0.0533
26044W        W41938  13.732   1.053  12.781  0.2848  0.0477  0.1148
26045W        W41939   0.632   4.763   3.204 -0.1218 -0.1421 -0.1515
26046W        W41940   9.750   9.180   3.037 -0.0797  0.1331  0.0108
26047W        W41941   0.163   9.891  13.216  0.1192 -0.0411 -0.0520
26048W        W41942   9.101   6.386  11.753 -0.0078  0.1536  0.1400
26049W        W41943   2.584   6.005   2.779 -0.1129 -0.3360  0.3610
26050W        W41944   5.795   9.619   3.725 -0.1496  0.0545 -0.4058
26051W        W41945   9.371   8.196  15.316 -0.2794 -0.2332  0.0356
26052W        W41946   2.585  14.306  10.962  0.1123  0.1269  0.0041
26053W        W41947   9.525   9.016  14.043  0.1916 -0.2742  0.1042
26054W        W41948  11.799  13.615   4.650  0.1098 -0.0821 -0.0156
26055W        W41949   5.779  13.712   1.601  0.5442 -0.1860 -0.1439
26056W        W41950   9.388   9.446   3.492  0.1047 -0.0166 -0.1772
26057W        W41951   8.485   8.593   4.171  0.0172  0.5155 -0.0282
26058W        W41952  10.707  16.583  11.064  0.0389  0.1520  0.1009
26059W        W41953   4.497   0.972   5.145 -0.0189  0.2475  0.1824
26060W        W41954   9.245   9.962   3.152  0.2458 -0.0295 -0.0981
26061W        W41955   8.883   4.401  13.642 -0.0307 -0.1701  0.0138
26062W        W41956  10.447   3.324  12.624  0.2225 -0.2413 -0.0977
26063W        W41957  11.722   3.704  11.574  0.0822 -0.1765  0.1130
26064W        W41958   7.996   6.061  11.132 -0.0698 -0.2428 -0.1058
26065W        W41959   7.732  12.194   3.445  0.2102 -0.0456  0.2999
26066W        W41960  16.506  18.362   2.966 -0.0631  0.0801 -0.2006
26067W        W41961  15.031   0.082  15.729 -0.1059 -0.3211 -0.0888
26068W        W41962   9.588   6.153  10.064  0.0659 -0.0211  0.3504
26069W        W41963   0.755  15.070  12.081 -0.0926  0.0455  0.0589
26070W        W41964   1.809   6.349   0.143  0.1214  0.1452  0.1968
26071W        W41965   5.967  17.624  13.656  0.0067 -0.0407  0.2648
26072W        W41966   1.946   0.357  10.900 -0.0052 -0.4873 -0.0261
26073W        W41967   0.134   2.415  15.259  0.0971 -0.1320  0.1421
26074W        W41968   2.801  14.771  14.384  0.0624 -0.1326 -0.0659
26075W        W41969   2.607  13.121   0.463  0.1107 -0.0190 -0.1389
26076W        W41970  11.989   7.621   3.375 -0.4315 -0.1604  0.1471
26077W        W41971   3.348   8.749  11.009 -0.0766 -0.1969 -0.0434
26078W        W41972   7.682   4.625  12.197  0.0494 -0.0601  0.1376
26079W        W41973   2.003   8.218  14.956 -0.0530 -0.1426 -0.0680
26080W        W41974   6.323   1.727  10.438 -0.2058 -0.2760 -0.2716
26081W        W41975  14.893   6.267   4.151 -0.1841  0.1114  0.1802
26082W        W41976   4.236   4.073   5.575 -0.1717 -0.0215  0.2009
26083W        W41977  15.099  11.065   2.797 -0.3135 -0.0669  0.0242
26084W        W41978   5.560  12.676  13.414 -0.0227  0.0025  0.0503
26085W        W41979  17.045   9.920  12.417 -0.0670  0.0714  0.2642
26086W        W41980   7.903   8.726  12.506  0.0063  0.0929 -0.1380
26087W        W41981  12.738  15.333   2.535 -0.2332  0.0528  0.4023
26088W        W41982   6.314  11.345  10.770 -0.1753 -0.0935  0.0947
26089W        W41983   3.428   9.246   4.691 -0.2166 -0.0346 -0.0088
26090W        W41984   0.148   8.069  13.127  0.1107 -0.2518 -0.0096
26091W        W41985  13.144   2.466  15.104  0.1064  0.3702 -0.0008
26092W        W41986   8.934   1.388   3.799 -0.1930  0.1520 -0.0396
26093W        W41987  10.941  16.825  12.238 -0.0144  0.1386  0.3365
26094W        W41988   5.352  14.285   3.970  0.0150  0.0869  0.2092
26095W        W41989   4.739   8.973  13.381  0.1809 -0.0594  0.0208
26096W        W41990   7.339  18.229  14.917 -0.1792  0.1233  0.0136
26097W        W41991  15.143  13.864   4.326 -0.1526 -0.0300  0.1620
26098W        W41992   2.582  17.458  14.834 -0.0542  0.0694  0.0550
26099W        W41993   6.097   8.794  11.715 -0.2694 -0.0329  0.0189
26100W        W41994  10.516   0.040  14.159 -0.0010 -0.3652 -0.3551
26101W        W41995  18.063  11.574  11.710 -0.2071  0.3286 -0.1916
26102W        W41996  16.785  16.676  13.379  0.2275 -0.0668  0.2926
26103W        W41997  15.273  13.954   4.766 -0.0813 -0.3180  0.0110
26104W        W41998   5.625   6.448   9.999  0.2044 -0.1661 -0.0104
26105W        W41999   9.103   5.659   5.045 -0.1446  0.0215 -0.0429
26106W        W42000   4.307   9.913  12.247  0.2030 -0.3209  0.2505
26107W        W42001  11.711  15.392  13.813 -0.0495  0.1196  0.0805
26108W        W42002   3.510   7.745   3.854  0.0777  0.0628 -0.1199
26109W        W42003   3.842  13.269  15.214 -0.2413  0.0362 -0.1752
26110W        W42004   7.392  10.637   2.126 -0.0740 -0.1737 -0.3004
26111W        W42005   6.973  13.599   3.194 -0.0700 -0.0999  0.1985
26112W        W42006  11.680   8.085   1.328 -0.2571 -0.0202 -0.1075
26113W        W42007  18.412   2.471  12.594  0.0397  0.0143 -0.2106
26114W        W42008   6.910  12.500  13.413  0.0180 -0.2434 -0.1730
26115W        W42009  16.267   9.612   2.725 -0.0362 -0.2428 -0.1641
26116W        W42010  16.756   6.466  12.793 -0.1941 -0.1100  0.0406
26117W        W42011  17.019   7.356   3.131 -0.1552 -0.0782  0.3595
26118W        W42012  13.812   3.154  15.636 -0.0026 -0.3155 -0.0416
26119W        W42013   4.972   3.170   4.672 -0.0859  0.2002 -0.1256
26120W        W42014   4.650  17.156   4.797  0.2182  0.0508  0.0239
26121W        W42015  12.277   9.311  13.589 -0.0937  0.2020  0.2177
26122W        W42016  12.434   0.744  13.166 -0.1293 -0.0229 -0.1185
26123W        W42017  13.681  11.285   5.467  0.3427  0.0376 -0.0272
26124W        W42018   1.727   6.493   4.410 -0.1313  0.0892 -0.1595
26125W        W42019  13.429   8.964   1.437 -0.5243 -0.0120  0.0032
26126W        W42020  12.943   6.982   1.387  0.0474 -0.1020 -0.0123
26127W        W42021  12.715  14.748   2.531  0.3292 -0.0379 -0.2357
26128W        W42022  13.466   9.662   0.185  0.2306 -0.3835 -0.1576
26129W        W42023  13.472  14.909  14.838 -0.0325  0.0699 -0.2402
26130W        W42024  14.179   9.765  13.108  0.2723  0.1243  0.1563
26131W        W42025   5.707  15.311   1.298 -0.0083 -0.0668 -0.1756
26132W        W42026   1.901  12.627  16.080 -0.1665  0.1816  0.3906
26133W        W42027   9.100  16.722   4.075  0.1837  0.1149  0.2703
26134W        W42028  14.635   8.704   3.382 -0.0556 -0.2152  0.0371
26135W        W42029  11.085  16.802  11.304 -0.0971  0.2658 -0.0704
26136W        W42030   0.491   2.190  15.425  0.1419  0.1109 -0.0960
26137W        W42031  13.065   6.591   4.124 -0.0421  0.0685 -0.3266
26138W        W42032   6.880   7.819  11.675 -0.1967  0.0081  0.0917
26139W        W42033   2.109  17.227  11.974 -0.0007 -0.2452  0.0869
26140W        W42034   2.855  10.967   0.680  0.1261  0.1351 -0.0955
26141W        W42035  15.762  15.998  15.820  0.2353  0.2121  0.1043
26142W        W42036  15.581  14.561   2.987 -0.0839 -0.0834  0.0431
26143W        W42037   6.062   7.459   5.038  0.2028 -0.0299 -0.1245
26144W        W42038   9.038   9.895   3.597  0.1663  0.4608 -0.0914
26145W        W42039   1.557   0.716  15.594 -0.0186 -0.0260 -0.2679
26146W        W42040   8.964   8.214  12.994 -0.0726  0.0828 -0.2394
26147W        W42041   3.750   2.649   2.452  0.4369 -0.0218  0.0262
26148W        W42042  16.122   9.738  13.652  0.1097  0.2418  0.1060
26149W        W42043  15.811  12.671  12.995  0.0276 -0.2823 -0.0241
26150W        W42044  12.678   3.946  12.632  0.5973  0.0297 -0.1454
26151W        W42045   9.422  14.871   1.842 -0.0145 -0.0305  0.3264
26152W        W42046  13.565   6.612  15.960  0.0886  0.3494 -0.2094
26153W        W42047  12.761   4.949   5.205  0.0810  0.0062  0.1869
26154W        W42048  17.745  10.371   6.352 -0.0516  0.4323  0.5459
26155W        W42049  11.448  15.382   4.600 -0.0572 -0.0702 -0.1850
26156W        W42050   0.183   3.724   2.742  0.5490 -0.1062 -0.2033
26157W        W42051  14.699   1.166   0.676  0.3949 -0.1336  0.0099
26158W        W42052   8.300   1.960   4.805 -0.1834 -0.0277  0.0454
26159W        W42053   8.475   3.744  15.473 -0.1062 -0.1981  0.0392
26160W        W42054  12.836  12.702   3.570  0.2057 -0.0166  0.1084
26161W        W42055   8.570  12.154   1.074 -0.1451  0.3018 -0.3476
26162W        W42056  11.587   0.504   0.243  0.2671 -0.0853  0.2706
26163W        W42057  10.497  10.195  10.354 -0.0500 -0.0688  0.0085
26164W        W42058  11.214  14.493   1.915  0.0805 -0.1967 -0.2850
26165W        W42059   2.306   9.859  11.740  0.0402  0.1617 -0.0461
26166W        W42060   8.581  10.343   4.229 -0.1843  0.0206  0.0418
26167W        W42061   1.667   1.222   2.820  0.2606  0.2781  0.1326
26168W        W42062   3.410  16.274  11.512 -0.3322 -0.0464  0.1754
26169W        W42063   8.374   3.715  10.427  0.3189 -0.0069 -0.3005
26170W        W42064   2.062  13.410  14.619 -0.2218  0.0404  0.4641
26171W        W42065  14.616  11.456  11.196  0.0148 -0.3662  0.1107
26172W        W42066   6.384   7.919   0.630 -0.1780  0.0204  0.0998
26173W        W42067   0.638  10.549   1.689  0.1178  0.1874  0.0190
26174W        W42068   7.549  13.928  12.163 -0.0693 -0.0099  0.2445
26175W        W42069  17.243   1.743  15.828  0.1276 -0.0971 -0.0081
26176W        W42070   6.494  10.039  15.321  0.2366 -0.0120  0.0065
26177W        W42071  17.389   1.711   2.671  0.3046  0.1486 -0.1857
26178W        W42072   6.339   4.576   3.708 -0.2717  0.0709 -0.4007
26179W        W42073   5.742  14.712   5.985 -0.1968 -0.0234 -0.2865
26180W        W42074   9.162  17.740   0.091  0.1129 -0.2175  0.1500
26181W        W42075  17.099   5.761  11.664 -0.1986  0.0742  0.1843
26182W        W42076  17.501  12.986  15.232  0.0573  0.3001  0.3305
26183W        W42077  12.632   7.096  12.490  0.0841  0.1312 -0.3718
26184W        W42078  15.186  12.148  14.257  0.2782 -0.0097 -0.2111
26185W        W42079   8.591  11.149  10.918 -0.0156 -0.3360  0.0025
26186W        W42080  16.333   6.373  14.670  0.1166 -0.3237 -0.0484
26187W        W42081   3.708  11.689  14.271  0.2135 -0.0769  0.1043
26188W        W42082  11.879   3.082  15.053 -0.1305 -0.1453  0.0444
26189W        W42083   9.246   5.262   0.009  0.0043 -0.4807  0.0206
26190W        W42084   2.312   7.388   1.700 -0.3058 -0.1040 -0.0095
26191W        W42085  14.340  16.520  11.010  0.0114  0.1014  0.2671
26192W        W42086  15.017   9.312   1.147  0.0403  0.0014  0.0158
26193W        W42087  15.204   3.929   1.750  0.1544  0.2260 -0.1497
26194W        W42088   8.110   2.909  12.935  0.0341 -0.0594 -0.2976
26195W        W42089   0.957   2.809   2.150  0.1088  0.2557 -0.2168
26196W        W42090   9.724   8.037   2.473 -0.0485 -0.1889  0.0933
26197W        W42091   7.570   5.442  10.338  0.1302 -0.1546 -0.0676
26198W        W42092   0.693  14.497   5.490  0.0955 -0.3764 -0.0711
26199W        W42093  11.821   3.509  13.732 -0.1012  0.2775 -0.1646
26200W        W42094   9.029   4.840   0.155 -0.0108 -0.0894  0.0712
26201W        W42095  15.938   9.256  11.564  0.0546 -0.1369  0.0228
26202W        W42096   9.234  13.476   1.488  0.0153 -0.1175  0.2320
26203W        W42097  13.990  16.163   5.850  0.0463 -0.0876  0.1861
26204W        W42098   6.720   0.396   0.594  0.0006  0.0127  0.0062
26205W        W42099  10.434   7.198  14.901 -0.0135 -0.0127  0.0392
26206W        W42100  18.398   0.847  12.309 -0.0184 -0.1609 -0.0263
26207W        W42101  16.721   0.399  14.693  0.1444 -0.1673  0.2445
26208W        W42102  14.426   6.743  15.973  0.1814 -0.0075  0.0861
26209W        W42103   1.701   5.187  14.592 -0.0201  0.1534  0.1635
26210W        W42104   8.903  10.680   3.334 -0.0932 -0.3993  0.0580
26211W        W42105  15.837  17.207  15.365 -0.1415 -0.2538  0.2046
26212W        W42106   3.696   7.797   1.622 -0.0189  0.1303 -0.0176
26213W        W42107  10.059   4.722   3.505  0.0099  0.3100 -0.0543
26214W        W42108   7.843   0.363  13.647  0.0664  0.0390 -0.0964
26215W        W42109   5.879  11.721  13.980  0.0445  0.0351 -0.0032
26216W        W42110  13.544  14.586  15.896  0.0053  0.0879  0.0058
26217W        W42111   8.697  16.105   0.677  0.2064 -0.0629  0.1033
26218W        W42112  11.870  16.602  13.451  0.3684 -0.4749  0.3647
26219W        W42113  12.525   7.641  15.817 -0.2029  0.0169 -0.2035
26220W        W42114   7.997  18.289   1.201  0.2796 -0.0767 -0.3311
26221W        W42115  10.216   0.617   5.355 -0.1822 -0.0240  0.0293
26222W        W42116  17.577   6.821   4.239 -0.0185  0.1784  0.2253
26223W        W42117  15.926   9.833   4.780 -0.0653 -0.0336 -0.0253
26224W        W42118  14.380   3.848  15.610  0.0156 -0.0143 -0.0356
26225W        W42119  15.761  15.370  13.952  0.2911  0.1004 -0.0943
26226W        W42120   5.685   5.536   1.656 -0.1949 -0.1390 -0.1740
26227W        W42121   9.796   2.961  11.598 -0.2207  0.1057  0.3436
26228W        W42122   5.983   8.981   0.520 -0.1836 -0.2050  0.3726
26229W        W42123   5.971   2.696  10.135  0.0158 -0.1136 -0.0535
26230W        W42124  11.970   6.402   2.118 -0.1110  0.1764  0.0601
26231W        W42125   6.978  17.920  10.913 -0.3538 -0.1851  0.4124
26232W        W42126  12.568   6.665  13.938 -0.1286  0.1237  0.3123
26233W        W42127  11.046  12.058   0.327 -0.2767 -0.3261 -0.1146
26234W        W42128   0.023   7.833   2.199  0.0404  0.2089  0.0415
26235W        W42129   8.207   5.041  14.281  0.2288 -0.3486  0.3146
26236W        W42130   8.092  13.614   1.448  0.4515 -0.0232  0.1601
26237W        W42131   3.160   1.931  13.429  0.0188  0.0168  0.1705
26238W        W42132   3.530  16.761  15.446  0.2044 -0.0996  0.0067
26239W        W42133  12.778  15.833   1.119  0.0808 -0.1640 -0.2846
26240W        W42134  10.730   5.338  12.307  0.0782 -0.1409 -0.2208
26241W        W42135   0.724  15.070  13.988  0.0881 -0.0195  0.1730
26242W        W42136  16.294   2.407  15.467 -0.1965 -0.0899 -0.0394
26243W        W42137  13.779  17.383  11.035 -0.3197 -0.0931 -0.0043
26244W        W42138  15.491   8.624   1.652  0.0499  0.3360 -0.2376
26245W        W42139   0.124  17.620   1.524 -0.0932 -0.0538 -0.3677
26246W        W42140   4.876  16.122  14.128 -0.0170  0.0910 -0.3120
26247W        W42141   4.115   6.355  13.136  0.2678  0.1989  0.0655
26248W        W42142   5.230   3.759   1.589  0.0574 -0.0739  0.1231
26249W        W42143   7.135  12.997  15.687 -0.3108 -0.0855  0.0471
26250W        W42144  17.568   1.316  16.050 -0.1142 -0.0441 -0.0365
26251W        W42145  17.233  12.045   0.555  0.0307 -0.1014 -0.2525
26252W        W42146   8.242   3.172  13.780 -0.2642 -0.1687  0.2582
26253W        W42147  17.868  17.148   3.501  0.2441 -0.0555  0.2214
26254W        W42148   1.132   4.179   0.109  0.0185  0.1836 -0.1202
26255W        W42149   5.863  10.236   1.921  0.0164 -0.0352 -0.1140
26256W        W42150  15.627  11.548   4.766  0.4363  0.0586  0.0691
26257W        W42151  16.736   5.581  13.348  0.0508  0.2682 -0.0125
26258W        W42152   0.347   5.884   6.215  0.2428 -0.0294  0.2697
26259W        W42153   2.451  16.025  11.274  0.0034  0.0080  0.0916
26260W        W42154  16.918  13.478   0.512  0.2388  0.2099 -0.3146
26261W        W42155  12.277   9.856  15.179  0.0331  0.1197 -0.1539
26262W        W42156   7.699   5.663  11.220  0.0701  0.2221 -0.3282
26263W        W42157  13.275   3.968   1.697 -0.3815  0.3711 -0.4565
26264W        W42158  14.008   2.161  15.550 -0.1426 -0.2207 -0.1153
26265W        W42159   8.165  16.972   4.949  0.1263  0.1385  0.5422
26266W        W42160  13.028  14.124  14.789 -0.1932  0.3315 -0.0141
26267W        W42161  17.447   7.683  15.212 -0.3185  0.0295 -0.0921
26268W        W42162   8.973  13.519   5.365 -0.0167 -0.0975 -0.2907
26269W        W42163   9.257   5.282   0.549  0.0395  0.0950  0.2647
26270W        W42164   7.202   8.135   5.930  0.1530  0.1532 -0.0544
26271W        W42165   0.826  14.747  12.457  0.1355  0.4224 -0.0586
26272W        W42166   7.005   3.518  12.123  0.1890 -0.2226  0.0838
26273W        W42167   7.400  14.032   1.058 -0.2951 -0.3421  0.1429
26274W        W42168  10.459  15.630  13.827  0.2432  0.1535 -0.1070
26275W        W42169   5.865   3.352   2.102  0.2479 -0.1107 -0.4423
26276W        W42170  15.956  11.017  12.623  0.1031  0.2499  0.1941
26277W        W42171   8.758  16.961  14.549 -0.3243 -0.0286  0.0308
26278W        W42172  12.645   4.922   1.430  0.0642 -0.0715  0.0011
26279W        W42173  12.634  14.789   1.383 -0.1240 -0.1752  0.2034
26280W        W42174  11.378  15.736  12.958 -0.0045  0.1553  0.2646
26281W        W42175   3.431   4.513  11.919 -0.0187 -0.2894  0.0272
26282W        W42176   6.230   7.421  13.507 -0.3233 -0.2081  0.0392
26283W        W42177  15.123   7.486  12.736  0.2068  0.1287 -0.1409
26284W        W42178  17.464  10.316   4.356 -0.2461 -0.2017 -0.1662
26285W        W42179   5.645  18.113  15.711 -0.1266  0.0435 -0.1995
26286W        W42180   7.574   2.570  13.700 -0.0362 -0.1631  0.3236
26287W        W42181   4.805   1.696  11.681 -0.0969 -0.0619  0.1324
26288W        W42182   6.252  13.387  15.309  0.5278  0.0904  0.1438
26289W        W42183  16.045  12.062  12.328  0.1319  0.0771  0.3661
26290W        W42184  16.529   1.442   0.264  0.0147  0.0363 -0.1070
26291W        W42185  17.822  16.986  15.239  0.0082  0.2766 -0.0234
26292W        W42186  15.656  14.498   1.908 -0.1335  0.0261  0.2009
26293W        W42187   7.591   1.046   2.921 -0.0911  0.0310 -0.3628
26294W        W42188  14.416   4.484  13.424  0.0672  0.1151  0.1547
26295W        W42189  17.540  17.951   5.356 -0.2605 -0.0512  0.2997
26296W        W42190  16.386   0.079   0.896 -0.2102  0.2927  0.0438
26297W        W42191   3.079  17.565   4.962 -0.1287 -0.0823 -0.0606
26298W        W42192  13.359  11.137   2.654 -0.0844 -0.0011  0.0166
26299W        W42193  11.232   3.006   1.615 -0.0140  0.1960 -0.1411
26300W        W42194  14.059   6.380  15.715  0.3854  0.2586  0.3722
26301W        W42195   3.592   9.767   0.254  0.0269 -0.0907  0.1549
26302W        W42196  11.318   5.240   1.187 -0.3071  0.2820  0.1154
26303W        W42197   0.741  12.374   1.706 -0.0479 -0.0076  0.1157
26304W        W42198   6.226   1.130  12.909 -0.1311 -0.0109 -0.0096
26305W        W42199  13.506   5.621  12.287  0.0259 -0.1729  0.2466
26306W        W42200   3.778   6.894   0.143  0.0325 -0.2772 -0.1092
26307W        W42201  16.267   2.268   0.572  0.0138  0.0075  0.0114
26308W        W42202  14.673  10.735   4.087  0.1614 -0.1085  0.2217
26309W        W42203  14.932   4.793   5.138 -0.0202  0.1824  0.1128
26310W        W42204  15.038  15.075  13.193  0.2814  0.2800  0.2095
26311W        W42205   6.016  11.961  15.691 -0.4315 -0.0293  0.0449
26312W        W42206   0.124   4.534  13.865  0.0128  0.0751 -0.0850
26313W        W42207   6.635   6.752  12.326  0.4819  0.2842 -0.0195
26314W        W42208  13.760   9.846   4.386  0.1484 -0.1667 -0.0350
26315W        W42209  13.277   1.029  13.810  0.0554 -0.0176 -0.3447
26316W        W42210  16.404  10.860  13.589 -0.0296 -0.1500 -0.1876
26317W        W42211  12.987  12.683  14.440 -0.0321 -0.0171 -0.0282
26318W        W42212  13.931  16.030  12.617 -0.4425 -0.3332  0.2291
26319W        W42213   8.688  10.848  14.613 -0.2236 -0.1121 -0.0639
26320W        W42214  17.724   7.384  12.202  0.2801 -0.1313  0.2616
26321W        W42215  12.941   0.108  14.899 -0.0118 -0.0492  0.0209
26322W        W42216   1.403   9.073  12.328 -0.2472 -0.0071  0.0446
26323W        W42217   1.149  12.812  15.692  0.1253  0.1884  0.0573
26324W        W42218   0.209   2.435   4.654 -0.1394 -0.1053  0.1347
26325W        W42219  15.714   1.387   4.966 -0.2850 -0.2511 -0.0115
26326W        W42220  13.764  14.967   0.069 -0.0923  0.4460  0.2529
26327W        W42221  10.966  15.690  13.738  0.1239 -0.2028  0.2680
26328W        W42222   8.072  17.814  13.564 -0.1192 -0.0534  0.2008
26329W        W42223  11.856   1.423   4.554 -0.1694  0.1187 -0.2090
26330W        W42224   8.661  17.933  13.535 -0.1925 -0.4139 -0.2645
26331W        W42225   4.015   8.702  14.579 -0.2891  0.2189  0.3487
26332W        W42226   7.909   7.505  13.118 -0.0469 -0.0953  0.0152
26333W        W42227   7.326  11.671  13.762 -0.3547 -0.0731  0.0510
26334W        W42228  11.071   6.170   5.182 -0.0037 -0.1394 -0.3717
26335W        W42229  15.019   3.945  12.763 -0.2183 -0.1426  0.6125
26336W        W42230   0.127   9.440  14.296 -0.1138  0.3266  0.1510
26337W        W42231   4.344  15.234   3.929 -0.0563  0.1139  0.2084
26338W        W42232   0.930  13.735   3.801 -0.1297 -0.0572  0.0719
26339W        W42233   9.812  14.418  14.705  0.0558  0.3431  0.0459
26340W        W42234   6.829   1.150  15.777  0.0044 -0.3481 -0.2187
26341W        W42235   5.963  16.018   0.091 -0.2228 -0.2401  0.0200
26342W        W42236   2.702   8.325   1.111 -0.1793 -0.3716 -0.4052
26343W        W42237   8.621  11.127  11.903 -0.0762 -0.0065 -0.2848
26344W        W42238  10.169   4.887  14.466  0.2165  0.2981  0.0396
26345W        W42239  12.352   4.222  11.708  0.0054 -0.0924  0.0749
26346W        W42240  12.065   2.610   0.550 -0.1055  0.0266  0.0830
26347W        W42241  17.871   3.634   2.347 -0.1981  0.0077 -0.2075
26348W        W42242   0.876  12.609  12.415  0.0679  0.1165  0.1724
26349W        W42243   7.670   1.523  13.325  0.0101 -0.2089 -0.2682
26350W        W42244   2.651   8.874  13.606 -0.3618 -0.0373 -0.0617
26351W        W42245  10.268  10.398   0.415  0.1539 -0.0798  0.2612
26352W        W42246   3.700   4.113   0.342  0.4264 -0.0104 -0.1206
26353W        W42247  15.880  17.855   4.618  0.0581 -0.2295  0.1737
26354W        W42248   8.870  17.413   0.870 -0.0830 -0.0979 -0.0469
26355W        W42249   2.402  13.704  15.001 -0.0599  0.0945  0.0696
26356W        W42250   0.499  16.309   4.078 -0.0529 -0.2402 -0.2196
26357W        W42251   9.008  15.202   1.223  0.2296  0.4016 -0.0026
26358W        W42252   8.907   2.034  15.046  0.3346 -0.0610 -0.1226
26359W        W42253  11.824   1.883   2.089  0.0016  0.5157  0.1850
26360W        W42254   9.756   3.442  10.781 -0.0423 -0.1503 -0.0793
26361W        W42255  16.395   5.061   3.306  0.2216  0.3012 -0.0220
26362W        W42256   8.712  10.773   2.179 -0.1856 -0.1244  0.0088
26363W        W42257  18.090  15.003   4.407  0.1384 -0.0885 -0.0365
26364W        W42258  11.580   3.871  15.457 -0.2193  0.2207  0.0058
26365W        W42259  15.860   2.013   0.041  0.2297 -0.2200  0.1387
26366W        W42260  17.292  12.024   0.076 -0.1818  0.1344  0.3537
26367W        W42261  13.261   6.236  10.708  0.0898 -0.2480 -0.1719
26368W        W42262   7.090   6.102   1.259 -0.0377 -0.2885 -0.1091
26369W        W42263   5.069   7.188   1.946  0.0379  0.1077  0.1575
26370W        W42264  14.080  14.549   4.906  0.0083  0.1492 -0.0734
26371W        W42265  14.984  11.871   3.248 -0.0343  0.2265 -0.3536
26372W        W42266  13.104   7.315   0.182 -0.1197  0.0712 -0.0191
26373W        W42267   5.157   8.450  12.090 -0.1331  0.2074  0.1133
26374W        W42268  17.902  11.100  15.268  0.0165 -0.1986  0.2417
26375W        W42269   7.224   2.845  11.494 -0.3293 -0.3870 -0.1577
26376W        W42270  13.565   7.535   2.068 -0.1586  0.0507 -0.3846
26377W        W42271   7.464   6.497  13.292 -0.1026  0.3033  0.2193
26378W        W42272   0.077  13.423   0.472 -0.1043  0.1572  0.4002
26379W        W42273   9.759  10.619   1.929  0.3467 -0.1310 -0.0958
26380W        W42274   8.948  15.867  14.303  0.2259  0.1640 -0.1423
26381W        W42275  16.688  15.460   1.126 -0.2827  0.1193 -0.2749
26382W        W42276   7.324   7.580   1.402 -0.1566  0.0546 -0.0725
26383W        W42277  10.299   0.515   3.176  0.0950  0.0434 -0.1406
26384W        W42278   0.705   7.235   2.497  0.3703 -0.2030 -0.3415
26385W        W42279   6.078   7.576   5.536 -0.1487  0.0273  0.1283
26386W        W42280  15.885   3.097  14.398 -0.0284 -0.1438 -0.2101
26387W        W42281   5.953   7.050   2.214 -0.0697  0.0018 -0.2382
26388W        W42282   6.884  13.798   0.901  0.1040 -0.1620  0.1345
26389W        W42283  16.124   0.790   2.174  0.0334  0.3113  0.0537
26390W        W42284   9.596   4.994  12.770 -0.2359  0.0069  0.1587
26391W        W42285  14.194  14.348  12.133 -0.2036  0.2513  0.0595
26392W        W42286   4.464   0.840  11.454  0.0843 -0.4914 -0.0382
26393W        W42287   9.310  12.168   0.996  0.0643  0.4361 -0.1331
26394W        W42288   0.233   0.936   0.003  0.2311 -0.2390 -0.0524
26395W        W42289  16.348   3.413  13.835  0.0847  0.0288  0.1449
26396W        W42290  14.889   2.945  15.740  0.0552 -0.3800  0.0688
26397W        W42291  10.553  14.569  11.870 -0.1976  0.1677 -0.2667
26398W        W42292   3.609   2.161  12.082 -0.0261 -0.2349  0.2467
26399W        W42293  18.178  11.890   1.773  0.1755  0.1164 -0.3474
26400W        W42294  10.035   1.028  13.201 -0.4995  0.0271  0.1391
26401W        W42295   4.877   3.210   4.165 -0.0196 -0.3111  0.1272
26402W        W42296   9.931  16.719   3.235  0.1655 -0.0106  0.3032
26403W        W42297  15.132   1.520  15.252  0.0050 -0.0356  0.0179
26404W        W42298  15.654  11.310  15.881  0.2206  0.0061  0.1077
26405W        W42299   1.267  14.665  13.947  0.2162 -0.2753  0.0238
26406W        W42300   7.421   8.130   3.758  0.1005 -0.0113 -0.1711
26407W        W42301  10.103   8.672  13.087  0.4736  0.0502 -0.0516
26408W        W42302  10.799  13.867  13.821 -0.1396  0.2719  0.4716
26409W        W42303   9.333   3.723  13.934 -0.0174 -0.4294 -0.0563
26410W        W42304  13.543   5.016  11.730  0.3507 -0.1319 -0.1109
26411W        W42305   8.771  11.646   2.021  0.1532  0.3550  0.0873
26412W        W42306  15.729   1.590   4.135 -0.1206  0.5109 -0.0056
26413W        W42307   9.699   4.654   0.695  0.1947  0.3558  0.2427
26414W        W42308   6.037  12.254  12.766 -0.0009 -0.1668 -0.1474
26415W        W42309  14.365   5.129   2.686  0.2515  0.0828  0.0180
26416W        W42310   4.642  17.510  11.214 -0.1514  0.0766 -0.1018
26417W        W42311   7.224   0.017   3.529  0.0346  0.1173  0.0630
26418W        W42312  16.587   0.741  12.532 -0.0688  0.2135 -0.4402
26419W        W42313  10.880  10.389  13.124  0.3578  0.0709 -0.1286
26420W        W42314   0.780   1.804   2.808  0.1044  0.0644  0.1772
26421W        W42315   4.012  17.760   0.775 -0.1826  0.4366  0.0253
26422W        W42316  18.036  15.617  15.595  0.1329 -0.2110 -0.1226
26423W        W42317   4.178   8.182  13.716 -0.0317  0.2220 -0.0509
26424W        W42318  16.275  10.251   3.858 -0.2316 -0.1650  0.2504
26425W        W42319   8.218   0.881   5.833  0.1559  0.0458  0.2564
26426W        W42320   1.093   3.368  13.055  0.0019 -0.0305 -0.0996
26427W        W42321  14.498  12.695   0.378  0.1067 -0.2118  0.0590
26428W        W42322   3.865  16.149  11.303  0.2365 -0.1429  0.4799
26429W        W42323   7.081  13.568  12.950  0.1079 -0.2726  0.0067
26430W        W42324   6.613   3.383   1.588  0.1798  0.1791  0.0554
26431W        W42325   8.679  13.326   2.927 -0.2025  0.0125  0.0630
26432W        W42326   3.757   6.644   3.856  0.0829  0.0594 -0.0159
26433W        W42327   0.660  17.749   0.008 -0.0532  0.0002  0.2701
26434W        W42328   3.472  13.395  11.197  0.0724 -0.0448 -0.0498
26435W        W42329  17.278   8.604   1.336 -0.3368  0.2816  0.0438
26436W        W42330   8.933  10.707   4.821 -0.1372  0.4767 -0.0897
26437W        W42331   3.160  14.561   1.052  0.0367  0.1160 -0.3851
26438W        W42332   8.291  11.405  14.915  0.2741 -0.3258 -0.1165
26439W        W42333   9.585  11.217  12.196  0.1462  0.1558 -0.1677
26440W        W42334   3.603   9.280   2.013  0.1568 -0.2024 -0.1813
26441W        W42335  10.666   1.657   0.489  0.0058  0.1923 -0.2344
26442W        W42336   0.453   9.974  11.793 -0.0778 -0.0707 -0.3454
26443W        W42337   5.774  12.927   4.173  0.1639  0.1393 -0.1006
26444W        W42338  15.328   9.183   3.548  0.0452 -0.0758  0.0108
26445W        W42339   8.015  11.071   0.452 -0.0480  0.4608 -0.1775
26446W        W42340  13.986   0.212  12.672 -0.2483 -0.0305 -0.0043
26447W        W42341   8.971   7.053  11.225 -0.5200 -0.3798 -0.0495
26448W        W42342   5.356  12.944   3.628  0.1444  0.0999 -0.2055
26449W        W42343   6.270   4.520   4.688 -0.0957  0.2784  0.1664
26450W        W42344   7.428   8.740   1.542  0.1518  0.2949 -0.0757
26451W        W42345  15.181   8.241   2.587 -0.1519 -0.3019 -0.1610
26452W        W42346   0.642  13.295  12.817  0.1555 -0.0280 -0.0727
26453W        W42347  13.704  13.333   0.131 -0.1047  0.0216 -0.4589
26454W        W42348   9.677  17.913   5.259  0.3282 -0.0624  0.1053
26455W        W42349   2.701   8.029   4.707  0.0333  0.0372  0.1950
26456W        W42350   2.828  11.370  11.572 -0.0228 -0.2117  0.1923
26457W        W42351  15.544   8.955   3.123  0.3394 -0.0933 -0.2292
26458W        W42352   3.269   7.321  14.146 -0.1025  0.3960  0.1690
26459W        W42353   6.001   0.606  15.756 -0.3623  0.3154 -0.0317
26460W        W42354   4.146   2.911   0.930 -0.0139  0.0097 -0.1541
26461W        W42355   2.835  12.409   0.909 -0.1567  0.1267 -0.0141
26462W        W42356   1.844   3.294   3.684  0.1272  0.2122 -0.0049
26463W        W42357   2.937  18.089   2.413  0.0382  0.1410 -0.2272
26464W        W42358  16.019   9.874  12.358 -0.2891 -0.0215 -0.2769
26465W        W42359  15.659  16.404   2.821 -0.0753  0.3876  0.2690
26466W        W42360   1.315  18.242   2.004 -0.2519  0.1873 -0.0425
26467W        W42361  13.882   4.548  12.730  0.1019  0.2141 -0.1579
26468W        W42362  11.539   0.930   1.345  0.1224  0.1782  0.1554
26469W        W42363   7.319   5.454  11.667 -0.2855 -0.1257 -0.0020
26470W        W42364  14.034   8.523  12.057  0.0981  0.0563  0.0657
26471W        W42365   2.847   8.107   2.220 -0.0145 -0.1788  0.2005
26472W        W42366  15.131   2.096   0.692  0.0490 -0.1297  0.2457
26473W        W42367   4.327   2.369   1.740 -0.1756  0.0522 -0.2070
26474W        W42368  12.919   0.397   1.895  0.1760  0.0338  0.0743
26475W        W42369   9.603  10.539   2.436 -0.1055  0.0416 -0.0321
26476W        W42370   4.481  10.739   2.678  0.0401  0.0664 -0.0198
26477W        W42371   4.362  16.141  11.185 -0.1887 -0.1316 -0.2862
26478W        W42372   7.173   4.543  11.990 -0.0077  0.0972  0.1355
26479W        W42373   2.120   7.701  14.797  0.0484  0.1277  0.0292
26480W        W42374   3.300  16.626   1.928 -0.2535  0.0618 -0.0507
26481W        W42375   0.828   2.289   2.346 -0.1826  0.0934 -0.2720
26482W        W42376  11.199   7.310  12.514  0.0428  0.1598 -0.1059
26483W        W42377   3.827   4.759  12.560  0.1343 -0.4922 -0.0428
26484W        W42378  15.354   7.551   2.932  0.0579 -0.2070  0.0448
26485W        W42379  17.244   8.699   3.463 -0.4397  0.1393 -0.1350
26486W        W42380   2.756   9.002   4.337  0.3469 -0.0452  0.1323
26487W        W42381  11.063   3.831   3.378 -0.1664 -0.3322  0.1352
26488W        W42382   0.406  18.169   3.908  0.2513  0.1896  0.0003
26489W        W42383  10.217  16.635  12.219  0.2101  0.4342 -0.1418
26490W        W42384   4.332  11.579  15.576 -0.1190  0.2104  0.3364
26491W        W42385  10.652  14.027   0.354 -0.0611  0.0719 -0.1775
26492W        W42386   6.138   9.484   4.690 -0.1472 -0.1639  0.1619
26493W        W42387   5.334  17.697   3.716 -0.2327 -0.0710  0.1853
26494W        W42388  11.303   9.124  14.764  0.1250  0.0940  0.2149
26495W        W42389  15.144   4.136  14.716 -0.0263 -0.3066  0.0647
26496W        W42390  16.753  14.125   0.459  0.4111  0.0084 -0.0744
26497W        W42391  10.859  13.817   4.891 -0.1617  0.1330  0.1869
26498W        W42392   9.106   7.474   0.706 -0.3124  0.0191  0.0594
26499W        W42393   1.017  16.327  11.941 -0.1304  0.2928 -0.0925
26500W        W42394   8.265   6.664  13.614  0.1877  0.0464 -0.2745
26501W        W42395  17.052   9.386   0.187 -0.2620 -0.1068 -0.2124
26502W        W42396  17.451   9.613   5.681 -0.1338 -0.0581  0.0661
26503W        W42397   8.456  14.728   0.742  0.3706 -0.1822  0.2843
26504W        W42398   2.099   8.961  13.473  0.1014 -0.0483 -0.0417
26505W        W42399   2.754  13.658  13.454  0.1174  0.3377  0.0054
26506W        W42400   7.169  11.484   5.112  0.0145  0.1545  0.1273
26507W        W42401   2.331  15.731  10.863 -0.1100  0.1287 -0.0152
26508W        W42402  16.378   6.615  11.855  0.0431 -0.0295  0.1587
26509W        W42403  14.324  18.209   1.348  0.1189 -0.0036 -0.2247
26510W        W42404  10.847  14.839  15.973  0.4407 -0.0463 -0.0139
26511W        W42405  15.985   8.722   1.683 -0.1045 -0.1131  0.0011
26512W        W42406  14.226  18.043  13.661  0.0093 -0.3847  0.0730
26513W        W42407   8.123  13.483  14.440  0.4619 -0.1878 -0.2104
26514W        W42408   5.469   2.416  15.557  0.0875 -0.5563 -0.2910
26515W        W42409   8.074   1.136  15.185 -0.1397  0.0589 -0.2924
26516W        W42410  12.759  13.104   0.134 -0.0197  0.0975 -0.1653
26517W        W42411   5.496  17.820   5.048 -0.0474  0.1768 -0.1236
26518W        W42412   9.589   7.688  15.106 -0.2361 -0.1029 -0.2370
26519W        W42413  13.869  16.357  14.038 -0.0989 -0.2190 -0.2444
26520W        W42414   9.344   1.639   3.817  0.0559  0.0455  0.0646
26521W        W42415  10.356  12.776  13.228  0.1190 -0.0172 -0.4311
26522W        W42416   9.219   7.372  11.633 -0.1378 -0.1994 -0.3084
26523W        W42417  12.833   9.738   4.226 -0.0762 -0.2707  0.1855
26524W        W42418  11.616   2.336   5.588  0.0677 -0.0162 -0.2242
26525W        W42419   1.980  15.790   4.207 -0.0768  0.1508  0.0400
26526W        W42420  10.427   9.595   0.944  0.0765 -0.2745 -0.0198
26527W        W42421  18.005  10.562  13.220  0.2053 -0.4304 -0.0123
26528W        W42422   0.471   3.941  15.481 -0.1547  0.0873  0.2055
26529W        W42423  11.376  10.798   5.571  0.0771 -0.0726 -0.0532
26530W        W42424  13.537   9.598  15.355  0.0013  0.0329  0.0178
26531W        W42425   7.445  11.531  12.326 -0.0632 -0.0990 -0.3060
26532W        W42426   5.779  12.018   1.319 -0.1425 -0.0161  0.0300
26533W        W42427  14.707   1.744   2.539  0.1178 -0.0790 -0.0031
26534W        W42428   3.688   3.954   2.700  0.1689  0.1497 -0.0421
26535W        W42429   8.980  18.013   3.506 -0.0508 -0.0500 -0.0521
26536W        W42430  12.711   5.451   1.343  0.0304  0.0858 -0.0549
26537W        W42431  16.177  10.109   0.673  0.1796 -0.1964 -0.2045
26538W        W42432   2.688   3.753  14.952 -0.0662  0.0118 -0.1406
26539W        W42433  12.926   7.051   5.467 -0.0917 -0.2821 -0.4472
26540W        W42434   2.777  15.881  10.870 -0.1614 -0.4254  0.1346
26541W        W42435   5.398   4.531   2.677 -0.0114 -0.3060 -0.0831
26542W        W42436   1.780   6.541  15.285  0.2884  0.3615  0.1728
26543W        W42437  15.566   7.906   0.286 -0.0903 -0.3069  0.3337
26544W        W42438   3.453  17.936   3.590 -0.1312  0.3718  0.0117
26545W        W42439  17.261  17.688   1.535 -0.3275  0.0374 -0.3513
26546W        W42440   3.025  11.252  15.489 -0.0282 -0.2462  0.2188
26547W        W42441   7.896  12.766  13.536 -0.3114  0.0682 -0.0270
26548W        W42442   2.922  11.485  12.207  0.0235 -0.0895  0.1733
26549W        W42443  14.298   4.749   2.387 -0.0127  0.1609 -0.0425
26550W        W42444  16.420   3.701  12.984  0.5115 -0.4438  0.2198
26551W        W42445   0.338  18.098  15.044 -0.0811 -0.1040  0.1704
26552W        W42446   5.878  14.767   4.108 -0.0120 -0.0245  0.0513
26553W        W42447   5.543   3.255  12.292  0.2157 -0.3075  0.1737
26554W        W42448   9.043   7.687  12.053  0.0008  0.0571 -0.0617
26555W        W42449   3.064  18.013   0.344  0.3395 -0.2006  0.2368
26556W        W42450   3.587  15.026   3.685 -0.0000  0.0533 -0.2190
26557W        W42451   7.345  10.193  14.767 -0.0601  0.0663 -0.0732
26558W        W42452   8.923  17.409   3.325 -0.1822  0.0947  0.0233
26559W        W42453   0.796  17.299   4.828 -0.1322  0.4357  0.1061
26560W        W42454  16.571  15.101  11.518 -0.2921  0.0599  0.0146
26561W        W42455  11.892  18.028   2.549  0.3246  0.0534  0.0129
26562W        W42456   1.826  13.851  13.837  0.0969 -0.1684 -0.2706
26563W        W42457   2.829  17.861   4.006 -0.1279 -0.2961  0.2032
26564W        W42458   0.030  16.762  14.117 -0.0553 -0.1914  0.4145
26565W        W42459  16.003  13.937  12.037 -0.1074  0.0130  0.3003
26566W        W42460   5.677  10.082  11.830  0.0734 -0.0616  0.3229
26567W        W42461   2.266   7.452  15.197  0.1309  0.2023  0.2335
26568W        W42462  15.339  14.049   3.525  0.1241  0.5294 -0.3273
26569W        W42463   8.461  10.144   1.147  0.0421 -0.3180  0.1432
26570W        W42464   6.325   9.607  11.182 -0.0720 -0.1946 -0.2723
26571W        W42465   8.742  16.439   9.771  0.2807  0.0689  0.3218
26572W        W42466   7.961  13.066  15.791 -0.2496 -0.4813  0.1479
26573W        W42467   2.583   2.368  15.559 -0.2969 -0.2408 -0.1158
26574W        W42468  14.159   5.418   0.339 -0.0382 -0.3701 -0.0104
26575W        W42469  16.056  10.517  12.796 -0.2662 -0.2148  0.1114
26576W        W42470   9.791   1.955   9.785  0.1800  0.2735 -0.0839
26577W        W42471   2.944   2.863  13.073  0.3195  0.0126 -0.1537
26578W        W42472   6.683  15.383  13.172  0.1072 -0.2356 -0.1700
26579W        W42473  14.346  10.890   2.160  0.1108  0.0765  0.0674
26580W        W42474  12.603  10.672  14.116  0.0179  0.0823  0.1264
26581W        W42475  16.232   3.690  13.430  0.0897  0.0965 -0.1174
26582W        W42476   9.532  10.033   4.826  0.1458  0.3894  0.1125
26583W        W42477   9.622   8.795  13.543 -0.1751  0.4237 -0.4640
26584W        W42478  12.595   6.540  15.914 -0.0951  0.4204  0.0811
26585W        W42479   6.503  15.529  11.858 -0.1684  0.1434 -0.1569
26586W        W42480  13.187  11.228  12.236 -0.5487  0.0292 -0.2948
26587W        W42481   6.792  17.286  11.626 -0.1509 -0.2018 -0.2999
26588W        W42482  13.403  15.901  12.264 -0.0296  0.1394 -0.0836
26589W        W42483  13.226   9.075   0.401 -0.2463 -0.1320 -0.0083
26590W        W42484  15.985  15.380  13.489  0.3765 -0.0658  0.0411
26591W        W42485   9.575  17.823  15.950 -0.1409  0.0290 -0.0700
26592W        W42486   0.558   7.611   1.459  0.0191  0.1901 -0.0318
26593W        W42487   2.289  12.493  12.223 -0.0121 -0.3730 -0.3041
26594W        W42488   3.057   9.514   0.766  0.0591  0.1524  0.4597
26595W        W42489  14.784   3.200  12.734 -0.1277 -0.5076  0.3418
26596W        W42490  12.504  14.380   2.223  0.1391 -0.0503  0.1677
26597W        W42491   8.282  13.404  10.861 -0.1715  0.0818 -0.1015
26598W        W42492   0.122   1.944   2.066 -0.1484 -0.0252  0.1527
26599W        W42493   9.543   0.566   1.812  0.3066  0.0075  0.0279
26600W        W42494   8.400  14.023   1.445 -0.0951  0.2312 -0.2029
26601W        W42495   3.945   7.716   6.086 -0.2430  0.0517 -0.0342
26602W        W42496  11.103   3.632   2.574 -0.0824 -0.2040 -0.2227
26603W        W42497  17.798  11.506  15.590 -0.0876  0.3272 -0.0530
26604W        W42498  16.995  18.093   3.921  0.2536  0.2696 -0.1041
26605W        W42499  15.927   7.485   1.652  0.0941  0.0584  0.0232
26606W        W42500   0.590   8.366   4.167 -0.1047 -0.1628 -0.2853
26607W        W42501   4.248   5.197  13.315  0.1696 -0.1862 -0.1836
26608W        W42502   2.875   0.643   4.571  0.1913 -0.1974 -0.1156
26609W        W42503  16.522  15.650   2.236 -0.1544 -0.2479  0.1038
26610W        W42504   4.220  15.837   2.236  0.1242 -0.2071  0.0985
26611W        W42505  10.626  17.451  11.294  0.3612 -0.2274 -0.1859
26612W        W42506  12.678  11.599  15.285  0.0969 -0.1941  0.2132
26613W        W42507   1.506  16.272  12.193 -0.0901 -0.3357  0.0532
26614W        W42508   2.823   8.690   1.399  0.1777 -0.0438 -0.1873
26615W        W42509  14.538   6.657   4.059  0.0216 -0.1103 -0.0248
26616W        W42510  12.767   9.689  15.115  0.0962 -0.0370 -0.3216
26617W        W42511  12.857  16.445  14.578  0.2215 -0.1380 -0.3372
26618W        W42512  10.630  10.085  13.854  0.1532 -0.1932 -0.0422
26619W        W42513  10.707   0.257   0.590  0.1242 -0.2583 -0.0130
26620W        W42514  16.313  10.530   4.264 -0.0658  0.0198 -0.0485
26621W        W42515   8.893   5.986  14.936  0.2707  0.1598 -0.0048
26622W        W42516   5.464   0.705   3.419 -0.2015 -0.0397  0.2034
26623W        W42517  16.769   6.489  14.428 -0.0307 -0.3913 -0.0163
26624W        W42518  15.692  16.771   3.812  0.0521  0.0665  0.2006
26625W        W42519  15.746   0.315   4.207  0.1045  0.1626 -0.4400
26626W        W42520  14.081   4.808  12.323 -0.1483  0.1076 -0.0156
26627W        W42521   8.107  15.622   2.660 -0.0968  0.1775 -0.1271
26628W        W42522   1.955   4.335  11.897  0.0256 -0.2623 -0.0359
26629W        W42523   8.206  15.309   5.041  0.0742 -0.1458  0.2861
26630W        W42524  17.180  18.465   2.403  0.2072  0.3684  0.0456
26631W        W42525   7.432  14.796  14.373  0.1202 -0.1040  0.4870
26632W        W42526   3.966  14.132  12.990  0.3484 -0.1676  0.0635
26633W        W42527   5.685   5.204   4.265 -0.0788 -0.3668  0.0035
26634W        W42528   5.923  16.663  13.983  0.1899 -0.1942 -0.0027
26635W        W42529   5.298   9.174   5.118  0.0833  0.1077 -0.0071
26636W        W42530  14.451  10.486   1.929 -0.5740 -0.1267  0.0741
26637W        W42531   1.634   1.094  13.334 -0.1755  0.1930 -0.0816
26638W        W42532   3.806   5.584   1.544 -0.0476  0.2651  0.2885
26639W        W42533  18.421   2.260  15.678  0.2433  0.2021  0.1414
26640W        W42534   9.664  18.286  11.754 -0.0282 -0.0726 -0.0388
26641W        W42535   8.536   3.579  13.473 -0.1544  0.0065 -0.1795
26642W        W42536  11.071  13.859   5.957 -0.0812  0.2995  0.0994
26643W        W42537   0.887  17.059  13.674  0.0816  0.0720  0.0431
26644W        W42538   4.477  10.533  15.824  0.0010  0.0611 -0.3258
26645W        W42539   7.480   7.147  12.449  0.3203  0.0156  0.2522
26646W        W42540   6.348   5.879   2.174 -0.0350 -0.0694 -0.0983
26647W        W42541   1.885  16.552   1.357  0.1168 -0.1898 -0.1990
26648W        W42542   6.791  17.992   3.275 -0.2007  0.1328 -0.1426
26649W        W42543   0.601   2.347   2.876  0.1084 -0.0240  0.1573
26650W        W42544  17.317  15.902  12.264 -0.0917  0.0750 -0.0754
26651W        W42545   5.073   7.443   2.437  0.0269 -0.1072  0.0532
26652W        W42546  17.653  13.128   3.647  0.1921 -0.2772 -0.1130
26653W        W42547  17.635   6.931  12.359  0.0425 -0.0296  0.0914
26654W        W42548  12.612   1.432   0.946  0.3258  0.1533  0.0554
26655W        W42549  16.737   4.115   5.358 -0.1758 -0.0936  0.0396
26656W        W42550   8.294   2.131  12.553 -0.0087  0.1107 -0.0875
26657W        W42551  12.206  15.465   3.887  0.1244 -0.3259 -0.1247
26658W        W42552  11.855   0.697   2.398 -0.1574  0.0752  0.0279
26659W        W42553   8.372  16.420  14.881  0.3217 -0.0292  0.0857
26660W        W42554  12.803   5.546   0.095 -0.1138 -0.2056 -0.0707
26661W        W42555  15.134  14.074  14.582  0.0784 -0.1335  0.2480
26662W        W42556  14.674   1.895   3.108  0.0836 -0.0655 -0.2418
26663W        W42557  16.579   7.702  14.726  0.0832  0.1818 -0.0083
26664W        W42558   9.404   2.039  10.122  0.2923 -0.1476  0.1943
26665W        W42559   4.509  18.008   0.584  0.4526 -0.1429 -0.1495
26666W        W42560  16.748   8.602   5.665 -0.1015  0.1797 -0.1888
26667W        W42561  17.383   3.278   1.876  0.0616 -0.0445 -0.1744
26668W        W42562   9.424  16.888  12.636 -0.0752 -0.3553  0.0511
26669W        W42563  13.305  15.070  15.862 -0.0433 -0.0479  0.2274
26670W        W42564  15.204  10.386   5.114 -0.0123 -0.3501 -0.1521
26671W        W42565  13.349  17.730   4.148  0.0140 -0.0589 -0.0204
26672W        W42566   1.294  10.003  12.856 -0.0587 -0.1128  0.2278
26673W        W42567   9.778  11.721  14.122 -0.2115  0.0009 -0.1415
26674W        W42568   0.239   3.046  11.491 -0.3250  0.2372  0.2037
26675W        W42569  14.624   6.183  13.562 -0.3307  0.0016 -0.2656
26676W        W42570  10.617  12.958  12.671  0.0485 -0.0169  0.2548
26677W        W42571  10.573   2.054  13.995 -0.0533  0.0895  0.2302
26678W        W42572  18.366  12.803  12.062 -0.0945 -0.2254  0.0787
26679W        W42573   9.050  11.468  13.780 -0.1861 -0.0574 -0.2436
26680W        W42574   5.477   3.156   5.872  0.0571 -0.0588  0.1790
26681W        W42575   3.460   8.232   5.526 -0.0138 -0.1635  0.0673
26682W        W42576  16.975  18.369  13.996 -0.0671  0.0408  0.0752
26683W        W42577  11.947   4.095  11.931  0.1445  0.1953 -0.1470
26684W        W42578  13.204   2.924  15.270  0.0434 -0.2013 -0.0887
26685W        W42579   0.027  10.614  13.776  0.0482  0.1094  0.2689
26686W        W42580   9.469  14.115  11.036 -0.0896 -0.0526 -0.0487
26687W        W42581  16.589  12.609  11.921  0.3271 -0.1207 -0.2617
26688W        W42582   9.432  12.691  11.681 -0.1253  0.0468  0.1088
26689W        W42583  10.452   2.700   4.936 -0.0649  0.0373  0.0315
26690W        W42584  10.278   8.269   2.658  0.1477  0.0814 -0.1326
26691W        W42585  13.406   9.417   3.544  0.0445  0.3007 -0.2056
26692W        W42586  13.244   6.536  12.815  0.1273  0.2018  0.2782
26693W        W42587   6.320   3.021  13.582  0.3573 -0.1217 -0.1179
26694W        W42588   8.694   9.287   2.926 -0.0924 -0.0826 -0.0878
26695W        W42589   9.854  12.682  11.929 -0.0522 -0.1832 -0.0318
26696W        W42590  13.747   1.333   5.901  0.0500  0.0295  0.3865
26697W        W42591   5.139   1.735   1.407 -0.2410  0.1803 -0.0425
26698W        W42592   3.703  16.894   3.949  0.1271  0.1577  0.1908
26699W        W42593  13.357  11.722   4.090 -0.1111  0.0421  0.1898
26700W        W42594  14.687   0.428  13.532 -0.0419  0.1400  0.2824
26701W        W42595   4.255  11.004  11.746 -0.1021  0.1639  0.0383
26702W        W42596  17.207   6.194  12.987  0.1704  0.0378 -0.3076
26703W        W42597  14.289   0.428   4.437 -0.1223  0.2177  0.0405
26704W        W42598   0.599   2.941  11.885  0.0081  0.0418  0.0898
26705W        W42599   4.752  11.337   1.908  0.0450  0.0080  0.0458
26706W        W42600   2.156  14.241  13.511 -0.4297 -0.1539 -0.1134
26707W        W42601   0.259  13.469   1.050  0.1244 -0.1387  0.1658
26708W        W42602   7.368   9.673  14.977  0.1669  0.5287 -0.1093
26709W        W42603  10.366   0.363   0.082 -0.0386  0.1461  0.1314
26710W        W42604  16.228   3.349  14.709  0.0250 -0.0654  0.0483
26711W        W42605  15.734   5.512  15.142 -0.0854 -0.1399  0.0836
26712W        W42606   5.464   2.689   3.381  0.1501 -0.0434  0.0811
26713W        W42607  13.241   6.339   0.228 -0.0417  0.0145  0.0271
26714W        W42608   4.608   0.816  13.932 -0.2356 -0.2884  0.0891
26715W        W42609   7.065   1.516   6.072  0.0249  0.0342  0.0759
26716W        W42610   0.799  14.832   0.795  0.1378  0.0319 -0.2304
26717W        W42611  16.848   1.458   5.428 -0.0254 -0.0272 -0.1950
26718W        W42612  14.646   4.148   4.306  0.0411 -0.1648  0.1047
26719W        W42613   6.990   0.206  14.435  0.2294  0.0033 -0.0460
26720W        W42614  13.680   4.915   1.073  0.0054 -0.2042  0.1878
26721W        W42615  18.037  11.089  15.756  0.1565  0.0466 -0.0269
26722W        W42616   0.272   4.119   3.913  0.0625 -0.1339  0.1909
26723W        W42617  14.119  12.944   2.735 -0.1261  0.0474 -0.0323
26724W        W42618   7.781   2.879  14.084 -0.0903  0.0647  0.4684
26725W        W42619   7.725  10.418   4.260  0.1302  0.1619 -0.0031
26726W        W42620  15.681   7.883   1.783  0.2200 -0.2430 -0.4163
26727W        W42621  13.925   6.893   5.847 -0.1634 -0.0756  0.3715
26728W        W42622   8.866   6.130   3.258 -0.0461 -0.0820  0.1384
26729W        W42623   8.309   3.209  15.371  0.0020 -0.0619  0.0930
26730W        W42624   3.272  15.138  12.537  0.0114  0.4424  0.1133
26731W        W42625   1.157   7.208   4.579  0.1054 -0.0506  0.3319
26732W        W42626   3.301   3.082  14.776 -0.1352 -0.0886 -0.2693
26733W        W42627  11.052  14.007   5.427 -0.0632  0.2885 -0.0399
26734W        W42628  18.028   7.032  15.122  0.1495  0.2638  0.1793
26735W        W42629   8.463   6.556   4.471  0.3418 -0.4529 -0.4771
26736W        W42630   3.350   6.828   4.131 -0.2784 -0.0098 -0.0791
26737W        W42631   4.531   9.839  14.914 -0.0174 -0.1480  0.2003
26738W        W42632   3.931  13.399   2.547  0.0742  0.1234  0.0730
26739W        W42633  12.458  16.407   2.269  0.2114 -0.1127 -0.2300
26740W        W42634   5.036  16.596  14.214 -0.1591 -0.0645 -0.1735
26741W        W42635   6.967  14.087   4.986 -0.0803 -0.2726 -0.0111
26742W        W42636  10.979  10.149  11.391 -0.4077  0.0459 -0.1984
26743W        W42637   5.148  17.282   5.536 -0.1953  0.3105  0.0519
26744W        W42638  17.406  17.062   3.204 -0.0334  0.2127  0.0020
26745W        W42639   7.867   6.657   1.459  0.0048 -0.3873  0.0593
26746W        W42640   0.905  12.787   2.855 -0.3919 -0.0477 -0.0361
26747W        W42641   5.927   5.244  11.555  0.5792  0.5235  0.2454
26748W        W42642  14.688  16.196   1.143  0.3694  0.0376  0.0268
26749W        W42643   5.722  18.273   4.865  0.0090  0.0729 -0.1206
26750W        W42644   2.560   8.961  14.707  0.0178 -0.0093  0.0723
26751W        W42645  15.924   3.618  14.046  0.1024 -0.2082  0.0515
26752W        W42646   7.787  16.653   2.773  0.0485  0.0962 -0.0369
26753W        W42647  11.912   1.436   0.352  0.0074  0.2410 -0.0416
26754W        W42648  17.242  11.007   1.102  0.0124  0.0838 -0.1206
26755W        W42649   9.144   9.644   4.316 -0.2039 -0.0851 -0.1211
26756W        W42650   0.520  14.972   2.096 -0.2641  0.0395 -0.3981
26757W        W42651  17.167   9.610   1.037  0.1129 -0.0761 -0.0602
26758W        W42652  15.292  18.197   2.857  0.1791 -0.0036  0.1301
26759W        W42653  12.234  12.271   4.195 -0.2478  0.0790  0.0658
26760W        W42654   0.596   5.234   4.049 -0.1408  0.0657 -0.4204
26761W        W42655  13.491  10.832   4.679  0.3098 -0.1787  0.1179
26762W        W42656   5.811   2.729   1.511 -0.0213 -0.0314 -0.0159
26763W        W42657  12.852   6.010   2.360  0.0073  0.2373  0.3209
26764W        W42658   1.498   7.906   4.926 -0.2239 -0.0137 -0.0702
26765W        W42659  12.191  13.001  15.800  0.0576 -0.2521  0.1959
26766W        W42660  11.585   2.492  13.433  0.1433  0.2492 -0.0631
26767W        W42661   4.188   7.958   3.865  0.4158  0.3300 -0.0174
26768W        W42662   0.721  16.169   0.937  0.0284  0.0250  0.2714
26769W        W42663   7.245   6.880   3.790  0.0885 -0.0120  0.0175
26770W        W42664  17.911   2.768   2.396 -0.1717 -0.0149 -0.1319
26771W        W42665   6.089   9.041  12.217  0.2988 -0.0306 -0.1775
26772W        W42666   2.641   3.784  14.466  0.1521  0.2555 -0.2185
26773W        W42667   7.364  12.206   3.136 -0.0463 -0.1498 -0.0820
26774W        W42668  12.743   7.357   1.930  0.2522 -0.1992  0.0509
26775W        W42669   9.853   8.326   1.921  0.1323  0.0386 -0.0494
26776W        W42670  12.270   9.734  10.681 -0.0568  0.1517 -0.0193
26777W        W42671   6.340  15.003  13.110 -0.1724  0.1956 -0.5116
26778W        W42672   0.650   5.695   0.758  0.1204 -0.0203  0.2772
26779W        W42673  11.343  14.370   4.163 -0.0923  0.0020  0.1832
26780W        W42674  16.605   2.586   1.500  0.0959 -0.0607  0.1380
26781W        W42675  15.837   2.620  14.302 -0.0256 -0.2351 -0.1302
26782W        W42676   1.617   4.302   1.532  0.0390 -0.0380  0.0937
26783W        W42677   8.526   4.530   4.445  0.1357  0.1525  0.1437
26784W        W42678  13.438   1.638  14.836 -0.2530  0.2502 -0.1195
26785W        W42679   4.514   3.235   1.384 -0.1900 -0.0674 -0.0758
26786W        W42680   5.269  12.618  12.603 -0.1817 -0.2884 -0.3033
26787W        W42681   3.158   6.119   0.905  0.3876  0.1835 -0.0211
26788W        W42682  13.049   6.774  12.403  0.2379  0.0593  0.0707
26789W        W42683   8.584  11.458  13.613 -0.3214 -0.2837 -0.0435
26790W        W42684   0.884  13.302  13.271 -0.1977 -0.2151 -0.3052
26791W        W42685   3.229   5.457  11.461  0.0260  0.0555  0.3079
26792W        W42686  16.594   4.877   2.127 -0.0200 -0.1023  0.0669
26793W        W42687  17.843  16.218   6.335  0.0243 -0.1829  0.0484
26794W        W42688  10.131  12.294  11.893 -0.3420  0.0667  0.0285
26795W        W42689  10.406   8.716   3.921  0.1110  0.1977  0.1805
26796W        W42690  16.146   9.295   1.470 -0.0237 -0.1430 -0.0624
26797W        W42691  17.077  15.699   2.046 -0.4392 -0.1878  0.1714
26798W        W42692   2.301  14.944   3.591  0.3209  0.0036  0.0302
26799W        W42693  10.986   3.623  12.590  0.1776  0.0399  0.0842
26800W        W42694   4.593   8.331  13.380  0.1041  0.4376  0.0609
26801W        W42695   2.980   6.813   5.086  0.1665  0.0250 -0.1516
26802W        W42696   1.465  15.499   0.127  0.1550 -0.2713  0.0206
26803W        W42697  16.773   3.005  10.734  0.0405 -0.1032 -0.0077
26804W        W42698  17.466  14.152  12.832 -0.0333 -0.0268 -0.0045
26805W        W42699  11.515  10.623   3.565 -0.0160 -0.4752 -0.0430
26806W        W42700   4.660   6.731   1.221  0.2082 -0.0321  0.2447
26807W        W42701  17.417  16.353   4.331 -0.0606 -0.0515 -0.1727
26808W        W42702  17.436   7.991   1.180  0.1827  0.0467 -0.2352
26809W        W42703  14.870  12.534   2.643 -0.0841  0.1499 -0.2770
26810W        W42704   4.042  15.252   3.411  0.1198  0.2947 -0.1447
26811W        W42705  16.642  16.025   4.433  0.1182  0.3829  0.1232
26812W        W42706   7.954   2.279   0.966 -0.3125 -0.1602  0.0112
26813W        W42707  13.238   0.145   2.500 -0.2269 -0.3644 -0.4522
26814W        W42708   7.444   9.608   9.710 -0.1431  0.2064 -0.1179
26815W        W42709   4.757   4.431   0.001 -0.0753  0.1153  0.0825
26816W        W42710   4.229   8.564   2.142 -0.5005  0.0585 -0.0310
26817W        W42711   6.044  15.286   0.832  0.2672  0.0107  0.0572
26818W        W42712  17.600  11.031  11.683  0.1724 -0.0781  0.1282
26819W        W42713  17.646  14.802   5.097  0.0602  0.2451  0.2564
26820W        W42714  13.694   5.242   3.427  0.0398  0.0048  0.1714
26821W        W42715   7.836   9.742  15.431  0.1882 -0.0007 -0.2534
26822W        W42716  13.516  18.057   3.673 -0.1749 -0.0104 -0.0345
26823W        W42717  15.143   7.526  11.763 -0.0144 -0.0325 -0.1924
26824W        W42718   0.198   5.473   4.223 -0.1817 -0.2634 -0.1197
26825W        W42719  14.541   2.784   3.618  0.1869 -0.0175  0.0549
26826W        W42720   2.738  11.493   4.252  0.0840  0.2411  0.0689
26827W        W42721   8.828   8.846  11.192 -0.1426  0.2108 -0.2690
26828W        W42722  10.497   2.500  13.204 -0.0606  0.0357 -0.1435
26829W        W42723   8.418   1.525  15.228  0.2087 -0.2116  0.0115
26830W        W42724  10.992   4.618  14.092 -0.0636  0.1574  0.0942
26831W        W42725   9.236  11.955  15.278  0.1042  0.1249  0.2379
26832W        W42726   4.990  11.794   0.222 -0.1108 -0.0161  0.1444
26833W        W42727   3.046  14.782  12.137  0.0151  0.0821 -0.1743
26834W        W42728  17.237   2.629   4.042  0.0547  0.2592 -0.0928
26835W        W42729  13.963  16.526   4.847 -0.2719 -0.1751  0.0808
26836W        W42730   4.990  15.583  11.131  0.0522 -0.2527 -0.3065
26837W        W42731  10.157   4.353  14.564  0.0622 -0.3014  0.1530
26838W        W42732   0.366   6.344  13.433 -0.3340  0.0228 -0.0693
26839W        W42733   8.018  13.580  12.404 -0.3726  0.2258  0.0348
26840W        W42734   9.713   6.499  13.206  0.1177  0.3809  0.0383
26841W        W42735  17.017  17.708   3.568 -0.0628 -0.0177 -0.2273
26842W        W42736   7.856   2.174  13.812  0.1997  0.0184 -0.3187
26843W        W42737   8.749   8.628  15.837 -0.2796 -0.1109  0.2842
26844W        W42738   6.388  15.652   3.955  0.0934 -0.1531  0.0118
26845W        W42739  16.382  14.644   2.331  0.1081  0.0682 -0.0618
26846W        W42740  17.371  14.823  12.452 -0.2327 -0.0107 -0.1577
26847W        W42741  14.688  17.815   5.789  0.0291  0.0792  0.2797
26848W        W42742  10.225  15.873   1.649 -0.0880 -0.1640  0.1916
26849W        W42743   2.727   7.261   5.250 -0.1557 -0.3101  0.1801
26850W        W42744  12.145   3.355   0.984  0.3085  0.0685 -0.0472
26851W        W42745   9.279   2.805   1.618  0.1548 -0.0672 -0.1550
26852W        W42746  13.285  16.697  12.083  0.0998  0.1005 -0.2233
26853W        W42747  16.587  16.492  15.454 -0.2513 -0.3121  0.2233
26854W        W42748   3.829  11.205   3.508 -0.0083  0.2559 -0.3150
26855W        W42749  12.596   6.321   0.948 -0.1493  0.0945  0.1969
26856W        W42750   2.592  11.680  12.609 -0.0161 -0.1976 -0.0485
26857W        W42751   2.103  10.944  11.749 -0.2988  0.0994 -0.2730
26858W        W42752   9.282   0.045   2.674  0.0399 -0.3050  0.1011
26859W        W42753   9.398  18.406  15.758 -0.1314 -0.3623 -0.0666
26860W        W42754  11.188  12.599   1.647 -0.0652 -0.2981  0.2993
26861W        W42755  11.409  18.401  13.717  0.1469 -0.0557  0.0324
26862W        W42756  13.188  12.685  13.529 -0.2461 -0.1046  0.0173
26863W        W42757  15.182   4.253   2.472  0.1229 -0.0428 -0.1445
26864W        W42758  12.465   7.110   1.606 -0.1768  0.0028 -0.5378
26865W        W42759  13.704   9.624   2.573  0.1377 -0.0756 -0.3458
26866W        W42760   1.046  15.906   5.210 -0.2097 -0.0854 -0.0796
26867W        W42761   6.966  10.136  10.443 -0.1584  0.1010 -0.2223
26868W        W42762  16.868   5.389   6.153  0.1778 -0.0538  0.3622
26869W        W42763   6.494  12.201  13.958 -0.0595  0.1433  0.0678
26870W        W42764  17.206   6.898  13.742  0.0216  0.1802  0.0210
26871W        W42765   5.282   1.251   3.357  0.0291 -0.0163 -0.2233
26872W        W42766  15.778  16.479  14.702 -0.1611  0.0698 -0.0771
26873W        W42767   1.751  11.141  11.392  0.3614  0.1318 -0.5179
26874W        W42768   0.760  12.639  15.416  0.0095  0.1515  0.1565
26875W        W42769  17.626  13.611  12.911 -0.0316 -0.2272 -0.0329
26876W        W42770   3.517   6.816   5.142  0.0865  0.1668  0.0070
26877W        W42771   6.980   2.065   5.506  0.2329 -0.1471 -0.0430
26878W        W42772  13.581   9.433  13.235  0.1289  0.1015  0.0998
26879W        W42773   7.508   7.588  11.122  0.1634 -0.3009 -0.0235
26880W        W42774   2.004   4.107   1.715  0.0833 -0.1306 -0.0601
26881W        W42775   4.747   9.420  10.888  0.1737  0.0488 -0.2127
26882W        W42776   3.631   8.066  14.829  0.1775 -0.1414  0.0503
26883W        W42777   8.756   1.921   0.629  0.0816 -0.0674  0.1272
26884W        W42778  13.772   7.791  12.402 -0.3811 -0.0643 -0.0648
26885W        W42779  17.295   7.021  11.752  0.0037 -0.1711 -0.0330
26886W        W42780  12.944   4.379  13.369 -0.0703 -0.1717  0.1777
26887W        W42781   5.775   2.376   3.214 -0.0681 -0.1455  0.0557
26888W        W42782  12.136   5.231   2.539 -0.0694  0.2603  0.0235
26889W        W42783   3.917   5.440   4.185  0.3184  0.0683  0.2934
26890W        W42784  10.275  15.701  11.509 -0.2401 -0.1363  0.1005
26891W        W42785  11.076   7.185  15.640  0.0971  0.3621 -0.0289
26892W        W42786   8.112   9.941   5.439  0.0006 -0.0228  0.0400
26893W        W42787  12.893  14.339  15.198 -0.1114  0.1015  0.0286
26894W        W42788  15.040   7.382  13.765  0.0141  0.1127  0.4453
26895W        W42789  11.199   2.901  13.154 -0.3968  0.1478  0.1594
26896W        W42790  17.546   8.352   2.322  0.2214  0.0512 -0.0814
26897W        W42791   4.231   5.466  11.781 -0.2093  0.0421  0.0591
26898W        W42792   9.774  15.146  13.380  0.2180 -0.0591 -0.0972
26899W        W42793  17.651   0.806  13.501  0.2163  0.1071 -0.1678
26900W        W42794   6.726   4.358   0.646 -0.0096  0.0807  0.0067
26901W        W42795  11.344  14.935   4.864 -0.1854 -0.0679  0.1925
26902W        W42796   4.703   7.367  12.335 -0.0805 -0.1733 -0.1222
26903W        W42797  11.749  13.062  12.488  0.0032  0.1177 -0.1549
26904W        W42798  11.548  18.137  16.110  0.1699  0.1943  0.1080
26905W        W42799  11.134  14.472   0.002 -0.0566  0.0131 -0.2259
26906W        W42800   0.466  10.370   3.743  0.1029  0.0367 -0.0533
26907W        W42801  13.789   5.718   6.115  0.2613 -0.1330 -0.0609
26908W        W42802   0.924   6.348  14.704  0.2465 -0.1446  0.4551
26909W        W42803  11.080   1.759   3.372  0.1682  0.0894  0.0096
26910W        W42804  15.035  17.502   4.813 -0.2908  0.2231  0.1516
26911W        W42805  11.904  10.400   1.249  0.0462 -0.3848  0.1321
26912W        W42806  12.491   9.714   3.365 -0.2016  0.1528 -0.0861
26913W        W42807  10.258   6.147  11.786 -0.0894  0.2336 -0.1279
26914W        W42808  15.394   6.796   1.481 -0.2148 -0.2497 -0.0525
26915W        W42809  17.900   6.915   6.373 -0.3481 -0.2175  0.2419
26916W        W42810  13.853   5.773  11.867 -0.1129 -0.0134  0.2781
26917W        W42811  15.741   3.577  14.564 -0.2043 -0.0826 -0.0439
26918W        W42812   0.839  16.335  14.935 -0.2120 -0.0639 -0.0739
26919W        W42813  10.376   2.963  12.981  0.0234 -0.1140  0.0739
26920W        W42814   8.478   2.010  10.714 -0.0879 -0.2332 -0.3231
26921W        W42815   4.864   9.427   1.422 -0.0751 -0.2318  0.2246
26922W        W42816   9.785  17.360   2.521  0.3439 -0.0939  0.0912
26923W        W42817  18.433  15.927  13.142  0.3656  0.1644 -0.0594
26924W        W42818  17.773  14.710   4.074 -0.2405  0.0255  0.1009
26925W        W42819   6.693  13.499   4.931 -0.1254  0.2283 -0.0154
26926W        W42820   9.003  11.732  14.415  0.2683  0.0763  0.1077
26927W        W42821   7.908  14.177   5.045 -0.2736 -0.1451  0.1832
26928W        W42822  13.479  10.448   5.011 -0.0855  0.1480 -0.0524
26929W        W42823   2.690  10.288   0.373  0.1302  0.2559 -0.0389
26930W        W42824  12.396   2.085   5.670 -0.0294 -0.0601 -0.0358
26931W        W42825  12.716   8.257  12.319  0.0931  0.1416  0.1527
26932W        W42826   0.119   3.039  12.007 -0.1294 -0.1913 -0.1084
26933W        W42827   3.669   4.005   5.721  0.2113  0.1291 -0.1954
26934W        W42828  13.462   9.856   3.905  0.0855 -0.3555 -0.0485
26935W        W42829   9.820   8.856   3.888  0.3731  0.1165 -0.1629
26936W        W42830   1.737   5.484  12.774 -0.1396  0.1767 -0.0664
26937W        W42831  13.225   0.809  12.574  0.3416  0.1421 -0.0811
26938W        W42832   8.965   3.814  12.000  0.1567 -0.1869  0.1257
26939W        W42833   2.419  15.998  15.847 -0.0467 -0.0195 -0.1073
26940W        W42834   8.843   7.506  11.132 -0.0304 -0.2909  0.3402
26941W        W42835   1.282   4.335   0.592  0.3627  0.1694  0.0106
26942W        W42836   5.501   5.741  14.732 -0.0052  0.0972  0.0057
26943W        W42837  18.246  16.667  11.427  0.1738 -0.0894 -0.1856
26944W        W42838   4.022  14.518   2.421 -0.1740  0.0671 -0.1764
26945W        W42839   1.952   3.515   5.345 -0.1868 -0.2944 -0.1349
26946W        W42840   4.045   9.821   2.587 -0.2019 -0.0465 -0.3326
26947W        W42841   7.972  17.150   1.006 -0.1825  0.0301 -0.0263
26948W        W42842   1.276  13.728  12.088  0.1335  0.0623 -0.0220
26949W        W42843   5.960  16.654   0.365  0.1276  0.0017  0.0443
26950W        W42844   2.004   9.924   4.260  0.0371 -0.2390  0.0332
26951W        W42845   4.468   4.032   0.838 -0.2543  0.5697  0.1150
26952W        W42846  18.363   6.604   2.266  0.0252 -0.1460 -0.2199
26953W        W42847   3.184  10.062   2.990 -0.0703 -0.0831  0.1257
26954W        W42848   6.381   5.980   3.174 -0.0485 -0.2400  0.1439
26955W        W42849  18.075  13.560   2.918 -0.1864 -0.2054  0.1204
26956W        W42850  12.645  13.338  13.892 -0.0138 -0.0343  0.0941
26957W        W42851   3.205  11.276  15.968 -0.0091 -0.0411  0.0057
26958W        W42852   7.758  14.749   3.733 -0.0559  0.0728  0.1134
26959W        W42853   5.710   2.106  13.238 -0.1784 -0.1657 -0.1273
26960W        W42854  11.444  14.152  11.053  0.0917 -0.0820  0.4348
26961W        W42855   4.877  13.857  12.667 -0.0077 -0.1272  0.0704
26962W        W42856  14.943  15.529  16.141 -0.1305  0.2858  0.2215
26963W        W42857  18.306  17.827   2.485  0.2369 -0.0386 -0.0179
26964W        W42858   1.186  12.470  14.410 -0.3747 -0.3616 -0.2130
26965W        W42859   4.134  13.899   6.148  0.1625  0.2180  0.2404
26966W        W42860   6.814   9.781   4.151 -0.2835 -0.0327 -0.0075
26967W        W42861   2.403  11.375   3.123 -0.0685  0.1438 -0.1808
26968W        W42862  12.279   1.171  13.006  0.0819 -0.1560 -0.3285
26969W        W42863   3.130   2.789  15.163 -0.3133 -0.2511 -0.0168
26970W        W42864  10.302  15.820  14.967  0.1321 -0.2979 -0.2727
26971W        W42865  17.912   8.612  14.114 -0.2274 -0.2681  0.0195
26972W        W42866   1.444   2.026  13.790  0.1529  0.2196  0.1698
26973W        W42867   5.333  10.235  10.904  0.0125  0.3343  0.1218
26974W        W42868   8.213  11.324   0.817 -0.2339 -0.2467 -0.1223
26975W        W42869   5.756  13.992   3.122  0.1039 -0.2355 -0.0606
26976W        W42870   4.117  11.691  12.734  0.1081 -0.0774 -0.2732
26977W        W42871   8.681   4.999   3.208 -0.1222  0.1605 -0.1150
26978W        W42872   8.986  16.620   0.465  0.2381  0.1906 -0.3983
26979W        W42873   8.319  18.370   0.198  0.0489  0.2202 -0.0377
26980W        W42874  18.155   4.023   3.116  0.3135  0.0734  0.1867
26981W        W42875  14.486   8.519   1.635 -0.2012  0.0026  0.0918
26982W        W42876   3.006  16.504  14.825  0.2039 -0.5258  0.3714
26983W        W42877   7.630  16.024   3.516  0.1114 -0.1491  0.1464
26984W        W42878  16.575  12.654  15.274  0.1892 -0.0721 -0.3087
26985W        W42879   9.304   4.562  14.890 -0.0964 -0.3353  0.1050
26986W        W42880  12.446  14.398   4.525  0.0211  0.3653  0.4207
26987W        W42881  15.064  14.650  14.125  0.0913 -0.3015 -0.2079
26988W        W42882  16.855   2.954   3.864  0.3326 -0.1292 -0.1086
26989W        W42883   7.253   3.602  14.062  0.0972 -0.3114  0.0255
26990W        W42884  10.158  10.031  15.629  0.0841 -0.1157  0.2585
26991W        W42885  13.132   1.708  14.354 -0.0092 -0.1027  0.0445
26992W        W42886  14.996   2.025  13.710  0.1036 -0.1716  0.1991
26993W        W42887  10.726   0.204   1.777 -0.2457 -0.0361  0.2805
26994W        W42888   4.755   5.369  13.127 -0.3165  0.0264 -0.0959
26995W        W42889   9.674   8.714  12.594  0.0426  0.3198 -0.0045
26996W        W42890   0.036   3.486   5.756  0.2766 -0.1485 -0.1932
26997W        W42891   5.268  17.434  13.870  0.2495 -0.0293  0.0612
26998W        W42892  15.339  15.140  16.002 -0.0465  0.2243 -0.0894
26999W        W42893  11.297  11.223  12.674  0.2574  0.0945 -0.0025
27000W        W42894   4.357   4.882  14.832  0.0556  0.0585  0.1255
27001W        W42895   7.147  13.566   5.054  0.3450  0.3304 -0.2808
27002W        W42896  12.793  17.631   4.218  0.1683 -0.2315 -0.0886
27003W        W42897  15.386   7.018  16.151  0.1590  0.5034 -0.1053
27004W        W42898   5.909  12.874   4.643  0.2388  0.0991 -0.0595
27005W        W42899  10.403  16.205  11.423 -0.1132  0.0888 -0.2353
27006W        W42900  10.540   1.305   2.034  0.0507 -0.1748  0.1338
27007W        W42901   3.573   9.717  12.282 -0.0276  0.0132  0.1394
27008W        W42902   5.871  14.092   2.053  0.1392 -0.1659  0.1775
27009W        W42903  12.587  11.503   4.902  0.0379 -0.1623  0.0212
27010W        W42904  10.581  10.818   3.193 -0.3328 -0.1195 -0.0436
27011W        W42905   3.996   4.082   2.316  0.0353  0.0057 -0.1104
27012W        W42906   2.279  18.159  11.736 -0.1497 -0.4272 -0.2082
27013W        W42907  15.916  17.960   3.593  0.1784 -0.1633 -0.1379
27014W        W42908   4.329   8.912   2.551  0.2624  0.1612  0.0696
27015W        W42909  10.342   5.075   5.816 -0.2844  0.0637  0.3681
27016W        W42910   3.639  12.017  15.658 -0.0062  0.2491 -0.0153
27017W        W42911  14.825   2.027   1.600  0.0193 -0.1069 -0.0994
27018W        W42912   5.261  15.435  15.095 -0.1108 -0.2748 -0.0204
27019W        W42913   9.488  15.584   0.938 -0.0917  0.3079  0.0695
27020W        W42914   4.879  14.841  11.581  0.0801 -0.1064  0.1990
27021W        W42915  13.595   2.948   1.085  0.0824 -0.2236 -0.1410
27022W        W42916  12.318  10.933   0.906  0.3181  0.2546  0.3340
27023W        W42917   0.255  16.082   4.609 -0.2237  0.2302  0.2086
27024W        W42918  17.223   6.382   4.099 -0.2151  0.1736  0.0491
27025W        W42919  15.426  10.151   5.990  0.0851  0.1456 -0.0415
27026W        W42920   9.605  12.673   0.965 -0.1751 -0.1828 -0.2075
27027W        W42921  15.183   7.478   0.052 -0.0385 -0.1979 -0.0394
27028W        W42922  11.255   2.423  11.955  0.3839 -0.3167 -0.0888
27029W        W42923  15.095   1.156  11.540  0.1149 -0.0070  0.1020
27030W        W42924  12.080   1.434  11.069  0.1143 -0.0096  0.1040
27031W        W42925  12.993   7.841  11.405 -0.1067  0.0751  0.0637
27032W        W42926  11.953  17.611  15.607  0.1715  0.0857  0.2746
27033W        W42927   8.096   4.239  15.441 -0.0386  0.2170  0.1304
27034W        W42928  15.015  12.889   0.849 -0.2401 -0.0722 -0.1856
27035W        W42929  13.741  16.470  12.785  0.0188 -0.3330  0.1714
27036W        W42930  12.754  11.097  15.098 -0.2418  0.1453 -0.1511
27037W        W42931   7.037  14.861   5.074 -0.1478  0.0095  0.0239
27038W        W42932   1.668   3.817   2.987  0.0007  0.3109  0.0309
27039W        W42933  10.291   6.721  10.752 -0.3139 -0.1093 -0.0019
27040W        W42934   3.430   3.961   0.970  0.1259 -0.0099  0.2553
27041W        W42935   1.474   7.268   3.982 -0.2478  0.1225 -0.1271
27042W        W42936   8.095   5.386   1.866  0.2612  0.0799  0.0124
27043W        W42937  16.811  10.452  15.369  0.1204  0.1156  0.2729
27044W        W42938  10.613  16.755   2.553 -0.0382 -0.1897 -0.0516
27045W        W42939   5.456   9.412  13.382  0.0457  0.0497 -0.0355
27046W        W42940  13.508  18.426   1.735  0.0982 -0.1586 -0.2299
27047W        W42941  15.864  17.175   5.184  0.1274 -0.1791 -0.0461
27048W        W42942  14.457   8.701  15.985 -0.0715  0.1019 -0.1664
27049W        W42943  11.791  11.971   1.384  0.3629 -0.3542 -0.0192
27050W        W42944  11.808   8.252   0.112  0.0221 -0.4003 -0.4125
27051W        W42945   0.994   7.670  12.629 -0.2128 -0.1521  0.0936
27052W        W42946  17.022  11.590   1.200  0.0352  0.0731 -0.2108
27053W        W42947   7.672  16.938  11.594 -0.1128 -0.2239  0.3805
27054W        W42948   9.504   7.640   3.707  0.0181  0.1100 -0.2790
27055W        W42949  16.145   2.205  11.760  0.0494 -0.2189  0.2208
27056W        W42950  10.790  14.731  14.048 -0.1297 -0.2883 -0.4600
27057W        W42951  14.703   2.228   3.949 -0.2560 -0.0618 -0.1651
27058W        W42952  17.355   2.520  14.778 -0.0127 -0.0973  0.1258
27059W        W42953   7.291  16.615   0.939  0.2438  0.0963  0.3288
27060W        W42954  11.569  11.790  10.702  0.1345  0.0036  0.4390
27061W        W42955   6.502  18.467   1.684  0.1842  0.0786 -0.0863
27062W        W42956   5.336  16.015   1.996  0.1663  0.3092 -0.4208
27063W        W42957  17.922   1.319  14.695 -0.3649 -0.1136  0.4707
27064W        W42958  16.922  10.560  14.383 -0.3544 -0.0201 -0.0951
27065W        W42959   4.731  15.898   9.929 -0.1817 -0.0621 -0.1437
27066W        W42960  13.019  17.204  11.680 -0.5153  0.2524  0.0386
27067W        W42961  14.404  10.185   4.885  0.0436  0.0651  0.1742
27068W        W42962   9.710  13.287   0.485  0.1498 -0.0192  0.1711
27069W        W42963   5.404  18.360  13.464  0.0006 -0.1254  0.2360
27070W        W42964   9.464  11.640   4.840 -0.2228  0.0353 -0.1109
27071W        W42965   5.371   3.057  13.236 -0.1933 -0.2841 -0.0197
27072W        W42966   1.237  14.985   4.086 -0.0149  0.1407 -0.1232
27073W        W42967   0.862  13.233   3.660  0.2966  0.0894 -0.0611
27074W        W42968   3.123   3.506   1.846 -0.1648  0.1742  0.0050
27075W        W42969  18.350  11.047  12.654  0.3375 -0.0936  0.0123
27076W        W42970  14.161  15.338  11.917  0.0460 -0.1177  0.1704
27077W        W42971   2.660  14.514  15.786  0.2082 -0.1005  0.2046
27078W        W42972  16.676   3.851   1.862 -0.0682  0.1813  0.1698
27079W        W42973  14.750   1.498  13.839  0.1103  0.0396 -0.0791
27080W        W42974   0.405  13.323   5.573  0.0354  0.1718  0.1752
27081W        W42975  17.560  15.399   0.879 -0.0456 -0.2462  0.1981
27082W        W42976  11.085   0.732   0.536 -0.0155  0.1642 -0.1014
27083W        W42977  13.608   9.322  14.873  0.1289  0.6643 -0.0919
27084W        W42978   3.596   1.282   3.437  0.1597 -0.2247  0.0389
27085W        W42979  15.663   3.930   4.664  0.0720 -0.2948 -0.0547
27086W        W42980  11.074   6.451   1.139  0.2730  0.3064  0.1886
27087W        W42981  11.193  18.134  14.565 -0.0868  0.0773  0.0522
27088W        W42982   7.020  13.315  11.357 -0.2659 -0.0358  0.0091
27089W        W42983  15.685  18.203  14.973  0.1471  0.0451  0.3420
27090W        W42984   4.718  16.611   3.246  0.4902 -0.3517  0.1229
27091W        W42985   8.341  12.152   4.649 -0.0316 -0.2041 -0.2619
27092W        W42986  11.006  17.211   4.509 -0.1263  0.3145  0.3990
27093W        W42987   9.574   1.630   2.053  0.1028 -0.1504 -0.2563
27094W        W42988   2.171   9.562   5.282 -0.2588 -0.0788 -0.1243
27095W        W42989   6.403   9.802   3.620  0.2612 -0.0535  0.1122
27096W        W42990  16.431   0.444   3.642  0.2927 -0.0710  0.0863
27097W        W42991  11.651   5.201   1.740  0.1131 -0.3048 -0.5627
27098W        W42992  13.917   3.942   2.613 -0.2644 -0.2302  0.1086
27099W        W42993  11.636   2.838   5.445  0.1052 -0.1858 -0.1050
27100W        W42994  15.480   2.004   1.054  0.1065  0.1739  0.0458
27101W        W42995   7.270  17.215  13.087 -0.3127  0.0407  0.0509
27102W        W42996  10.111  16.152   2.160 -0.0480 -0.1884  0.0076
27103W        W42997  10.729  12.664   1.213  0.1369  0.3174 -0.0675
27104W        W42998   3.213   7.264   4.993  0.2537 -0.0190  0.3100
27105W        W42999  15.697   6.277   3.563 -0.0382 -0.2212  0.0396
27106W        W43000  13.500   7.454  13.736  0.4135  0.0085 -0.0820
27107W        W43001   9.613  11.209  14.733  0.1985  0.2013 -0.2203
27108W        W43002  16.903  10.680   5.399  0.0888 -0.0797  0.2133
27109W        W43003   0.992   5.851   2.591  0.3121  0.1404 -0.2728
27110W        W43004  16.437   3.240   4.939 -0.1086 -0.0968 -0.1211
27111W        W43005  11.976  12.529   1.218 -0.0882 -0.0069  0.0297
27112W        W43006  11.003  16.725  12.794 -0.0626  0.1322 -0.0639
27113W        W43007   6.715  18.047  13.133 -0.2542 -0.0429 -0.0112
27114W        W43008   7.235  13.915  10.906 -0.3860  0.3509  0.0720
27115W        W43009  13.130   6.328  11.904 -0.0527 -0.0084  0.2093
27116W        W43010  12.222   3.098   4.323  0.1137 -0.1545 -0.3544
27117W        W43011  18.389   3.240   4.518 -0.1292  0.2259  0.0319
27118W        W43012   8.576   5.351  12.877  0.1238 -0.0861 -0.2422
27119W        W43013   6.928   7.954   0.826 -0.1221 -0.2041 -0.0088
27120W        W43014   3.622  15.145  13.337 -0.2195  0.2028 -0.0003
27121W        W43015  13.136  17.114  13.911  0.0171 -0.2904  0.2108
27122W        W43016   8.164  16.276  11.555  0.5026 -0.0104  0.0305
27123W        W43017  12.518  15.814   4.169  0.0625 -0.1525  0.0622
27124W        W43018   9.330   9.627  14.044 -0.0183 -0.1028 -0.1249
27125W        W43019  14.934   5.089  15.715  0.0847  0.0101  0.0322
27126W        W43020   1.302  17.047  15.313 -0.0766  0.3830 -0.0298
27127W        W43021  16.204   5.629  14.197 -0.2262  0.1432 -0.0472
27128W        W43022  10.706   9.883  16.029 -0.0719  0.0043 -0.0978
27129W        W43023   4.172   7.367  14.545  0.3044 -0.4057  0.1431
27130W        W43024   3.806   9.514   4.767  0.2505  0.0574 -0.1392
27131W        W43025   4.194  11.094   3.054  0.0626  0.1645 -0.2279
27132W        W43026   1.660   3.134   5.213 -0.0027 -0.0094 -0.0236
27133W        W43027   0.602  17.053  10.719  0.1287 -0.0086 -0.0801
27134W        W43028  11.207   5.364  13.469  0.4504  0.1272 -0.0668
27135W        W43029   1.137  17.781  10.937  0.3236  0.2817 -0.1499
27136W        W43030  14.370   7.038  12.342 -0.3193  0.1018 -0.2695
27137W        W43031  11.926   9.497   1.620 -0.2606 -0.1127  0.0246
27138W        W43032   4.504   9.174  11.591  0.2145 -0.1365  0.1602
27139W        W43033   5.402   5.001   5.101  0.4659 -0.1368  0.3536
27140W        W43034  14.767   7.936   3.929  0.0557 -0.2950 -0.5598
27141W        W43035   9.431   5.543  11.318  0.1661  0.2191 -0.1794
27142W        W43036  13.828  16.565  11.102  0.1049  0.1315 -0.0008
27143W        W43037   9.964  15.114  15.035 -0.2897 -0.4057  0.1113
27144W        W43038  13.352   1.541  12.079 -0.0421  0.0610 -0.0546
27145W        W43039   9.302   5.293  15.637 -0.1169 -0.0977  0.0603
27146W        W43040  11.515   8.773  13.226  0.1125 -0.3830  0.1768
27147W        W43041  14.661   5.254  12.313 -0.2000  0.0109 -0.2401
27148W        W43042   6.091  15.805   2.197 -0.0644 -0.2471 -0.1156
27149W        W43043   6.591   2.742   4.243  0.2630 -0.2702  0.1327
27150W        W43044   5.957   7.971   0.976  0.0671 -0.1228 -0.2580
27151W        W43045  11.979  16.801  15.095 -0.1043  0.2228  0.1657
27152W        W43046  13.942  15.134   3.710 -0.0247  0.2016 -0.0784
27153W        W43047  15.666   3.761  13.370  0.2121 -0.1598  0.2993
27154W        W43048  15.235  10.965  12.602  0.1910  0.0316  0.0112
27155W        W43049   5.375  10.048   2.054 -0.1080  0.0095 -0.2614
27156W        W43050   2.463  15.500  15.799 -0.0746 -0.1612 -0.0055
27157W        W43051   6.981   0.414  12.291 -0.4030 -0.0830 -0.1611
27158W        W43052   9.394  18.308   5.223 -0.1888 -0.3536 -0.2393
27159W        W43053  16.858   3.744  11.997 -0.2426 -0.4879 -0.0172
27160W        W43054   5.862   0.053   0.106 -0.2334 -0.0950  0.3678
27161W        W43055   7.045  17.208   4.541 -0.2544  0.0386 -0.1444
27162W        W43056  18.277   4.967   4.758 -0.0696 -0.0294  0.0993
27163W        W43057  18.062   6.361  13.463 -0.2137  0.0800 -0.1468
27164W        W43058   7.472   4.653  14.179 -0.2930 -0.0057 -0.0188
27165W        W43059  15.616  10.802   1.968  0.2310 -0.3961 -0.1194
27166W        W43060  10.237   4.224   3.750 -0.4182 -0.0097 -0.0985
27167W        W43061   7.805   2.842  14.575  0.1824  0.2304  0.2153
27168W        W43062  12.488   3.425   3.468  0.2550  0.3750  0.0677
27169W        W43063   1.231   3.381   1.585  0.0118  0.0281  0.3412
27170W        W43064   0.534  11.128  10.747 -0.0976  0.4612 -0.1328
27171W        W43065   3.247   4.016   4.640  0.4269 -0.2426 -0.0092
27172W        W43066  10.421   5.809   4.668 -0.0042  0.0400 -0.2721
27173W        W43067  10.000  18.218   0.857 -0.0766 -0.0189  0.0351
27174W        W43068  12.076  15.841  12.440 -0.1079 -0.2990 -0.3046
27175W        W43069  16.652   7.939   1.769 -0.2295 -0.3328 -0.2492
27176W        W43070  16.470   1.948  15.517 -0.0011  0.0704  0.0147
27177W        W43071   9.119  14.317  11.827 -0.0798  0.1508  0.1085
27178W        W43072   1.062  11.291   1.047 -0.2045 -0.0103  0.3424
27179W        W43073   9.686   8.350  16.081 -0.0873  0.1017  0.1221
27180W        W43074   0.397   4.010  14.964 -0.0668 -0.0874  0.0758
27181W        W43075  10.159   6.335   3.745 -0.1552  0.2266  0.1147
27182W        W43076  16.676   7.114   5.633  0.0001 -0.1808 -0.1297
27183W        W43077  14.622  16.844  14.882 -0.0047 -0.0403  0.0156
27184W        W43078   9.210   1.405   2.412  0.3372  0.1888  0.2743
27185W        W43079  14.214  14.225  14.271 -0.1271  0.0066  0.0485
27186W        W43080   6.445  10.927  11.122  0.2023 -0.0084  0.2543
27187W        W43081  11.213   0.597  11.581  0.4409  0.1265  0.4114
27188W        W43082   1.880   5.921   5.124 -0.0287  0.2046  0.3164
27189W        W43083  13.721  10.464  11.104  0.0810  0.0573 -0.0942
27190W        W43084   1.772   5.078   2.224  0.0283 -0.1146  0.3739
27191W        W43085   4.780  10.620  14.578 -0.1961  0.1149 -0.2802
27192W        W43086   2.298  11.444   3.988 -0.2267  0.1453 -0.1568
27193W        W43087  12.928  15.420  13.247 -0.2856 -0.0691  0.1657
27194W        W43088  15.541   6.282  14.440 -0.0601 -0.1092  0.2333
27195W        W43089   9.689   5.160   4.610 -0.1279 -0.2832 -0.1171
27196W        W43090   7.705  15.817   1.660  0.2656 -0.1142 -0.3125
27197W        W43091   9.774   5.142   0.637 -0.0036 -0.0872 -0.0093
27198W        W43092  14.138   1.366  16.103  0.2252  0.2291  0.0485
27199W        W43093   8.288   1.554  12.069 -0.0913  0.0689 -0.2437
27200W        W43094   9.190   8.900  12.735 -0.0980  0.0484 -0.1052
27201W        W43095  14.720   3.745   1.646 -0.2594 -0.0144 -0.1126
27202W        W43096  12.854   6.477  11.455 -0.0244 -0.0886 -0.3426
27203W        W43097   9.993   3.478   2.678 -0.0684  0.0417 -0.2787
27204W        W43098   8.571  13.540   4.995  0.1507 -0.0969 -0.4281
27205W        W43099   9.571  17.672   3.137  0.1017  0.2254  0.0395
27206W        W43100  13.723  10.400   3.360 -0.0541 -0.3186  0.0640
27207W        W43101  13.898   3.803  12.753  0.0569  0.1082 -0.1769
27208W        W43102   4.050  15.062  13.009 -0.0235 -0.0257 -0.2563
27209W        W43103   2.455   6.932  16.012  0.1483 -0.1189  0.2460
27210W        W43104   7.836   2.731  15.855 -0.2147 -0.0185 -0.2311
27211W        W43105   3.793  15.292  13.848 -0.1026 -0.1808  0.2274
27212W        W43106  15.792  12.000  12.790  0.4133 -0.0791  0.1259
27213W        W43107   2.091   9.325   2.654  0.1281  0.2972 -0.0326
27214W        W43108  11.909  12.868   4.185 -0.1934 -0.2070 -0.0923
27215W        W43109  13.029   7.059  12.792  0.1880 -0.0241 -0.1480
27216W        W43110   9.690   7.872   0.119  0.0494 -0.3950  0.1612
27217W        W43111  13.572  11.177  12.736  0.1724 -0.0976  0.2217
27218W        W43112   6.299  15.562  10.917 -0.5491 -0.0516  0.1047
27219W        W43113  12.416   6.313  13.650 -0.2260  0.0365 -0.1096
27220W        W43114  18.076   3.295   5.475 -0.1071  0.2244  0.1671
27221W        W43115   7.677   9.805   2.372 -0.0663 -0.3092 -0.1604
27222W        W43116   3.632  10.135   2.592 -0.0604 -0.0331  0.0176
27223W        W43117   2.193   2.317  14.153  0.1171 -0.2620 -0.2071
27224W        W43118   9.529  15.224   0.073 -0.1451 -0.0052 -0.6242
27225W        W43119  16.081  15.302  10.519  0.3464  0.0801  0.1577
27226W        W43120   2.664  10.794  15.361  0.1132 -0.0371  0.0034
27227W        W43121  11.514  16.283   1.191  0.1928  0.1152 -0.0745
27228W        W43122   4.513   1.861  10.822 -0.2663 -0.0495 -0.0881
27229W        W43123   6.111  11.657  14.524  0.0987  0.1511  0.0750
27230W        W43124  15.084  12.620   4.203  0.1387  0.0890 -0.4930
27231W        W43125  17.277   1.467  15.212  0.1874 -0.3615 -0.0885
27232W        W43126  15.935   0.731  13.907 -0.2280  0.0602  0.0943
27233W        W43127   3.523  16.665  13.488 -0.4228 -0.0019 -0.0060
27234W        W43128   3.946   5.131   5.140  0.1065  0.0968 -0.3295
27235W        W43129  17.932  10.794  12.082 -0.2451  0.1859  0.0636
27236W        W43130  17.855  15.981  12.418 -0.0469 -0.2828 -0.0162
27237W        W43131  14.848  16.010   0.162  0.1204  0.1357 -0.2389
27238W        W43132   9.739   6.027   0.245  0.2045  0.1152  0.0342
27239W        W43133  16.682   1.199  14.122  0.1140  0.1188 -0.0836
27240W        W43134   6.373   2.251   0.368 -0.1111 -0.2517 -0.0831
27241W        W43135   1.724  16.205  13.052 -0.0350 -0.2363 -0.2059
27242W        W43136   1.527  10.168  15.069 -0.3253 -0.2313  0.2008
27243W        W43137   8.531   8.976   3.819 -0.0610 -0.0028  0.0993
27244W        W43138  14.169   8.604   2.576 -0.3982  0.2733  0.2672
27245W        W43139   8.158  14.212  14.658 -0.1600 -0.2256  0.0703
27246W        W43140   9.801   9.381  13.762  0.1468  0.1561 -0.0501
27247W        W43141  17.525   5.370  12.282  0.0307  0.2015  0.1623
27248W        W43142   2.206  11.616   0.168 -0.0866  0.0734  0.2352
27249W        W43143   1.991   8.615   0.421  0.0709  0.3195 -0.0187
27250W        W43144  15.978  13.948  15.594  0.2108  0.0044  0.1463
27251W        W43145   4.769   4.353   4.264  0.1749  0.2486  0.1766
27252W        W43146  11.977   6.179   4.190 -0.0893 -0.4464  0.1103
27253W        W43147   4.753   7.603   5.571 -0.0238 -0.2374 -0.1218
27254W        W43148   6.944   4.296  11.582 -0.1545 -0.1497  0.2566
27255W        W43149   8.978  10.150  15.797 -0.2488 -0.1764  0.1380
27256W        W43150  17.212  16.979   0.379 -0.1551 -0.1067 -0.0977
27257W        W43151   3.428   5.239  15.544 -0.0558 -0.0441  0.0840
27258W        W43152  14.570  10.899  13.387  0.1907  0.0781  0.0754
27259W        W43153  15.033   0.222   4.322 -0.1474  0.3855 -0.2692
27260W        W43154  12.261  12.661   2.546  0.1147  0.1820  0.1428
27261W        W43155   5.534   1.009   2.465 -0.3003  0.2042  0.0219
27262W        W43156  14.354  16.008  15.734 -0.0755 -0.5000 -0.1335
27263W        W43157   6.020  12.424   2.007  0.1667 -0.3643 -0.3253
27264W        W43158  10.334   8.171  13.214 -0.0272  0.0169 -0.3414
27265W        W43159  13.180  18.008  13.660  0.0578 -0.2115  0.2451
27266W        W43160  11.315  14.023  13.026 -0.0846 -0.0448  0.2313
27267W        W43161  14.685   8.003  15.842 -0.0518  0.2610  0.1982
27268W        W43162   6.811   4.457   1.139  0.1665 -0.1430  0.0476
27269W        W43163  10.821   4.582  10.252 -0.0942 -0.0521  0.3153
27270W        W43164   7.086   8.751  15.121 -0.0223  0.0408  0.1908
27271W        W43165   2.668   0.582  11.504 -0.2299 -0.1795  0.1803
27272W        W43166  14.943   6.850   5.821  0.2713 -0.0016  0.0923
27273W        W43167  13.626   7.529   0.324  0.1251  0.1020  0.1061
27274W        W43168  16.834   1.603   4.946  0.0124 -0.0376 -0.0862
27275W        W43169   4.091   2.584  16.141  0.0262  0.1071 -0.2133
27276W        W43170   8.797  13.376   4.291  0.1638  0.0035  0.0991
27277W        W43171   0.952   7.054   5.027 -0.2073  0.1215 -0.0091
27278W        W43172   3.106  15.516   3.681 -0.1109  0.2758  0.1375
27279W        W43173  14.565   7.957  14.434 -0.1406 -0.1161 -0.1890
27280W        W43174   6.015  12.470   4.322  0.0808 -0.0956 -0.2110
27281W        W43175   8.838  13.522   1.824 -0.2632 -0.0296 -0.2426
27282W        W43176  13.077  13.635  11.386 -0.2351  0.2083  0.2472
27283W        W43177  13.958  12.354   3.998 -0.0217  0.0452  0.2354
27284W        W43178  11.598   9.579  14.669  0.2065  0.0577  0.1147
27285W        W43179   7.889   1.975  10.802 -0.2145 -0.2921  0.0102
27286W        W43180  11.390  17.830   1.874  0.2618 -0.2567  0.0955
27287W        W43181  15.567   6.789  12.124  0.1937  0.3324 -0.4849
27288W        W43182  17.600  12.371   0.358  0.1250 -0.2017  0.1918
27289W        W43183   4.017   8.218   1.874 -0.1182 -0.1180 -0.3222
27290W        W43184  15.881   8.745   4.784  0.1554  0.1114  0.1937
27291W        W43185  15.126   1.835   4.085  0.1047  0.3203  0.0226
27292W        W43186  11.800  13.533  15.241 -0.2424  0.0270  0.2916
27293W        W43187  17.371  15.530   0.051  0.4275 -0.0920 -0.0163
27294W        W43188   8.999   8.622   4.233  0.1264  0.0266  0.2337
27295W        W43189   0.619  11.021   1.096  0.2166 -0.1495  0.0841
27296W        W43190  12.450   3.443  14.696  0.2914  0.1623  0.0017
27297W        W43191   0.184   5.370  12.917 -0.0219 -0.1837 -0.0293
27298W        W43192  17.076   1.543   0.100  0.0702 -0.0633 -0.2655
27299W        W43193  15.511   3.998  14.363  0.1746  0.3274  0.0396
27300W        W43194   6.188  14.236   2.451 -0.2657  0.2245 -0.1297
27301W        W43195   5.335   9.888   2.526 -0.1153  0.2722 -0.0175
27302W        W43196   7.602  16.425  10.996  0.2427 -0.1481 -0.1327
27303W        W43197  10.876   0.695  13.799 -0.0833  0.1989  0.1209
27304W        W43198  12.688  12.843  13.610  0.3001  0.2571 -0.1521
27305W        W43199   6.191  17.936  14.973 -0.1040 -0.3025  0.1394
27306W        W43200   8.382  11.787  15.223 -0.0262  0.0441 -0.5572
27307W        W43201   5.683   6.239  11.294  0.2278 -0.1523 -0.2106
27308W        W43202   8.949   2.388   1.115  0.1364  0.0830 -0.1385
27309W        W43203   5.133  15.758  14.415 -0.0371  0.0350  0.0706
27310W        W43204   6.592   9.658   4.668 -0.0016 -0.3507 -0.0171
27311W        W43205   0.552  11.275   2.712 -0.2792  0.5041 -0.2728
27312W        W43206  17.698   3.986   5.587  0.1503  0.2429 -0.1023
27313W        W43207  16.686   6.251   5.225  0.3721  0.2697  0.1087
27314W        W43208   3.832   0.764  11.579  0.2036  0.2350 -0.1004
27315W        W43209   6.949   4.322  14.652  0.1031 -0.0829 -0.1963
27316W        W43210   5.671   1.465   0.784 -0.2544  0.1544  0.3003
27317W        W43211   1.457   8.437   4.182  0.0828  0.0552  0.3200
27318W        W43212  11.415   5.142  14.766  0.4187  0.2182 -0.1790
27319W        W43213  18.038  12.592  12.454 -0.1809  0.1026  0.1764
27320W        W43214   0.343   0.701   1.778 -0.0670 -0.2531  0.1014
27321W        W43215   3.556  15.423  12.823  0.2074 -0.4070 -0.0324
27322W        W43216  15.643  15.915   0.646 -0.0438 -0.1443  0.0286
27323W        W43217   5.745   1.686   1.293 -0.0565  0.2404 -0.0167
27324W        W43218  16.485   2.744  13.102 -0.0901  0.2311  0.1702
27325W        W43219   1.229   3.571  11.879  0.3116 -0.0015  0.2849
27326W        W43220  17.853   2.851   5.638  0.0715  0.0957 -0.5172
27327W        W43221   6.599  12.724  13.821 -0.3173 -0.1599  0.3086
27328W        W43222  10.236  16.652  11.234  0.1048  0.3648  0.0954
27329W        W43223  15.197   9.753  11.781 -0.0848  0.2232  0.1430
27330W        W43224   6.049  10.456  13.177 -0.3947 -0.3419 -0.2960
27331W        W43225   5.744  10.824  13.970  0.0598 -0.1917  0.3094
27332W        W43226   7.180  16.542   5.562  0.2818 -0.2164 -0.0223
27333W        W43227   1.140  12.537  13.442 -0.2375 -0.0344  0.0532
27334W        W43228  16.361  17.569   0.927 -0.3112  0.0634 -0.2358
27335W        W43229   9.044   0.519   3.745  0.0090  0.2065 -0.0774
27336W        W43230  16.831  18.439   1.512  0.2225 -0.0537  0.0796
27337W        W43231   2.884   0.630   0.345 -0.0249 -0.2227  0.0171
27338W        W43232  13.916  12.211  13.520 -0.1226 -0.0325 -0.1333
27339W        W43233   8.715  11.166  12.858 -0.1205 -0.1121 -0.1612
27340W        W43234   5.982  11.951   2.764 -0.1701 -0.1909  0.1777
27341W        W43235  15.336  11.864   2.568 -0.0063 -0.3099  0.0467
27342W        W43236  14.871   8.256   3.556  0.0074 -0.3275 -0.0811
27343W        W43237   6.067  13.830   4.316 -0.1311 -0.0229 -0.0469
27344W        W43238   1.483   3.518  15.188  0.0874 -0.1316  0.4349
27345W        W43239   7.670   5.153  12.120  0.4010 -0.0128  0.1376
27346W        W43240  15.063  14.284   0.490 -0.2804 -0.0625 -0.1222
27347W        W43241   2.564   2.564  12.355  0.2132  0.0228 -0.0523
27348W        W43242  13.638  17.787  11.699 -0.2366  0.0021  0.2666
27349W        W43243  10.203   1.021   1.833 -0.3972  0.1522 -0.1966
27350W        W43244   6.702  14.772  15.576 -0.0979  0.0376  0.1198
27351W        W43245  13.483  14.915  13.934 -0.0596  0.0523  0.0385
27352W        W43246   1.999  10.056  11.402 -0.0040 -0.2611  0.1296
27353W        W43247   0.735   1.384   2.432  0.1024  0.1864  0.1549
27354W        W43248  16.113   7.518  12.419 -0.0466  0.0985 -0.3410
27355W        W43249   8.518  15.671  14.174 -0.2370  0.1739 -0.0113
27356W        W43250   6.325  15.572  16.054 -0.0301  0.0956 -0.2449
27357W        W43251   0.785   3.018  16.051 -0.0077  0.0782  0.0160
27358W        W43252  13.922  16.731   3.564  0.1350  0.1092 -0.0038
27359W        W43253  11.347   4.749   3.360 -0.0646 -0.0534 -0.2180
27360W        W43254   7.156  14.751   4.136 -0.1262  0.1716  0.1533
27361W        W43255   7.151   0.678   0.507 -0.0274 -0.1159 -0.0402
27362W        W43256   7.350  13.077   5.546 -0.0832 -0.3649 -0.0668
27363W        W43257   0.378  12.704  14.058 -0.1182  0.0816  0.3260
27364W        W43258  11.310   0.681   2.241 -0.2012 -0.0688  0.0932
27365W        W43259   5.184   2.653   2.470 -0.0946  0.3721  0.1137
27366W        W43260  12.096   9.355  15.567  0.0252 -0.1197  0.1470
27367W        W43261   9.435  13.918  15.528 -0.2295  0.0653  0.2226
27368W        W43262   4.306   7.802  10.766  0.2082 -0.3302 -0.2303
27369W        W43263  15.864   4.205   2.997 -0.0576 -0.2642 -0.0044
27370W        W43264  11.406   2.639   1.911 -0.2151 -0.2895 -0.2192
27371W        W43265  11.578  12.247   1.924  0.1053  0.1457  0.1030
27372W        W43266  17.006   3.515  15.336  0.0684 -0.2568  0.0556
27373W        W43267   3.811  18.009  14.290 -0.1137  0.0775  0.1039
27374W        W43268   9.372   2.065   4.525  0.0447 -0.4762  0.1826
27375W        W43269   3.587  15.881  15.190  0.2860 -0.0263  0.3159
27376W        W43270   3.514   5.297   1.318  0.0661 -0.3129  0.4454
27377W        W43271  17.240   5.214  11.794 -0.1322  0.2601 -0.3663
27378W        W43272  10.171   7.414   1.798  0.3180 -0.0480 -0.0073
27379W        W43273  12.357   1.948  13.628 -0.0976 -0.1193  0.0054
27380W        W43274  15.294   1.432   4.344 -0.1122  0.3874 -0.0965
27381W        W43275   9.871   4.988  13.205 -0.3401  0.0627  0.0120
27382W        W43276   5.221  15.391  13.860 -0.1448  0.0159 -0.2886
27383W        W43277  13.849  11.464  13.087 -0.0650  0.0522 -0.4956
27384W        W43278   3.229   5.094  13.171 -0.1326 -0.0925 -0.0465
27385W        W43279   3.100  13.348  11.958 -0.1590  0.0851 -0.0163
27386W        W43280  17.498  17.634  11.787 -0.2728 -0.1565  0.1748
27387W        W43281   5.563  17.404  11.214  0.2358 -0.3006 -0.1177
27388W        W43282   4.859   2.173  11.815  0.1310 -0.1121 -0.2053
27389W        W43283   3.998   3.695   1.870 -0.0197  0.4323  0.1959
27390W        W43284  14.075   7.588   1.301  0.1485 -0.0279  0.2853
27391W        W43285   2.040   1.400   5.342  0.2686 -0.0435  0.4726
27392W        W43286  10.388   0.617  12.057 -0.0772 -0.0765  0.3878
27393W        W43287   7.906  10.146   3.398 -0.0915  0.0784 -0.1125
27394W        W43288  11.849  16.924  13.958  0.1017  0.0793 -0.3601
27395W        W43289   0.868  15.948   3.190  0.2687  0.1608 -0.1262
27396W        W43290  17.724   1.779  16.133  0.3925  0.0722 -0.5382
27397W        W43291  17.153  15.148  15.891 -0.0412  0.2036 -0.1312
27398W        W43292  16.675   4.624  14.665  0.1145 -0.0119 -0.0470
27399W        W43293  11.158  15.433   1.157  0.2075 -0.2866  0.0549
27400W        W43294  15.211   6.298   3.405 -0.0364 -0.3746  0.1010
27401W        W43295   8.215  16.798  11.689 -0.0913  0.1968 -0.1829
27402W        W43296  10.286  12.955  14.533 -0.1773  0.0986  0.0862
27403W        W43297   1.225   0.027   4.594  0.3166  0.0290 -0.0045
27404W        W43298   0.729   5.914  16.139  0.1070  0.1901  0.2583
27405W        W43299  16.596   9.970   0.346  0.2264 -0.1728  0.2836
27406W        W43300  14.841  18.422   3.035  0.1379 -0.0268  0.0012
27407W        W43301  14.775  11.082   5.644  0.0597 -0.0909  0.1289
27408W        W43302  15.374   1.921   1.567  0.2354 -0.0767  0.0505
27409W        W43303  17.972   7.662   3.851 -0.0265  0.0796  0.0241
27410W        W43304   6.940   1.152   4.552 -0.2404  0.2054  0.0134
27411W        W43305  10.805   2.833  14.817  0.2699 -0.1582 -0.1386
27412W        W43306  11.049  17.356  12.375 -0.0041  0.3530 -0.1102
27413W        W43307  17.492  16.594   0.342  0.3828  0.1115 -0.0224
27414W        W43308  17.105   2.259   3.371 -0.1129  0.1509 -0.2080
27415W        W43309   6.043   8.224  12.670 -0.0150  0.1716 -0.2005
27416W        W43310  17.764  14.890  14.929  0.0572  0.0510 -0.0553
27417W        W43311   9.764  17.519  15.271 -0.1665  0.0739 -0.2629
27418W        W43312   8.533   5.841   0.332 -0.3273 -0.0210 -0.1413
27419W        W43313  15.468  16.738   4.292  0.1566 -0.1464  0.0894
27420W        W43314   4.607  11.012  14.855 -0.2152 -0.0651  0.0623
27421W        W43315   6.794  10.382  14.087 -0.1337 -0.2711 -0.1446
27422W        W43316  12.108   1.834   4.300  0.2159  0.1564  0.0603
27423W        W43317  11.370  14.675  15.003  0.0422 -0.0147  0.1041
27424W        W43318   3.085  15.192  15.364 -0.2089  0.0655 -0.1355
27425W        W43319   1.778   5.575  14.940 -0.0592 -0.0454 -0.0434
27426W        W43320  13.561  16.957   1.284 -0.0669 -0.1033 -0.3916
27427W        W43321   4.134  14.379   2.984  0.1483 -0.0486 -0.0456
27428W        W43322  13.139   0.888   4.793  0.2886 -0.1671  0.2916
27429W        W43323   2.631  15.862  15.439  0.3544 -0.0558 -0.3371
27430W        W43324  13.343   5.241  12.569  0.0605  0.2396 -0.2648
27431W        W43325   2.993  14.103   0.979  0.1952  0.0600 -0.0881
27432W        W43326   8.687   2.306   4.872 -0.3252  0.1630 -0.0052
27433W        W43327   7.271   7.543   4.545 -0.0614  0.1037  0.0919
27434W        W43328  16.577   4.627   0.745 -0.3026 -0.0044 -0.0554
27435W        W43329  13.552   9.375   4.035 -0.2753 -0.2066 -0.1010
27436W        W43330  10.259  14.742  16.085  0.1730 -0.0934  0.0112
27437W        W43331  15.253   5.790   2.130  0.2332  0.1529  0.0814
27438W        W43332   4.383  13.007   3.502  0.1978 -0.2778  0.0234
27439W        W43333  16.451  18.251  15.703  0.2096  0.1012  0.0048
27440W        W43334  16.450   7.860  14.037 -0.3015 -0.1049  0.2361
27441W        W43335  18.046  11.497  16.006 -0.0978 -0.0775 -0.3859
27442W        W43336   0.685   7.438   4.431  0.1630  0.0316 -0.0257
27443W        W43337   3.727   8.907   4.403 -0.0084  0.2526 -0.0180
27444W        W43338  16.825  16.757   1.442  0.2195 -0.0847  0.0664
27445W        W43339  10.219  13.268   3.383  0.1562  0.0137 -0.0773
27446W        W43340  16.431  10.135  15.544 -0.0294  0.0164  0.1904
27447W        W43341   2.396   4.326   2.999 -0.1087 -0.1606 -0.2081
27448W        W43342   2.494  10.574   5.813 -0.0790 -0.0275 -0.1040
27449W        W43343  16.279   2.944  14.142 -0.0149  0.3967 -0.0478
27450W        W43344  11.910  14.652   6.058 -0.1235  0.1719  0.1334
27451W        W43345  15.463   4.265  12.714 -0.0122 -0.2629  0.2753
27452W        W43346   0.150   2.358   3.331  0.2414 -0.1350  0.1388
27453W        W43347   6.797   8.705   3.757 -0.0519 -0.7569  0.0579
27454W        W43348   8.862   6.603   1.813  0.0648  0.1180  0.2451
27455W        W43349   7.665   7.663   4.059 -0.0403 -0.1385 -0.0003
27456W        W43350   4.487   2.252  14.650  0.1376 -0.0519 -0.2846
27457W        W43351  16.091   9.969  12.862 -0.1741  0.1073  0.1531
27458W        W43352   8.259   4.976   4.602 -0.1940 -0.2283 -0.0821
27459W        W43353  10.476  17.603  13.761 -0.0278 -0.0721  0.1572
27460W        W43354   1.748   6.189   3.692 -0.0412  0.0472  0.1015
27461W        W43355   1.977  17.578   1.144 -0.0564 -0.0002  0.0893
27462W        W43356   6.216   7.543  12.442 -0.0712 -0.0724 -0.1243
27463W        W43357  10.746   8.783   1.834  0.0103 -0.1285  0.1616
27464W        W43358  14.576   3.620   0.051  0.0197  0.0509 -0.0623
27465W        W43359   8.571   4.069   0.516  0.0699  0.0381 -0.3341
27466W        W43360   2.189  12.996   5.306 -0.0441  0.1342  0.1908
27467W        W43361  18.015  17.247   1.877  0.0959 -0.0499 -0.1722
27468W        W43362   0.477  14.192   5.084  0.1542 -0.0971  0.0071
27469W        W43363  13.740   3.677  11.818  0.1660  0.0140 -0.2618
27470W        W43364  11.154  15.611  15.006 -0.2282  0.1989  0.0825
27471W        W43365   2.076  14.614   4.628  0.0994  0.0586  0.0809
27472W        W43366   5.031   6.322  15.709 -0.0123  0.0646  0.1936
27473W        W43367  13.432   0.167  15.842 -0.4214  0.1624 -0.3560
27474W        W43368  16.244  13.680   4.068 -0.0997 -0.1409 -0.2834
27475W        W43369  11.402  11.090   1.153 -0.1482  0.0286 -0.2765
27476W        W43370  12.484  11.144   1.489 -0.1414 -0.2571  0.3618
27477W        W43371  13.680   4.885  13.508  0.0242  0.1133 -0.1016
27478W        W43372  13.481  11.889   2.406  0.2272  0.1162  0.1666
27479W        W43373  14.309  16.307   3.613 -0.1213  0.0924 -0.1643
27480W        W43374  16.421  12.754   1.303  0.0275  0.2268  0.0738
27481W        W43375  10.303   9.303  13.893  0.3612  0.1069  0.0113
27482W        W43376   2.087   6.042   2.746  0.1458 -0.1580 -0.0255
27483W        W43377   7.140  18.394   4.042 -0.0712 -0.1102  0.1054
27484W        W43378   5.397   6.464   3.560  0.2155 -0.0513  0.0742
27485W        W43379   3.006  18.408  15.475 -0.6082  0.2165  0.1313
27486W        W43380   7.469  12.437  13.618 -0.0706 -0.0942 -0.1773
27487W        W43381  10.769   2.846  16.024  0.1463  0.2408 -0.2169
27488W        W43382   7.794   2.685   2.575  0.3331  0.1195  0.3599
27489W        W43383  12.542  10.715   3.241 -0.1878 -0.0348 -0.0840
27490W        W43384  17.014  12.233   3.239  0.3849  0.1702 -0.3850
27491W        W43385  10.939  17.871   3.213  0.2812 -0.0756 -0.3184
27492W        W43386   2.817   4.355   3.799 -0.3347 -0.1157 -0.0836
27493W        W43387  18.440   4.080  14.094  0.1021 -0.0414 -0.1439
27494W        W43388  13.437  13.786  13.741 -0.1343  0.6658  0.0325
27495W        W43389  13.291  17.996   4.629 -0.0105 -0.0091  0.2464
27496W        W43390   9.024  10.951  11.061 -0.1797  0.1069 -0.0142
27497W        W43391   1.380   2.402  11.817  0.0872  0.3036 -0.3892
27498W        W43392   3.534   1.100  11.356  0.0405  0.0480 -0.0113
27499W        W43393  12.578  16.907  13.143  0.5097  0.0439  0.4498
27500W        W43394   9.737   0.048   3.662  0.0011  0.1597  0.3407
27501W        W43395   2.520   7.421  14.724 -0.0331 -0.1987 -0.2453
27502W        W43396   8.067   4.712  14.687 -0.1139 -0.1555 -0.1026
27503W        W43397   8.517   6.715  12.852 -0.2418  0.0393  0.4478
27504W        W43398   1.084  13.671  15.401 -0.1474  0.2124  0.1269
27505W        W43399   6.960   2.768  13.551 -0.1884 -0.2199  0.0416
27506W        W43400   0.460  17.965  11.333 -0.0536 -0.0310 -0.2392
27507W        W43401   4.967   3.799   2.574 -0.0323 -0.2316 -0.0745
27508W        W43402  11.966  16.499  10.846  0.6152 -0.1966  0.4828
27509W        W43403  15.597  15.512   2.670 -0.1135  0.0116  0.2561
27510W        W43404   6.844  16.774  11.393  0.1380 -0.2707  0.0386
27511W        W43405   4.967   2.442   3.507  0.0438  0.3003 -0.1302
27512W        W43406  16.701  16.411  11.023  0.1875  0.1838 -0.0316
27513W        W43407   5.717   3.549  14.216 -0.2292 -0.1045 -0.0185
27514W        W43408   9.493  17.754  13.165 -0.3549  0.1870 -0.2491
27515W        W43409  18.186  10.963  13.605 -0.0448  0.0408 -0.0664
27516W        W43410   3.608  17.214  12.239 -0.1142 -0.2250  0.1208
27517W        W43411  17.831  10.785   4.198  0.2165  0.0842  0.2096
27518W        W43412   3.911   7.270   3.094 -0.1963 -0.0390  0.0663
27519W        W43413   6.346   0.524   4.916 -0.1409 -0.1698 -0.0981
27520W        W43414   2.123  11.883   4.734  0.2198  0.0637 -0.1509
27521W        W43415   7.421  13.415  10.583  0.3243  0.0234  0.1028
27522W        W43416  15.810   8.804   5.880  0.4386  0.2895  0.1227
27523W        W43417   3.947   3.810   5.252  0.2127  0.2337  0.4472
27524W        W43418   7.658  10.813  16.069 -0.0944  0.0246  0.1430
27525W        W43419   2.138   0.285  14.509 -0.1663 -0.1812 -0.1508
27526W        W43420   1.776  14.180   5.369 -0.2142  0.1545 -0.1922
27527W        W43421  18.134   6.240   4.149  0.1117  0.1894 -0.1596
27528W        W43422   8.062  10.468   2.729  0.2621 -0.3451 -0.0153
27529W        W43423  11.796   0.538   4.766  0.0813 -0.1269 -0.3316
27530W        W43424   3.815  11.484  14.980 -0.1878 -0.0383  0.1241
27531W        W43425  15.218   2.548  11.810  0.2401  0.0559  0.0235
27532W        W43426  15.577  10.495   4.646  0.0680 -0.0974 -0.1295
27533W        W43427  18.162  14.417   3.843  0.0987 -0.0420  0.0018
27534W        W43428   7.134  18.301  12.976 -0.0659 -0.1557  0.0774
27535W        W43429  13.278  15.325   1.293 -0.0457  0.1305 -0.1399
27536W        W43430   7.711   3.280  12.968  0.2646  0.0524  0.1567
27537W        W43431   8.368   7.630   3.665  0.1326 -0.1125 -0.2588
27538W        W43432  14.469  10.910   0.126 -0.1216  0.3191 -0.0568
27539W        W43433   2.890  11.272  14.915 -0.1220  0.0282 -0.1396
27540W        W43434   7.170  13.547   4.186 -0.0801  0.1397  0.1522
27541W        W43435   0.886   9.399  13.252 -0.0681 -0.0179 -0.2916
27542W        W43436   2.505   0.559   3.743  0.1299  0.0824 -0.0861
27543W        W43437   7.819  13.574  15.864 -0.1054  0.2343 -0.2441
27544W        W43438  16.299  10.881   3.002 -0.0057  0.2937 -0.1029
27545W        W43439   3.184   9.656   4.173  0.1295 -0.0222  0.0254
27546W        W43440  10.206   1.980   0.617  0.0431  0.4101 -0.0193
27547W        W43441  16.033  15.030  11.408  0.1115 -0.1676  0.0719
27548W        W43442   7.162  17.533   3.542  0.0658 -0.0170  0.1297
27549W        W43443  10.363  11.264  10.904  0.1340  0.0857  0.1954
27550W        W43444   0.731  15.349  13.612  0.2852  0.3064  0.3081
27551W        W43445   4.738  15.606   2.233  0.0449 -0.2956 -0.1385
27552W        W43446  14.499   6.450   1.961 -0.4697 -0.0399 -0.1594
27553W        W43447  14.620  13.257   1.104 -0.0379 -0.2158  0.2408
27554W        W43448   4.708  17.240  14.862  0.2337  0.0514  0.1018
27555W        W43449  16.890   1.724   2.602  0.0894 -0.0879  0.2506
27556W        W43450  15.929   5.844   3.577 -0.1672 -0.1205 -0.2022
27557W        W43451   4.544  13.423  12.258 -0.0027  0.2683  0.0650
27558W        W43452   5.538  15.064   2.397 -0.0679 -0.1585 -0.0092
27559W        W43453  14.703   6.552  14.967  0.0911 -0.0596 -0.2581
27560W        W43454  15.637   8.142  13.027  0.0665 -0.3935  0.1671
27561W        W43455  13.759  17.495   3.973  0.0389  0.0268  0.1595
27562W        W43456  11.473   4.334  12.131 -0.1980 -0.3733 -0.0570
27563W        W43457   5.830   0.669  12.306 -0.2027  0.0469  0.0103
27564W        W43458  13.283   6.116   4.978  0.0514  0.1953 -0.1403
27565W        W43459   4.098   9.033   1.298 -0.0402  0.0119  0.0608
27566W        W43460   1.068   7.090  15.682 -0.0485 -0.2640 -0.3531
27567W        W43461  13.736   8.464   2.146 -0.3144  0.1610 -0.0614
27568W        W43462  11.320  10.810   4.584 -0.2214  0.1987  0.1281
27569W        W43463   5.669   6.757  12.145 -0.0151  0.4688  0.2054
27570W        W43464   3.941  15.752  12.916 -0.3629  0.0954 -0.0327
27571W        W43465  14.467   7.713   1.616 -0.0665 -0.2231 -0.1199
27572W        W43466   0.807  11.616  14.312 -0.2289  0.0666  0.1756
27573W        W43467  14.319   5.337  13.758 -0.1675 -0.1633  0.1239
27574W        W43468   0.305   0.684  13.093  0.0740  0.0739  0.3167
27575W        W43469   1.444   6.195   4.068  0.0481 -0.3781  0.2881
27576W        W43470   2.753   9.545   5.429  0.2587 -0.0712  0.0530
27577W        W43471   4.157   4.228  15.570  0.2067  0.0799 -0.0333
27578W        W43472  14.378  17.802  10.527  0.2351  0.1377  0.0828
27579W        W43473  12.764  14.229   2.654 -0.1695  0.2108  0.0862
27580W        W43474   4.864  15.019   0.305 -0.3663  0.0083 -0.2380
27581W        W43475  10.644   9.788   4.525 -0.1171  0.0432 -0.1105
27582W        W43476   9.766  10.444   0.288 -0.1043 -0.1476  0.2019
27583W        W43477  14.601   4.866  13.703  0.0469  0.0729 -0.0546
27584W        W43478   5.646   5.335  15.106 -0.0733 -0.1148  0.0446
27585W        W43479  14.229  13.955  12.571 -0.0246 -0.0718 -0.2368
27586W        W43480   6.039  11.689   6.058  0.1991  0.1051  0.1598
27587W        W43481   3.600   2.191  11.081  0.0030  0.1271  0.0142
27588W        W43482  13.339  13.308   1.818 -0.1866 -0.3018 -0.0376
27589W        W43483  16.227   7.403  15.949  0.1309  0.1963 -0.1789
27590W        W43484   6.101  12.695  14.714 -0.1952  0.0222 -0.2597
27591W        W43485   6.064  15.029  14.283  0.2412 -0.0937  0.1253
27592W        W43486  12.850  12.413   0.799 -0.1340 -0.0214  0.1542
27593W        W43487  10.256   6.398   0.678  0.2641  0.0567 -0.1034
27594W        W43488  10.020  11.187  11.295  0.4061 -0.2159 -0.1677
27595W        W43489  10.109   0.750   0.370 -0.0625 -0.2667  0.2121
27596W        W43490  16.627  15.439  13.396 -0.1393 -0.0015  0.3542
27597W        W43491   5.993  10.393   4.430 -0.0163  0.0125  0.1639
27598W        W43492   9.471  13.925  13.837 -0.0158 -0.0846  0.1895
27599W        W43493  14.804   3.657   2.573  0.2247  0.1484 -0.1301
27600W        W43494   9.590   4.299  12.793 -0.1817 -0.2568  0.0689
27601W        W43495   3.588   3.358  13.713 -0.1406  0.1748  0.0625
27602W        W43496  18.436   5.709   1.420 -0.0297  0.1992 -0.0547
27603W        W43497  11.617  12.387  10.819  0.0139  0.2107  0.0169
27604W        W43498   7.251  15.952   5.429 -0.1672  0.0378 -0.0683
27605W        W43499   8.543   8.541  12.987  0.2856 -0.1567  0.0128
27606W        W43500  17.349  17.040  14.628 -0.0774 -0.5158  0.1619
27607W        W43501  10.715  10.298  14.347 -0.3824  0.2057  0.0927
27608W        W43502   7.390   0.972   2.109  0.0656 -0.0815  0.0358
27609W        W43503   9.033  17.017   2.026 -0.2816 -0.1280 -0.0067
27610W        W43504   5.040   5.317   4.364 -0.1218 -0.2209 -0.0116
27611W        W43505  14.082   5.438   5.822 -0.1412  0.0658 -0.1066
27612W        W43506  17.803  13.838   1.050 -0.0571 -0.1848  0.0999
27613W        W43507  17.932   7.892  15.149  0.1114  0.3274 -0.0737
27614W        W43508   6.991   8.711   0.666 -0.1660 -0.0398 -0.1164
27615W        W43509  15.718   3.571   3.682 -0.1737 -0.0965 -0.1883
27616W        W43510  12.456  16.993  12.584  0.1357 -0.2795 -0.2219
27617W        W43511  14.259   4.226   2.920  0.1905 -0.0971  0.1738
27618W        W43512   9.299   7.642  14.011  0.1017  0.0644 -0.0140
27619W        W43513   0.200  17.032   3.555 -0.1426  0.0525  0.4555
27620W        W43514  13.290  16.415   4.375  0.2541 -0.0384  0.0628
27621W        W43515   4.196   1.440   0.314 -0.2304 -0.0242 -0.1930
27622W        W43516   4.035   9.980   3.954 -0.2866  0.0328  0.0669
27623W        W43517   3.635  17.880   6.020  0.1235  0.0970 -0.0347
27624W        W43518   9.186   2.319  12.701  0.1677  0.0578 -0.2803
27625W        W43519  11.473   9.850   5.514  0.2629  0.1894 -0.0540
27626W        W43520   5.804  16.410   2.187 -0.0890 -0.2353  0.0482
27627W        W43521   6.646   1.353  15.333 -0.0170 -0.1396 -0.1515
27628W        W43522  11.268   4.843   1.546 -0.2214 -0.0280  0.0121
27629W        W43523  10.570  10.875  15.843 -0.0530  0.1769 -0.3133
27630W        W43524  17.738   8.824   5.552 -0.0600 -0.1617  0.1721
27631W        W43525   1.982   5.981   1.415 -0.3213 -0.1752  0.1457
27632W        W43526   9.212   7.223  12.249 -0.0878 -0.0596  0.0795
27633W        W43527   6.653  14.573  12.923 -0.1972 -0.1261 -0.0229
27634W        W43528   4.226   9.090  13.708  0.1801 -0.3758 -0.3275
27635W        W43529   2.016  13.029  14.314  0.1370  0.1607 -0.1001
27636W        W43530   7.005   1.993  11.048  0.3127  0.1070 -0.0142
27637W        W43531  12.057  16.891  11.547  0.0798  0.0654 -0.1675
27638W        W43532   3.258  16.086  14.758 -0.3069  0.2295  0.0070
27639W        W43533  10.201   8.230   3.806 -0.0805  0.1429  0.5420
27640W        W43534  11.076  15.368  11.430  0.0990  0.4447  0.3085
27641W        W43535  18.111   8.604   4.527 -0.1210  0.1421 -0.0701
27642W        W43536   8.057  11.654   1.169  0.1623  0.0722 -0.1442
27643W        W43537   8.024  16.261   1.617 -0.1769  0.3509  0.1094
27644W        W43538   4.432   0.217  14.379 -0.0796  0.1280  0.0195
27645W        W43539  16.164   1.923  12.888 -0.0288  0.0938  0.2216
27646W        W43540  17.244  17.996   2.646  0.0053  0.4002 -0.2401
27647W        W43541  18.079  15.492   2.267  0.0342 -0.1887  0.2262
27648W        W43542  13.259  16.561   1.199  0.0224  0.1314  0.2038
27649W        W43543  11.559   2.956  14.347 -0.3291 -0.2484 -0.0185
27650W        W43544   5.282   0.594   5.226 -0.0616 -0.0110  0.2251
27651W        W43545   3.929   7.597   3.534  0.1685  0.0974 -0.1391
27652W        W43546  16.674   0.437   4.065  0.1266  0.0586  0.2705
27653W        W43547  10.007  18.320   2.894  0.0714  0.1508  0.0137
27654W        W43548  14.861   5.862   5.355 -0.0302  0.1031  0.0579
27655W        W43549  16.332   4.462   5.293  0.0308 -0.0179 -0.1154
27656W        W43550   4.003  15.533  15.094  0.0969 -0.2480  0.0004
27657W        W43551  13.180   5.281  12.090 -0.1831  0.0583 -0.1002
27658W        W43552  12.504   0.986  13.606  0.2365  0.0879  0.0222
27659W        W43553  16.141  16.364   5.722  0.1852 -0.1137  0.3736
27660W        W43554   3.456   7.631   6.207 -0.0948 -0.0455 -0.0483
27661W        W43555   3.195   7.603  12.358 -0.2175  0.3654  0.0851
27662W        W43556  16.883  14.605  14.612  0.0906 -0.2876 -0.0010
27663W        W43557   9.114   8.654   1.936 -0.1650  0.1425  0.1824
27664W        W43558  10.836  12.399   0.611 -0.2416 -0.1544  0.0470
27665W        W43559   7.122   5.805  10.822  0.3191 -0.1519  0.0620
27666W        W43560   0.161  13.169  13.853  0.0595 -0.1274  0.2800
27667W        W43561  16.639  14.510   1.473  0.0273 -0.1868  0.2450
27668W        W43562   9.964  13.890  11.256 -0.0583  0.3227  0.0107
27669W        W43563   2.599  16.858  15.798 -0.0074  0.2926  0.2031
27670W        W43564  17.244  11.507   5.104  0.1918  0.2783 -0.1478
27671W        W43565   1.644   7.864   3.248  0.1006 -0.0174  0.4029
27672W        W43566   5.509   5.403   2.273 -0.0685  0.0417  0.3566
27673W        W43567   0.180   5.795   5.787  0.0146 -0.1529  0.4523
27674W        W43568  11.614  10.195   3.876 -0.2280 -0.1052 -0.1810
27675W        W43569   5.187  16.437   6.063  0.2168  0.2806  0.2104
27676W        W43570   9.397  16.292  12.243  0.0985 -0.1277  0.2621
27677W        W43571  16.147   6.971   4.789  0.5750  0.3043 -0.1339
27678W        W43572  13.449  16.094   4.952  0.0591 -0.1595  0.0102
27679W        W43573   9.284  13.108   4.225 -0.0534 -0.3313  0.1094
27680W        W43574   2.619  14.180   3.326  0.1806  0.0032  0.2026
27681W        W43575   5.255  11.331   1.561 -0.0241 -0.2598  0.1543
27682W        W43576   6.424  18.394  15.083 -0.3969  0.0256 -0.2669
27683W        W43577   2.250  17.562   2.837  0.1670 -0.2873 -0.0422
27684W        W43578   5.016  10.653   4.986  0.0138 -0.1466 -0.0096
27685W        W43579  13.580   2.773   4.199  0.2143  0.0280  0.2890
27686W        W43580  12.369   3.329  13.734  0.0166 -0.1071 -0.0969
27687W        W43581   6.872   4.078  12.726  0.3051  0.1659  0.1142
27688W        W43582   2.538   0.146  11.655 -0.0671  0.0502 -0.0014
27689W        W43583  11.398   0.403   2.611  0.2010 -0.2250  0.1964
27690W        W43584  15.937   9.687   1.228  0.1733 -0.2079  0.1086
27691W        W43585  16.004   4.175   5.015 -0.0958 -0.1466  0.1064
27692W        W43586   4.934   6.754  15.281 -0.3133  0.4896 -0.0067
27693W        W43587  13.836  11.536  11.392  0.0407 -0.2310 -0.0905
27694W        W43588  14.902  12.712   3.739  0.2502 -0.1197  0.4689
27695W        W43589  11.293   9.763   1.320  0.0705  0.1696 -0.0041
27696W        W43590   4.088  17.582   4.146  0.0595 -0.3473 -0.0595
27697W        W43591   9.988   1.744  14.482  0.2480  0.1964  0.2646
27698W        W43592   5.592  17.610  13.349  0.0075 -0.2260 -0.1193
27699W        W43593   4.792  16.934  14.465  0.0013 -0.0961  0.0747
27700W        W43594   2.263  12.362  11.450  0.0022  0.0254  0.0318
27701W        W43595   4.248   1.304   1.205 -0.0904 -0.0275 -0.2293
27702W        W43596  11.460   3.829  13.607  0.0833 -0.2276 -0.0504
27703W        W43597   4.106  10.105  13.194  0.0819  0.1387 -0.0986
27704W        W43598  13.690   4.134  13.135  0.2212 -0.0057  0.1083
27705W        W43599  18.101   9.510  13.908  0.5516  0.1356  0.1315
27706W        W43600  12.047   4.006  11.287 -0.2691 -0.1009  0.0979
27707W        W43601   9.392  14.258   2.286  0.0871  0.2544 -0.0886
27708W        W43602   7.848   1.924  12.948 -0.3752  0.2656 -0.0764
27709W        W43603   2.949  10.836   3.634  0.3602 -0.1112 -0.0500
27710W        W43604   5.724  12.282   2.556 -0.3531 -0.1475 -0.0487
27711W        W43605   7.738   9.288   2.040  0.0768 -0.0135 -0.2274
27712W        W43606  14.731   1.111   5.927  0.0505  0.0981  0.2569
27713W        W43607   2.067   0.964   4.670 -0.0005 -0.0400 -0.2194
27714W        W43608   7.807  12.183  11.506  0.1318 -0.1554 -0.2163
27715W        W43609  14.469  15.943  15.212 -0.2359 -0.3386  0.1998
27716W        W43610   9.988   0.316   5.030 -0.1111  0.0267 -0.1139
27717W        W43611  14.587   0.342  14.027 -0.2309  0.1208 -0.0645
27718W        W43612  10.645   4.130  15.995  0.1052  0.0650 -0.3177
27719W        W43613   0.943  13.910   2.873  0.0256 -0.1597  0.2328
27720W        W43614  11.544   0.245  14.672 -0.0360  0.2472  0.1297
27721W        W43615   9.629   2.974   3.332  0.1986  0.0418  0.1023
27722W        W43616   7.676  15.745  13.722 -0.3717 -0.2024  0.2813
27723W        W43617  12.073   8.976   2.425  0.1659  0.2047  0.3216
27724W        W43618   7.163  12.306  11.474  0.1638 -0.3468 -0.2342
27725W        W43619   8.512  16.312   3.355 -0.0659  0.0057 -0.2391
27726W        W43620   5.218   7.216   4.772  0.1873 -0.0670  0.1919
27727W        W43621   7.078   3.317   0.587 -0.0944 -0.0107 -0.1497
27728W        W43622  16.581   5.324  14.265 -0.2027 -0.1456  0.0082
27729W        W43623  14.032   5.953   5.656 -0.0787 -0.0235 -0.0819
27730W        W43624  10.974  16.788   0.777  0.1741 -0.1800  0.1735
27731W        W43625   4.622   1.324  15.834 -0.2127 -0.1137 -0.0880
27732W        W43626  16.703   0.664  13.358  0.0631  0.2661 -0.0434
27733W        W43627   1.407   4.784   2.106 -0.0810  0.1764  0.0433
27734W        W43628   4.353   8.509  12.627 -0.3793 -0.0205 -0.2629
27735W        W43629  18.373   8.357  11.573 -0.0238  0.1773 -0.0682
27736W        W43630   0.629   2.566  13.221  0.1225  0.0172  0.1942
27737W        W43631   2.030  18.263  15.737  0.0404 -0.3100 -0.2180
27738W        W43632   6.596   5.555  14.008  0.1628 -0.1340 -0.6519
27739W        W43633  17.186   0.753   4.460  0.0609 -0.0392  0.2969
27740W        W43634  17.112   8.214  12.463 -0.0945  0.3536  0.4549
27741W        W43635  11.975  15.598  13.414  0.0303 -0.4739 -0.1595
27742W        W43636  15.477  10.775   1.469 -0.4877  0.1236  0.1715
27743W        W43637   8.825   1.242   3.272  0.0930 -0.0853  0.0386
27744W        W43638   7.434  10.114   2.029 -0.1361 -0.0715  0.1325
27745W        W43639  10.210  14.771  11.570  0.0590  0.0602 -0.1597
27746W        W43640  16.580  17.154   1.847 -0.1677  0.0543  0.1144
27747W        W43641  13.247   1.815  10.412 -0.4170  0.1150  0.2690
27748W        W43642  13.864   6.332   0.521  0.0933 -0.1902  0.1800
27749W        W43643   1.455  17.749   1.462 -0.2518  0.0701  0.1631
27750W        W43644   9.102  14.417  14.250  0.0174 -0.2105 -0.1374
27751W        W43645   8.680  10.365   0.738 -0.1869 -0.0471 -0.2196
27752W        W43646   3.940  16.117   1.212 -0.1658  0.0343 -0.0792
27753W        W43647   3.473  15.829   1.131 -0.0076  0.0281  0.1886
27754W        W43648  18.178   8.210   5.877  0.2204 -0.0911 -0.0088
27755W        W43649  10.118  12.876   4.819 -0.3573  0.1004  0.0432
27756W        W43650  15.868   9.692  14.427 -0.0654 -0.1233  0.1616
27757W        W43651  14.590  16.211  13.521 -0.0542  0.0531  0.1390
27758W        W43652   5.188  18.170  14.948 -0.0142 -0.2420 -0.0393
27759W        W43653   8.850   6.200  13.125  0.0646 -0.2338  0.0509
27760W        W43654  14.735   4.194  13.117  0.3552  0.2151  0.1338
27761W        W43655  10.775  18.173  11.203 -0.2114 -0.0448 -0.1619
27762W        W43656   1.030   6.483   2.012  0.0101 -0.0302  0.1301
27763W        W43657  17.744   5.961   2.798  0.0504  0.1266  0.2217
27764W        W43658   1.841   7.135  12.223 -0.2305 -0.1300  0.0151
27765W        W43659   7.044   5.251   0.599 -0.1385  0.3869 -0.3502
27766W        W43660   3.841  18.250  15.475  0.0340 -0.1993  0.1508
27767W        W43661   2.313  13.362  15.449 -0.3428  0.0625  0.2209
27768W        W43662  15.207  12.382   3.485  0.3360 -0.0091  0.0781
27769W        W43663   1.250   0.006  14.638  0.0566  0.0208 -0.1356
27770W        W43664   5.166  15.253   4.366 -0.1301 -0.2698 -0.2142
27771W        W43665   9.213  12.556   2.511 -0.0069  0.2069  0.2665
27772W        W43666  17.526  12.362  13.308  0.0416  0.0209  0.1972
27773W        W43667   5.923   2.153  14.121 -0.2396 -0.4827 -0.2457
27774W        W43668  10.939  15.537   5.888 -0.0055  0.0252  0.2624
27775W        W43669   5.568  13.804  11.048  0.0080  0.1144 -0.1238
27776W        W43670   8.298   8.696  11.712 -0.2785  0.2254  0.2043
27777W        W43671  10.922   8.239  12.430  0.3390  0.1841 -0.2474
27778W        W43672  16.084   4.664  16.065 -0.1118 -0.2394  0.1370
27779W        W43673  12.557  14.619  12.589 -0.0092 -0.0257 -0.2240
27780W        W43674   4.283  17.685   5.382 -0.1374 -0.2263  0.2242
27781W        W43675   9.606   8.125   0.610 -0.1499  0.0313  0.2169
27782W        W43676   0.318   0.882  14.680  0.2719 -0.5804  0.1484
27783W        W43677   7.803  11.630  10.371 -0.1670  0.1662  0.2979
27784W        W43678   9.770   1.024   1.612  0.1105 -0.0217  0.1490
27785W        W43679   5.309   5.899  11.848  0.2941 -0.0448 -0.1477
27786W        W43680   4.048   9.190   1.833  0.2445 -0.2493 -0.0692
27787W        W43681   1.940  17.192   4.724 -0.1455  0.0292  0.0278
27788W        W43682   3.639   2.652  13.073  0.0237 -0.1299  0.1226
27789W        W43683  14.899   2.388   3.451  0.3576  0.0886  0.1411
27790W        W43684   9.955   0.834  16.006  0.1882  0.2314  0.1552
27791W        W43685   1.803  13.287  15.140  0.0484  0.2266 -0.0830
27792W        W43686   7.664   3.741  11.103  0.3714  0.0734  0.2233
27793W        W43687   1.245   5.640   3.323 -0.0668  0.0457 -0.1533
27794W        W43688  12.418   4.312   0.882  0.2718  0.0046  0.3444
27795W        W43689   1.871   9.466   4.345  0.3692  0.1482 -0.1670
27796W        W43690  11.580   3.091   5.040 -0.1107 -0.1170  0.2956
27797W        W43691   3.420  18.273  11.507  0.0768  0.2134 -0.1129
27798W        W43692   2.077  16.786  14.359 -0.0036 -0.2666  0.0443
27799W        W43693  15.865  13.519   3.655  0.1423 -0.0881 -0.0170
27800W        W43694   2.006   4.554   4.088 -0.0439  0.3115  0.1147
27801W        W43695   2.514  12.533   2.201  0.5532 -0.0257  0.4325
27802W        W43696  17.743  17.345   0.958 -0.3149  0.1404  0.0024
27803W        W43697  11.412  11.707  15.243 -0.3617  0.2410  0.1914
27804W        W43698   6.611  12.119  12.073  0.2759 -0.2278  0.2357
27805W        W43699  14.066  13.923  15.241 -0.3188  0.0677 -0.0674
27806W        W43700   9.944   5.200   3.404 -0.1168 -0.0581 -0.1399
27807W        W43701  10.063  11.534  13.297 -0.3172 -0.2719  0.0104
27808W        W43702   0.045   5.313   3.721 -0.0338 -0.0245  0.0310
27809W        W43703   2.675   4.443   0.319 -0.0378  0.1415  0.2274
27810W        W43704  13.233   8.771   2.825 -0.1027 -0.1805 -0.3842
27811W        W43705  16.782  18.148  16.027  0.0295 -0.0440  0.1646
27812W        W43706  11.251   7.654  15.768  0.0232 -0.1862  0.1364
27813W        W43707  16.227   1.934  14.761  0.0794  0.0333  0.1638
27814W        W43708  15.353   7.455   1.041 -0.1197  0.1416 -0.0305
27815W        W43709  17.587   1.088  15.355 -0.1509  0.0874 -0.0120
27816W        W43710   7.184  10.272   5.119  0.2649  0.0441  0.1594
27817W        W43711  15.912  12.997   1.686  0.1885  0.0565  0.3313
27818W        W43712  17.420   5.402   1.642 -0.0747  0.0579  0.0793
27819W        W43713  15.569  17.221   3.959 -0.0887 -0.1538  0.3884
27820W        W43714   2.710   7.029   1.889 -0.2167 -0.1312  0.1802
27821W        W43715  16.302  10.909  13.027  0.1129 -0.1323  0.2136
27822W        W43716  12.451  18.273   3.260  0.1098  0.0431 -0.1098
27823W        W43717  10.060   0.018  10.011  0.1613  0.1599 -0.2031
27824W        W43718   0.461  14.697  14.207  0.0932 -0.1236  0.1516
27825W        W43719   2.452   9.106  12.220 -0.0020  0.3122  0.0873
27826W        W43720  17.542   4.022   5.083  0.1468  0.2743 -0.1287
27827W        W43721  16.139  13.937  11.516 -0.1493  0.3311  0.3473
27828W        W43722  16.259  16.124   4.011 -0.0216  0.1180  0.0211
27829W        W43723  15.654  14.621   4.137  0.0353  0.0152 -0.2319
27830W        W43724   5.000   7.351  12.939  0.1073 -0.0429  0.1833
27831W        W43725  14.595  16.600   4.842 -0.0067  0.4701  0.1827
27832W        W43726  14.817   7.389  12.245 -0.0193  0.4139 -0.0559
27833W        W43727   7.147  14.410  14.150  0.0572 -0.2209  0.1266
27834W        W43728   0.234   4.592   4.498  0.1419  0.2600  0.0875
27835W        W43729  14.818   3.731   4.794 -0.1431 -0.1303 -0.2325
27836W        W43730   4.909   4.280   2.801 -0.1948  0.0206 -0.1327
27837W        W43731  13.452   2.982   0.551  0.1069  0.0887 -0.1683
27838W        W43732   8.806   1.286  12.572  0.1351 -0.0314  0.0671
27839W        W43733   7.845   3.547  11.519 -0.1323 -0.1373 -0.0840
27840W        W43734  18.119   8.924   4.064 -0.1019  0.2959 -0.2611
27841W        W43735   6.541  14.565  12.306  0.3635 -0.1570  0.2528
27842W        W43736  13.718   2.153   4.993 -0.3387  0.1069  0.0755
27843W        W43737   7.128  17.906   0.088 -0.1875 -0.3020 -0.0253
27844W        W43738   8.839  14.180   4.609 -0.1931 -0.0489 -0.3097
27845W        W43739  12.718  10.105  15.369  0.2334 -0.0681  0.4958
27846W        W43740  10.030  16.580  15.237  0.3575 -0.1282  0.2601
27847W        W43741  14.349  12.425   2.516 -0.0599  0.0238  0.0609
27848W        W43742  17.088  14.132  14.593 -0.3185 -0.1795 -0.0200
27849W        W43743  13.256  16.509  12.860  0.1027 -0.0763 -0.3190
27850W        W43744   7.690  11.035  11.972  0.2005  0.0946 -0.1045
27851W        W43745  10.116   7.312  13.798 -0.3514 -0.0818 -0.1131
27852W        W43746   7.367   3.036   0.859  0.0172 -0.4192  0.2679
27853W        W43747  14.216   9.512   5.802  0.2955  0.4900  0.1506
27854W        W43748   5.786  18.407  13.069  0.0885  0.1554  0.1965
27855W        W43749  10.156   5.621  15.119 -0.1926  0.0885  0.1840
27856W        W43750   6.514  12.711  10.144 -0.2101 -0.1694 -0.2975
27857W        W43751   3.365   5.943  12.854 -0.2215 -0.2492  0.1010
27858W        W43752   8.629  10.894  11.390 -0.1497 -0.1012  0.0749
27859W        W43753   7.048  14.686  12.206  0.0995 -0.1518  0.1260
27860W        W43754   1.173  11.784  12.142  0.3529 -0.1381  0.1189
27861W        W43755   8.452   9.846  10.566 -0.2825  0.2881  0.1168
27862W        W43756   1.819  17.020   3.343 -0.2793  0.0292 -0.0422
27863W        W43757  11.352   5.998   4.300 -0.1084 -0.0179 -0.3040
27864W        W43758  15.587  17.135  13.294 -0.0058  0.0417  0.2258
27865W        W43759  13.850  16.034  13.217 -0.2912  0.1863 -0.0654
27866W        W43760   5.578   3.604  14.697  0.1269  0.0035 -0.2716
27867W        W43761  10.489   2.569  14.545 -0.1333  0.0807  0.2928
27868W        W43762   1.991  12.751   3.524 -0.1016 -0.0195  0.0667
27869W        W43763  12.793   6.341   4.524 -0.1442  0.0179  0.1135
27870W        W43764   1.256  12.566  16.112 -0.4001  0.0481  0.0333
27871W        W43765  12.502   6.791   0.649  0.0592 -0.0150 -0.0819
27872W        W43766   7.968  13.951  12.834 -0.1419 -0.1414  0.1950
27873W        W43767   2.125  13.815   2.628 -0.2311  0.1958 -0.0213
27874W        W43768  11.733  14.300   3.882 -0.3622 -0.2856 -0.1765
27875W        W43769  13.596  10.411   0.392  0.2140  0.1271  0.1737
27876W        W43770   3.981  11.529  10.569  0.0325 -0.1456 -0.0240
27877W        W43771   8.488  16.103  11.197  0.1687 -0.0980  0.0481
27878W        W43772  11.882  16.290  12.903  0.1255 -0.1570 -0.1327
27879W        W43773  11.423   3.558   0.782 -0.2143  0.1040  0.0177
27880W        W43774   5.525  10.734  11.151  0.0765 -0.1513  0.4478
27881W        W43775   9.905   2.145   1.024  0.1233 -0.2856 -0.2787
27882W        W43776  13.706  18.281  12.773  0.3063  0.2735  0.0156
27883W        W43777   3.776   3.841  13.861  0.3398 -0.2326  0.1835
27884W        W43778   1.918   1.931  13.758 -0.3430  0.4690  0.4256
27885W        W43779   6.488  13.134   0.433  0.2694  0.1243 -0.3118
27886W        W43780   2.316   5.567  14.586 -0.0465 -0.0126 -0.1299
27887W        W43781   5.749   5.971   2.409  0.0485  0.0892  0.1088
27888W        W43782   4.130   8.487   3.912 -0.2547  0.0502 -0.2496
27889W        W43783  10.032   3.433  14.842 -0.0374 -0.0038  0.0397
27890W        W43784   4.209   2.682   4.711 -0.1607  0.1790 -0.2748
27891W        W43785   5.656   8.279  14.322  0.3050 -0.2452 -0.2281
27892W        W43786   7.199   4.805   4.419 -0.0456 -0.3368  0.3404
27893W        W43787   0.548   6.511   1.920  0.0204  0.2937  0.2640
27894W        W43788  11.323   0.423  13.891 -0.3920  0.2873 -0.0817
27895W        W43789   8.577   3.924   5.652  0.0452  0.0301 -0.0712
27896W        W43790   3.290   0.207  13.792 -0.0280 -0.3065 -0.1510
27897W        W43791   6.203   4.569  13.223 -0.0781 -0.2468  0.1058
27898W        W43792  17.424   0.495   0.267  0.1410  0.1484 -0.0552
27899W        W43793  14.051  10.236   5.254  0.0267  0.1320 -0.0510
27900W        W43794   4.231  15.467  13.835 -0.1593  0.2936 -0.0571
27901W        W43795  15.077  10.456   0.364 -0.1195  0.2483  0.0276
27902W        W43796   9.905  17.831   2.231 -0.2254 -0.0793  0.0224
27903W        W43797   4.543  12.020   0.319 -0.0171  0.0556 -0.0969
27904W        W43798  17.418   0.428  14.929  0.1774  0.1954 -0.2010
27905W        W43799  17.049  14.382  11.883  0.1161  0.3047  0.0577
27906W        W43800  15.439  10.359   1.791 -0.1855 -0.1268  0.2847
27907W        W43801   8.472   7.737  10.869 -0.0055  0.0431 -0.0999
27908W        W43802   4.823   3.766   4.141  0.0264  0.2975 -0.1002
27909W        W43803   5.668   1.421  12.539 -0.1079  0.2818 -0.0286
27910W        W43804   5.404  11.383  13.223  0.0205 -0.0107 -0.1757
27911W        W43805  10.600   0.764   0.452 -0.1157 -0.1149 -0.0159
27912W        W43806  14.064   9.969   1.667  0.1232 -0.0345  0.2597
27913W        W43807   1.422   2.987  13.040  0.0715  0.0010  0.4369
27914W        W43808   4.512   8.604  13.798 -0.0736 -0.2623 -0.1531
27915W        W43809   1.636  16.199   2.979 -0.2190  0.0680 -0.2299
27916W        W43810   0.299   3.923   5.694 -0.0353  0.2504 -0.1367
27917W        W43811   9.660  12.466  12.926 -0.2034  0.0910 -0.1493
27918W        W43812   7.726   1.027  13.017  0.3122 -0.1518  0.0811
27919W        W43813   5.956  15.731   4.642 -0.1106  0.0055  0.0742
27920W        W43814   2.801   5.977  14.074  0.0752 -0.0312  0.3987
27921W        W43815  12.803   1.668  13.545 -0.2094  0.1411  0.0844
27922W        W43816  12.162   4.874  13.410  0.0940 -0.1574  0.1238
27923W        W43817  14.761   6.217   3.200  0.0609  0.1084  0.2305
27924W        W43818   4.349  15.481   0.962  0.1390  0.3161  0.1946
27925W        W43819   6.056  10.703   1.470  0.2496 -0.0405  0.1470
27926W        W43820  16.672   2.933   5.286 -0.1015 -0.0661  0.3117
27927W        W43821   1.292  16.813   4.630 -0.0043  0.0323  0.0764
27928W        W43822   4.592   2.478  15.123 -0.2478  0.3540 -0.0113
27929W        W43823  12.184  18.309  15.956  0.1114  0.0535  0.0719
27930W        W43824  17.419   3.433   2.344  0.1549  0.0290  0.0201
27931W        W43825   6.867   3.727   4.994  0.1699  0.1787 -0.0029
27932W        W43826   0.774  16.369  12.535 -0.2227 -0.1316 -0.1061
27933W        W43827  13.348   1.720   3.250 -0.0023 -0.0595  0.0061
27934W        W43828  18.430  12.951   3.239  0.5512  0.0242  0.1353
27935W        W43829  10.480  17.561  15.798  0.1677 -0.1666 -0.3060
27936W        W43830   9.085   2.374  14.530  0.0511 -0.0205 -0.1706
27937W        W43831  13.514   2.214  15.379  0.0927  0.1234  0.2213
27938W        W43832   7.790   0.484  12.001  0.0840 -0.1650 -0.0767
27939W        W43833   2.930   0.965  11.346 -0.1107  0.2143 -0.0115
27940W        W43834   3.926   0.832  11.019  0.1277  0.2161  0.2033
27941W        W43835  11.481   2.134   2.692 -0.2488  0.2862 -0.0608
27942W        W43836   7.773   7.584  15.352  0.1924 -0.0639  0.1590
27943W        W43837   0.764   5.574  12.964  0.3133  0.2314 -0.1505
27944W        W43838  13.499  17.316   5.140 -0.2407 -0.0170  0.0822
27945W        W43839  17.849  16.129  11.926  0.0669  0.1783 -0.1775
27946W        W43840   7.406  13.034  11.871  0.5666 -0.0689  0.0329
27947W        W43841  12.625   8.342  14.802  0.1196  0.0977  0.2290
27948W        W43842   0.957   2.769   4.981 -0.0708 -0.2521 -0.0091
27949W        W43843  15.417   0.107  12.294  0.0726  0.0697  0.1086
27950W        W43844   4.663   8.166   3.035  0.0946  0.0075 -0.0254
27951W        W43845  14.652  14.174   0.779 -0.0629 -0.1664  0.0113
27952W        W43846  11.096   6.465  14.827  0.3606  0.0525 -0.2015
27953W        W43847   8.924  12.800  11.310  0.0773 -0.0388 -0.0830
27954W        W43848   9.493  16.870   1.817  0.1482  0.0820  0.1535
27955W        W43849   9.777  17.045  14.873  0.0491  0.1821 -0.0920
27956W        W43850   1.299  16.917  15.922 -0.0097  0.1935  0.3668
27957W        W43851   2.024   0.742  15.636  0.1215 -0.5220 -0.0888
27958W        W43852   8.486  10.573  11.888 -0.0488  0.0814 -0.1826
27959W        W43853  14.264   1.618  13.273  0.1322 -0.1057  0.4559
27960W        W43854   8.714  14.460  12.265 -0.1360  0.2114  0.2098
27961W        W43855  13.960   7.143   2.157  0.2933  0.2606 -0.1719
27962W        W43856   5.783  13.465  12.452  0.0408 -0.1817 -0.0440
27963W        W43857   4.558   1.825  14.979 -0.0240  0.2400 -0.4111
27964W        W43858  16.763  17.461   5.316  0.1234  0.1207 -0.0750
27965W        W43859  12.185  13.842   3.696  0.1363 -0.1751  0.2053
27966W        W43860  18.146   2.738   5.218 -0.0233 -0.0092  0.1347
27967W        W43861   4.190  17.482  16.062  0.0341 -0.0419  0.1536
27968W        W43862   9.380   2.516   3.357  0.1361 -0.2821  0.3195
27969W        W43863   2.341   6.505   1.943 -0.4951 -0.1619 -0.2210
27970W        W43864  11.688  10.702   2.185 -0.1780 -0.3142 -0.1911
27971W        W43865   1.403  13.594  13.280  0.0547 -0.1360  0.2206
27972W        W43866   2.766  11.351   2.021  0.2284  0.1322  0.0906
27973W        W43867   2.053   2.695   0.515  0.1395 -0.1637  0.3041
27974W        W43868   4.520   3.942  12.401  0.1090 -0.2549 -0.1947
27975W        W43869   2.632  16.126   5.414  0.0539 -0.0581  0.3908
27976W        W43870   5.458   8.032   4.546 -0.0966  0.1160 -0.1002
27977W        W43871  15.253   2.838   4.020  0.0385  0.0827 -0.2253
27978W        W43872   1.613   4.302   0.055 -0.2072  0.0073  0.2061
27979W        W43873   9.258   6.761   3.525  0.2071  0.1387  0.2594
27980W        W43874   4.066  11.834   0.322  0.1496  0.0106  0.2196
27981W        W43875   8.800  13.030  15.554  0.4524 -0.0358  0.0460
27982W        W43876   6.546  11.102   3.895  0.2152  0.1398 -0.2460
27983W        W43877  13.081  15.611   4.248 -0.3395  0.0912 -0.0177
27984W        W43878   0.831   1.525   4.509 -0.2224  0.0246 -0.0933
27985W        W43879   6.094  10.114   2.804 -0.3139 -0.0090  0.0995
27986W        W43880   1.855   6.965  14.304 -0.0527 -0.0780 -0.0614
27987W        W43881   2.877  15.125   5.277  0.1085 -0.1736 -0.4441
27988W        W43882   9.540   1.815  15.832 -0.0015  0.1164  0.0180
27989W        W43883   1.387   6.911   3.578 -0.1872 -0.1337 -0.0511
27990W        W43884   7.971  13.281   2.325 -0.1309 -0.0580 -0.2832
27991W        W43885  12.259  13.106  13.639  0.2251  0.2914 -0.0755
27992W        W43886  11.817  11.165  10.630  0.0063  0.2512  0.3079
27993W        W43887  11.040  10.447   5.206  0.2426  0.0000  0.0021
27994W        W43888  16.862  10.707  13.917 -0.0465  0.4573  0.0021
27995W        W43889  15.076   8.369   4.776 -0.1321 -0.0536 -0.0526
27996W        W43890   5.380  10.083  13.793  0.2777 -0.2871 -0.0665
27997W        W43891   3.672   9.733  13.235  0.0969  0.1966  0.1127
27998W        W43892   2.738  15.542  13.269  0.3281 -0.1281  0.0461
27999W        W43893  10.635   4.586   0.227  0.3167 -0.0012  0.2728
28000W        W43894  10.126  12.361   4.969 -0.3226 -0.1203  0.0608
28001W        W43895  13.224  13.955   5.039 -0.5540 -0.1794  0.0006
28002W        W43896  13.454   6.013   1.111 -0.3565  0.0320  0.0723
28003W        W43897  11.829   8.938   3.726 -0.2235  0.1119  0.2876
28004W        W43898  17.929   3.186   4.664  0.1863 -0.2302  0.2255
28005W        W43899  18.057   6.262   2.483  0.2896  0.3458  0.2106
28006W        W43900  12.762  12.125  11.210  0.0653  0.1375  0.0853
28007W        W43901   1.716   3.008   4.534  0.0751  0.1474 -0.1583
28008W        W43902  13.250   4.108  11.280  0.1192 -0.4709 -0.1099
28009W        W43903  11.105  12.826  11.692 -0.0136  0.1900  0.1242
28010W        W43904  16.174  11.613   5.908  0.0424 -0.0054  0.5132
28011W        W43905   8.482   7.828   4.529 -0.1466  0.2374 -0.0825
28012W        W43906   9.615   9.763  14.749  0.0898  0.1211 -0.0927
28013W        W43907  12.684   1.255  13.218  0.0324  0.0414  0.0499
28014W        W43908   7.749  12.279  12.618  0.0510 -0.0019 -0.0212
28015W        W43909   7.177  12.108   0.784  0.0435  0.2435  0.2617
28016W        W43910  14.169   0.690  13.975 -0.0860 -0.0289 -0.1397
28017W        W43911  16.104   0.167  12.392  0.3398  0.0423 -0.2051
28018W        W43912  16.739  11.709  13.566 -0.1640  0.3933 -0.2127
28019W        W43913   4.402   7.752  15.529  0.2698 -0.2354  0.1412
28020W        W43914  10.637  16.274   4.983 -0.0979  0.3010 -0.0162
28021W        W43915   1.186   9.158  15.967 -0.1697  0.1270 -0.0876
28022W        W43916  17.747  14.776  11.548  0.0165  0.2208 -0.2318
28023W        W43917   0.720   5.807  14.662  0.0337  0.0765  0.1697
28024W        W43918   3.078  13.785   1.405  0.0228 -0.2207  0.3081
28025W        W43919  16.078   6.276   0.654 -0.2328  0.3598 -0.1335
28026W        W43920   3.310   0.649   2.873 -0.1109 -0.1934 -0.1751
28027W        W43921  10.150  17.162  15.357 -0.1816 -0.0793  0.1009
28028W        W43922   5.582   8.585   0.881 -0.0999  0.0917 -0.1575
28029W        W43923   2.923  13.824  12.086  0.1489  0.3718 -0.0789
28030W        W43924   0.387   1.522  12.492  0.0068 -0.4714 -0.2362
28031W        W43925   6.911   2.253   2.676  0.3554 -0.1770  0.2569
28032W        W43926  17.953   9.721   5.549  0.2324  0.1435 -0.0029
28033W        W43927  12.252  11.153  15.809  0.0402 -0.2294 -0.3185
28034W        W43928  17.585  12.836  15.726 -0.1691 -0.0653 -0.3169
28035W        W43929  12.233   1.107  14.552 -0.2009  0.2107 -0.2203
28036W        W43930   6.626   9.319   2.589  0.0294 -0.0139 -0.0169
28037W        W43931   2.894   7.726   5.126 -0.3314 -0.0963 -0.1738
28038W        W43932   1.640   0.220   0.472  0.0738 -0.1072 -0.1987
28039W        W43933  10.038   0.437  14.478 -0.2528 -0.0694 -0.0792
28040W        W43934   5.852   4.352   0.218  0.0835  0.2839 -0.1070
28041W        W43935   2.664   1.798  13.334 -0.2266 -0.2745  0.4245
28042W        W43936  12.022   0.287   3.324  0.2137 -0.1019 -0.2589
28043W        W43937  18.046  15.242  14.125  0.2015 -0.1308 -0.1985
28044W        W43938   8.916  14.165   2.076  0.0029  0.2883 -0.2991
28045W        W43939   5.312  18.244   3.484 -0.0455 -0.2091  0.0820
28046W        W43940  10.019   5.288  12.855 -0.0029  0.0055  0.1006
28047W        W43941  16.506  16.634   5.299 -0.2013  0.0620 -0.3612
28048W        W43942   6.530  16.077   4.136  0.0423  0.1062 -0.1094
28049W        W43943   5.299   7.237   0.760  0.1262  0.2403 -0.1998
28050W        W43944   6.078   1.323   5.408 -0.1042 -0.2887 -0.1179
28051W        W43945   2.794  17.223   0.760 -0.3088  0.0868  0.2961
28052W        W43946   4.420  14.580  14.041 -0.2040 -0.2161  0.0243
28053W        W43947   4.531   3.125   5.166  0.1513  0.2886  0.0278
28054W        W43948   1.627  17.235  12.523  0.1708  0.0879 -0.0082
28055W        W43949  12.534  17.529  11.753  0.2696 -0.0648 -0.1163
28056W        W43950   7.133  10.578   3.594  0.4290  0.0928  0.0113
28057W        W43951  11.670   3.620   1.217 -0.1606  0.0951  0.3054
28058W        W43952  12.488  18.219   0.208  0.0089  0.2883 -0.0629
28059W        W43953   9.168   3.008   4.053 -0.0556 -0.0799 -0.1427
28060W        W43954   7.956  18.072  14.121  0.0154  0.0672 -0.1775
28061W        W43955   6.988   4.834  14.382 -0.1664 -0.1286  0.0465
28062W        W43956  12.371  13.768  14.231  0.1416 -0.0588 -0.0093
28063W        W43957   0.162   2.208  12.926 -0.0247 -0.1380 -0.3965
28064W        W43958  10.571  11.080   5.028  0.0160  0.0096 -0.2151
28065W        W43959   8.240   9.069   2.036  0.2906  0.2696  0.0210
28066W        W43960   0.906  16.778   4.908 -0.0905 -0.2354  0.1717
28067W        W43961  13.653   2.831   6.008  0.1998 -0.0184  0.1885
28068W        W43962  16.163  14.396  12.114  0.1380  0.1794  0.3177
28069W        W43963  15.845  10.796  16.080  0.2011 -0.2547 -0.1838
28070W        W43964  11.274   3.019  10.872 -0.2009  0.0462  0.2823
28071W        W43965   2.045   1.086  15.270  0.0037 -0.0013  0.1609
28072W        W43966   7.020  14.481   0.115  0.3689  0.0294 -0.1629
28073W        W43967   2.065   4.751   0.827  0.3506  0.1731  0.0442
28074W        W43968   1.522  15.932   5.258  0.3371 -0.3343  0.4104
28075W        W43969  17.600   4.327  12.242 -0.2596  0.0098  0.1440
28076W        W43970  14.705  18.136  14.016 -0.1220  0.0818  0.1375
28077W        W43971   9.565  15.305   2.143 -0.1595  0.2294  0.0053
28078W        W43972   9.643   2.633   6.060  0.0732 -0.0929  0.2878
28079W        W43973   3.589   7.703   5.682  0.2009  0.1655  0.2634
28080W        W43974   4.910   2.133  13.905 -0.0398  0.0203  0.0844
28081W        W43975   8.187  16.507   5.788 -0.0082  0.1399 -0.1185
28082W        W43976   7.718   5.813  10.717 -0.1295  0.2315 -0.1645
28083W        W43977   4.322  16.389   4.440  0.1430 -0.1416  0.1615
28084W        W43978  14.086   4.171  12.467 -0.3847 -0.2114 -0.0949
28085W        W43979   9.939  11.756   4.784 -0.0196 -0.1620 -0.2046
28086W        W43980   7.821  17.060  15.610  0.0171 -0.0326  0.0203
28087W        W43981  15.757   3.220   3.286 -0.1417 -0.0207 -0.3566
28088W        W43982   6.172   2.455  12.846 -0.1897  0.0117 -0.2918
28089W        W43983   3.829   9.715   2.111  0.0323  0.3936  0.0416
28090W        W43984  15.852   6.502   2.179 -0.0480 -0.0872  0.1170
28091W        W43985   2.421   1.418  13.263 -0.0254 -0.1070 -0.0976
28092W        W43986  14.165   7.996  12.080 -0.3172 -0.2019  0.0229
28093W        W43987  17.326   4.130   3.326 -0.2810 -0.1148 -0.1532
28094W        W43988   1.940  17.078  14.771  0.0884 -0.0189  0.0367
28095W        W43989  10.065   6.912   1.729  0.1612 -0.0334 -0.0838
28096W        W43990   1.658  18.155   1.647 -0.1323  0.2085  0.1514
28097W        W43991  10.490   1.678  12.909  0.1731 -0.0325  0.3393
28098W        W43992   0.155   3.881  11.409  0.0917 -0.0797  0.0312
28099W        W43993   4.393   9.010  12.695 -0.2096 -0.0480 -0.0904
28100W        W43994  10.163   2.376   6.107  0.0801 -0.1071  0.0809
28101W        W43995  14.736   3.690  13.149  0.0352 -0.2386  0.1218
28102W        W43996   5.165  13.967  14.210  0.3521  0.0270  0.1922
28103W        W43997  13.464  14.626  12.969  0.0418  0.0227  0.3011
28104W        W43998  10.335  18.355   1.818 -0.0686 -0.2264  0.0729
28105W        W43999   7.003   0.833  11.715  0.1824 -0.0142  0.2663
28106W        W44000   1.189   2.033   1.927 -0.1118 -0.0968  0.0898
28107W        W44001  15.003   5.107   0.434  0.2679 -0.2765  0.2658
28108W        W44002   8.055  10.488   4.722  0.2384 -0.0006  0.1570
28109W        W44003  11.146  11.252  13.165 -0.1669  0.3599  0.0268
28110W        W44004  12.496  10.578  13.410 -0.1765 -0.0145 -0.1440
28111W        W44005   4.484   5.548   1.504 -0.0160  0.1995  0.3627
28112W        W44006   1.167   5.158   1.874 -0.1446 -0.0629  0.1322
28113W        W44007  17.866  16.721  15.893  0.0709  0.1099  0.1147
28114W        W44008   8.801  17.235  11.048 -0.3721 -0.1175  0.0962
28115W        W44009  10.570  17.311   4.776  0.3156 -0.0281  0.0744
28116W        W44010   6.107  16.088  11.006  0.0426 -0.1213  0.1586
28117W        W44011   9.208  17.539  15.302  0.3888 -0.2760  0.4403
28118W        W44012  11.385  14.319  15.371  0.1686 -0.1067  0.1771
28119W        W44013  11.208   5.418   4.682  0.1288 -0.1374  0.0863
28120W        W44014   0.729   6.342   5.416 -0.2688 -0.1319  0.0361
28121W        W44015   2.692  12.899   1.368 -0.2031  0.0381 -0.0351
28122W        W44016   2.894   5.389  13.412  0.0871  0.0145 -0.2686
28123W        W44017  15.769   3.119  14.897 -0.0560  0.0822 -0.0810
28124W        W44018  15.034  12.483  11.065  0.0297  0.1156 -0.1901
28125W        W44019  15.065  10.954  11.655 -0.1111 -0.1248  0.1712
28126W        W44020   3.522  10.156   3.332 -0.3415  0.0084  0.4208
28127W        W44021   0.006  12.373  12.295  0.2138  0.1393 -0.0382
28128W        W44022   8.889  18.061  14.485 -0.0426 -0.2114  0.2685
28129W        W44023   3.859   2.575   1.952  0.1056 -0.1978 -0.0860
28130W        W44024  12.369  13.868   1.475  0.2136  0.2043  0.2235
28131W        W44025  15.286   6.054   5.438 -0.0499 -0.0780 -0.0435
28132W        W44026   1.315   2.833   1.305  0.0315  0.0305 -0.1493
28133W        W44027  18.253  13.180   5.207  0.0832  0.0944 -0.2611
28134W        W44028  12.427  16.423  11.056  0.0502  0.0031  0.3308
28135W        W44029   1.947  12.635   1.292  0.1423  0.2301  0.0127
28136W        W44030   8.703   1.798  11.147 -0.2319  0.0084  0.4642
28137W        W44031   5.081  17.661   0.545  0.2666  0.2977  0.0833
28138W        W44032   1.878   8.831   3.386  0.3622  0.2284 -0.0393
28139W        W44033   8.872  11.147   5.147  0.0332  0.0728 -0.3324
28140W        W44034  15.059   8.783  11.398  0.0160 -0.1878  0.2492
28141W        W44035   2.267   6.507   1.288  0.1608  0.1933 -0.1993
28142W        W44036   6.906  13.797  11.240  0.3695  0.2001  0.0030
28143W        W44037   4.109   5.303   1.195  0.0870  0.0425 -0.1039
28144W        W44038   8.560   7.594  14.104  0.1140 -0.2729  0.5045
28145W        W44039   9.311  14.304  12.896  0.0057  0.1874  0.1069
28146W        W44040  12.678  17.994  12.220  0.0389 -0.0901  0.3470
28147W        W44041  13.292   2.737   2.435  0.2325 -0.0377 -0.3010
28148W        W44042   0.024   1.205   0.457  0.0846  0.0520 -0.1908
28149W        W44043  10.872   5.620  11.572 -0.2652 -0.0992  0.0769
28150W        W44044   5.796   9.172  15.529  0.1502  0.1960  0.1045
28151W        W44045   3.674  12.762   5.161 -0.1057 -0.1019  0.0853
28152W        W44046  16.793  17.688  10.936  0.1024 -0.0982 -0.1391
28153W        W44047  13.667  18.131  10.339 -0.0012  0.1135  0.2150
28154W        W44048  11.423  17.659   3.396  0.1162 -0.5175 -0.1107
28155W        W44049  18.385   7.752  11.079 -0.1077  0.0797  0.0728
28156W        W44050   8.212   3.765   3.342 -0.1092  0.0238 -0.0343
28157W        W44051   8.757   7.520  11.745  0.2158  0.2078  0.1288
28158W        W44052   7.746   5.016  14.521 -0.2453 -0.0406  0.0764
28159W        W44053  12.796  16.454   1.351 -0.0317  0.0364 -0.1532
28160W        W44054   9.644   5.377  15.141  0.1602  0.1469 -0.0135
28161W        W44055  18.363   5.776   1.941  0.0509 -0.1615  0.0327
28162W        W44056   8.137   6.378  11.880  0.1927  0.4507  0.0374
28163W        W44057   9.101   5.423  13.710 -0.0040 -0.1914 -0.0332
28164W        W44058   7.681   5.493  13.113 -0.2793  0.0994 -0.2922
28165W        W44059   9.632   7.192   3.457 -0.3679 -0.2441  0.2080
28166W        W44060  16.773   8.481   3.620  0.0046 -0.2361 -0.0174
28167W        W44061  17.800   1.343  12.745 -0.3376  0.3984 -0.0802
28168W        W44062   8.868   6.524   2.320  0.0228  0.0323 -0.1811
28169W        W44063   1.943   9.511  13.395 -0.3207  0.3761 -0.1462
28170W        W44064   1.986   3.408   0.958 -0.0204  0.2271  0.1900
28171W        W44065  10.798   2.545  15.302 -0.1749 -0.0390  0.2145
28172W        W44066  16.551   5.158  13.019  0.0151  0.0214 -0.0033
28173W        W44067   5.007   4.782   3.043  0.1784 -0.2477 -0.0780
28174W        W44068   6.827   6.430   0.917 -0.2181 -0.0627  0.0320
28175W        W44069   9.845   1.917   3.071  0.1632  0.5292  0.1679
28176W        W44070  14.802   1.209  14.988 -0.0139  0.0396  0.0794
28177W        W44071  13.552   7.571   1.484 -0.3729  0.1815 -0.1034
28178W        W44072   4.576  15.014  11.126 -0.2106 -0.1173  0.3637
28179W        W44073   9.449  10.371   2.943 -0.0658 -0.0331 -0.1499
28180W        W44074  18.259  16.238  12.767  0.3082  0.0589 -0.1530
28181W        W44075   0.748   3.894  16.003  0.3256  0.0065  0.2697
28182W        W44076   3.174   8.640  15.729  0.2005 -0.1635 -0.0969
28183W        W44077  15.230  13.822   0.283 -0.0875 -0.0116 -0.0046
28184W        W44078   2.539   5.093  14.480 -0.3544  0.0550  0.0597
28185W        W44079   0.545  15.474   2.220 -0.3491 -0.1291 -0.4342
28186W        W44080  13.936   0.443  11.468  0.0294 -0.1176 -0.3751
28187W        W44081  11.689  10.806  14.037 -0.1823  0.1306 -0.1399
28188W        W44082  18.126  15.868   4.015 -0.3498  0.1977  0.1451
28189W        W44083  17.725  15.990  10.573 -0.0996 -0.0194 -0.4370
28190W        W44084   7.586   3.686  11.908 -0.0432 -0.0124  0.2130
28191W        W44085   4.525  11.521   0.203  0.0369 -0.0362  0.2303
28192W        W44086  14.644   8.890   2.366  0.0848  0.0350  0.1329
28193W        W44087  14.704  18.233  11.429  0.0185 -0.0683 -0.0277
28194W        W44088   0.920   4.203   3.252 -0.1551 -0.1094  0.0708
28195W        W44089  15.496   1.482   1.403 -0.3373 -0.3733 -0.1463
28196W        W44090  10.260  11.503   5.094  0.2098 -0.0438 -0.1534
28197W        W44091   1.161   8.841  15.617 -0.0892  0.0179 -0.4582
28198W        W44092   5.641  12.092   3.726  0.0183  0.1625 -0.0875
28199W        W44093  10.027  12.638  15.661 -0.0442  0.3145 -0.1905
28200W        W44094   9.275   0.683  13.133 -0.1100 -0.2925 -0.1981
28201W        W44095  12.754  11.542   0.338  0.0694 -0.1936  0.1526
28202W        W44096   5.627   0.302   1.549 -0.1093  0.1384 -0.2470
28203W        W44097  17.024  12.005   4.464 -0.2551  0.0419 -0.0574
28204W        W44098   6.308   7.399   0.858  0.0778  0.1754 -0.2442
28205W        W44099  10.638   7.463   5.318 -0.1075  0.1043  0.2592
28206W        W44100  12.315   4.133   1.820  0.2019  0.1214  0.0060
28207W        W44101  15.929   0.260   1.270 -0.3571 -0.0260  0.1898
28208W        W44102  11.554  16.883  14.319  0.0556  0.1503 -0.0343
28209W        W44103   1.853  12.301  15.251 -0.0487 -0.0923 -0.3234
28210W        W44104   4.536  14.642  15.414  0.0204  0.1361 -0.2819
28211W        W44105  16.354   2.537   5.533 -0.1883 -0.2135 -0.1415
28212W        W44106  17.151   9.281   3.558  0.0124 -0.1254 -0.0459
28213W        W44107  14.801  10.668   2.248  0.0436 -0.0476  0.2392
28214W        W44108  15.217  12.197  11.410 -0.3754  0.1312 -0.2978
28215W        W44109  17.547   9.724   5.215 -0.2659  0.0242 -0.1857
28216W        W44110  10.874   1.215  15.201 -0.2274 -0.0838 -0.2678
28217W        W44111   3.623   1.753  10.803 -0.2898  0.1182 -0.0635
28218W        W44112  13.304   3.711  11.017  0.1877 -0.0375  0.4925
28219W        W44113   1.870   1.663  12.425  0.0079  0.1049 -0.0721
28220W        W44114   4.592   3.285  13.689  0.0873 -0.1587  0.0466
28221W        W44115  13.760  12.480   4.710 -0.0216 -0.1395  0.1262
28222W        W44116   1.693  14.683  12.092 -0.0952 -0.2382 -0.1894
28223W        W44117  13.300   1.808  13.751 -0.0333  0.3209  0.1331
28224W        W44118  14.398   1.139  14.677  0.0643  0.1411 -0.3817
28225W        W44119   2.816  10.451   3.337 -0.1088 -0.0971 -0.2627
28226W        W44120   9.922   0.797   5.731 -0.2269 -0.1498 -0.0983
28227W        W44121   4.073  11.123  12.313 -0.0614 -0.1542  0.0384
28228W        W44122  15.097   5.652   0.610 -0.0807 -0.0315 -0.5883
28229W        W44123  14.304  12.696   3.827  0.0766 -0.1319 -0.0158
28230W        W44124  12.455   2.166   0.431 -0.0951 -0.1166 -0.4109
28231W        W44125   1.693  12.438   4.821 -0.1613 -0.0696  0.5579
28232W        W44126  17.300  12.778  11.661  0.1083  0.1259  0.2374
28233W        W44127   1.078   2.719   0.304 -0.1949  0.0846  0.3185
28234W        W44128  13.083  10.562  11.591  0.0287  0.0890  0.1711
28235W        W44129   8.526   6.182   1.401  0.0835  0.1006  0.3530
28236W        W44130  15.978   4.014  13.747  0.0732 -0.0520  0.0931
28237W        W44131   0.809   1.277   4.904 -0.0616 -0.0313 -0.1920
28238W        W44132  18.091  12.580   0.582  0.0082 -0.0585 -0.0035
28239W        W44133  11.940   3.779   1.820  0.0595 -0.1694  0.0874
28240W        W44134  15.396   3.279   5.878  0.3924 -0.2063  0.5039
28241W        W44135  10.394   4.227  15.355 -0.2103 -0.1240 -0.0275
28242W        W44136  16.143   8.106  10.847 -0.2753 -0.2658 -0.1456
28243W        W44137  18.117   4.309  15.256 -0.1944  0.1740 -0.0443
28244W        W44138   3.250   8.542   2.036 -0.0029  0.2276 -0.0466
28245W        W44139   3.242  16.659   1.353  0.3622 -0.0088  0.0277
28246W        W44140  10.152  16.002   3.519 -0.0689  0.1029 -0.0862
28247W        W44141  14.972  11.445  13.339 -0.0723  0.1013  0.0298
28248W        W44142  12.422  15.917  15.158 -0.4382  0.3891 -0.0909
28249W        W44143   7.129  16.322  14.259  0.1206 -0.0923  0.1469
28250W        W44144   0.519   3.269   0.703 -0.1696 -0.4105 -0.0900
28251W        W44145   6.359   8.456  15.852 -0.2743 -0.3920  0.1905
28252W        W44146  15.990   2.736   3.483 -0.1613 -0.2923  0.0771
28253W        W44147  12.046  13.186   5.425  0.2062 -0.0154  0.0108
28254W        W44148   9.761   9.701   0.989 -0.0508  0.3110 -0.0847
28255W        W44149  12.826  17.502  12.158 -0.2662  0.0597 -0.0134
28256W        W44150  10.778   5.692  14.944  0.1507  0.0104 -0.2830
28257W        W44151   5.522   8.966   3.167 -0.1285 -0.2470 -0.1261
28258W        W44152   9.819   4.622  15.920 -0.0325 -0.4345  0.1399
28259W        W44153   6.206   9.685  13.806 -0.1215 -0.2349 -0.2421
28260W        W44154  17.476   1.990   3.987  0.1016 -0.1314 -0.1897
28261W        W44155  13.757   5.886   4.752 -0.1836 -0.1814  0.0648
28262W        W44156   1.574  18.117   2.566 -0.2135 -0.0960 -0.2152
28263W        W44157  16.453   6.220   2.852  0.1786 -0.0965 -0.1941
28264W        W44158  15.250  15.589  12.558 -0.2042 -0.0176 -0.1997
28265W        W44159   9.379   4.343   2.975  0.1437 -0.2280  0.0363
28266W        W44160   1.720  14.970  12.580 -0.0643  0.0429  0.2341
28267W        W44161   1.812  11.045  15.438 -0.1493  0.0272  0.0623
28268W        W44162   7.091  10.914   1.392  0.0949  0.0133  0.2548
28269W        W44163   6.833  13.098  15.222 -0.1068 -0.2696  0.1648
28270W        W44164   9.628  17.518   4.499  0.0043  0.0460 -0.4099
28271W        W44165   6.824  15.849   2.005  0.4179  0.3357 -0.1696
28272W        W44166  13.105  13.984   1.885 -0.3482  0.1184  0.3325
28273W        W44167   5.834  10.062   6.018 -0.2437 -0.1075  0.1031
28274W        W44168  13.853  18.365  13.469  0.1053  0.0782 -0.3257
28275W        W44169   7.269   6.759  14.545  0.1900  0.1452  0.0295
28276W        W44170  11.178  13.243  11.412  0.0572 -0.0239  0.1418
28277W        W44171  16.986  12.405   0.355  0.1034 -0.3429  0.2579
28278W        W44172   8.917   2.596   5.220  0.2663 -0.2893  0.1708
28279W        W44173   5.887  10.875  12.989  0.1894  0.0423  0.2031
28280W        W44174   6.123   9.940   0.820 -0.0426  0.0729 -0.0891
28281W        W44175   4.086   5.090   3.490  0.1611 -0.2957  0.0233
28282W        W44176  12.322  14.868   4.550 -0.5437  0.2538  0.2308
28283W        W44177   9.484  15.495   3.073  0.1358 -0.0912  0.3462
28284W        W44178   7.305   9.881   0.263  0.1920  0.0366 -0.2340
28285W        W44179   8.714  10.368   3.711  0.0898 -0.1397 -0.0247
28286W        W44180  10.037   8.942   0.623  0.1242  0.2614  0.2736
28287W        W44181   4.742   4.008  11.450 -0.2901  0.1160  0.0872
28288W        W44182   5.702  12.271  15.356  0.0376 -0.1686  0.0644
28289W        W44183   5.998   3.372   3.925  0.3335 -0.1661  0.2626
28290W        W44184   8.181   0.490  11.005 -0.1929 -0.0935  0.0305
28291W        W44185   0.623   7.747  12.911  0.2930  0.2151  0.1445
28292W        W44186   1.611  13.011   0.476 -0.0017 -0.2931 -0.0719
28293W        W44187  17.199  17.383  15.853  0.0451 -0.0628  0.1479
28294W        W44188   8.692   9.911  14.856  0.1590  0.4090 -0.1099
28295W        W44189  11.626   5.801  13.333 -0.1099 -0.4143 -0.0296
28296W        W44190   6.282   6.353   2.391 -0.3664 -0.0648 -0.4387
28297W        W44191   2.825  14.487   2.333  0.0155 -0.1333 -0.1728
28298W        W44192  10.095  14.062  14.934  0.0872 -0.0020 -0.1516
28299W        W44193  14.040  11.360   5.842 -0.2801 -0.1006 -0.0654
28300W        W44194  10.381  18.351  10.918  0.1535  0.0851  0.0606
28301W        W44195   3.318  11.508  14.744 -0.0710  0.2385 -0.3697
28302W        W44196   5.816  11.573   3.230 -0.1146  0.0991 -0.0259
28303W        W44197   4.609   8.167   1.872 -0.2057 -0.3402 -0.3645
28304W        W44198   4.705   4.521  10.849 -0.0352  0.1227  0.0107
28305W        W44199   2.445   2.259   4.142  0.0426 -0.0192  0.1591
28306W        W44200  10.792   2.123   3.135 -0.0397 -0.2331 -0.0104
28307W        W44201   5.643   5.575   5.115  0.0445 -0.1835 -0.1368
28308W        W44202   2.112   3.725  11.912 -0.2263 -0.3046  0.0510
28309W        W44203  17.045  12.448  13.156 -0.0733  0.0824 -0.1631
28310W        W44204  13.806  12.065  15.960  0.0633  0.2163  0.5983
28311W        W44205   0.242   7.441  11.520  0.1457 -0.0382  0.1655
28312W        W44206  16.397   7.757  11.515  0.0738  0.0222 -0.0949
28313W        W44207  10.473   4.764   4.461 -0.2138 -0.1330 -0.3123
28314W        W44208   4.069   6.606   5.820  0.1214  0.0359  0.2230
28315W        W44209  15.423   9.643   1.458 -0.1088 -0.1586 -0.0842
28316W        W44210  18.262  18.286   5.050  0.0761  0.1013 -0.0478
28317W        W44211   6.374  17.167   2.822 -0.0575  0.2090 -0.1316
28318W        W44212   0.448  14.903   4.542  0.2735 -0.1148 -0.2389
28319W        W44213   5.255   5.020  15.204  0.0305 -0.1140 -0.0551
28320W        W44214  12.672  12.337  13.412  0.0396 -0.0154  0.2840
28321W        W44215   3.700  11.865   1.905  0.2491  0.0034 -0.4050
28322W        W44216   7.910  10.524  15.257  0.0889 -0.0116  0.2363
28323W        W44217   6.871   2.348   5.053  0.1427 -0.0436 -0.0850
28324W        W44218   6.161  16.798   5.232  0.0907 -0.0468  0.2856
28325W        W44219   3.922   9.774   1.170 -0.0459  0.1555 -0.1330
28326W        W44220  14.433  17.728  14.026 -0.1665 -0.2203  0.1835
28327W        W44221  17.044  15.800  12.694  0.2390 -0.1947  0.2517
28328W        W44222  11.129   8.439  15.516  0.2995  0.1456  0.0413
28329W        W44223  11.807  13.201  11.094 -0.2088  0.1097  0.1296
28330W        W44224   3.041   5.320  12.764  0.0339  0.0181 -0.0281
28331W        W44225  16.021  15.819  13.853 -0.1008  0.0950  0.0060
28332W        W44226   5.114  12.205  12.794  0.0479  0.0654  0.1079
28333W        W44227   7.061  15.743   1.221  0.0586 -0.1562 -0.2240
28334W        W44228   6.717   8.086   2.973  0.0152  0.0783 -0.0108
28335W        W44229   8.565   6.948  15.153 -0.2743  0.0760 -0.0497
28336W        W44230   7.527   4.922   0.374 -0.3724 -0.2453 -0.1704
28337W        W44231   5.405   3.901   0.880 -0.1967  0.1712  0.1780
28338W        W44232  16.410  14.641  13.956 -0.0165 -0.2905  0.3334
28339W        W44233  15.429   1.974  13.934 -0.2005 -0.0269  0.4355
28340W        W44234  15.853  15.486   0.471 -0.4772  0.2785  0.1821
28341W        W44235  10.120  14.864   2.729 -0.2457 -0.1409 -0.0774
28342W        W44236   9.706   7.803  15.761  0.0010  0.0053  0.0632
28343W        W44237  11.294   1.354   1.474 -0.2261  0.0331  0.0584
28344W        W44238   6.231   7.631  10.356  0.0159  0.0925 -0.1454
28345W        W44239  15.636  12.983   4.365  0.0642  0.1557 -0.1922
28346W        W44240   5.454  15.446   3.053  0.2196  0.0323  0.3396
28347W        W44241   2.255  16.587   2.131 -0.0153 -0.0196 -0.0780
28348W        W44242   7.044  14.966   1.728  0.3752  0.1940  0.4924
28349W        W44243   3.067  17.958   1.949 -0.0864 -0.1316 -0.3116
28350W        W44244   5.636   0.307   4.980  0.0116 -0.0944  0.2318
28351W        W44245  18.434  14.338  14.775  0.2637 -0.0799 -0.0370
28352W        W44246  18.325   5.815   3.984 -0.0149  0.0805  0.2188
28353W        W44247  15.557  11.699   1.186 -0.3410 -0.2317  0.0491
28354W        W44248  16.976   9.541  12.757 -0.2237  0.0720  0.1820
28355W        W44249  15.536  13.612  13.911 -0.1928  0.2369 -0.2818
28356W        W44250   1.150  15.112  14.300 -0.0626 -0.1352  0.1018
28357W        W44251   6.867  16.294   3.707  0.0063 -0.0050 -0.2221
28358W        W44252  12.832   6.473   0.490 -0.1209 -0.4107 -0.1691
28359W        W44253   7.832  16.999   3.521  0.0708  0.0124  0.0440
28360W        W44254  17.456  10.366  13.636  0.4147  0.1980 -0.3042
28361W        W44255  17.265  16.810  12.185  0.0025 -0.1764  0.1262
28362W        W44256   5.354  14.180   0.503 -0.0973  0.1563  0.3169
28363W        W44257   2.225   3.842   2.864 -0.2602 -0.1681 -0.2468
28364W        W44258   4.417  17.569   3.482 -0.2325  0.1817  0.1423
28365W        W44259   1.688   3.711   3.454 -0.0464 -0.1180 -0.3648
28366W        W44260  14.512   9.499   4.120  0.0009  0.1007 -0.0550
28367W        W44261  16.963   3.855   2.253 -0.1367  0.2780  0.0020
28368W        W44262  13.272   7.750   2.706 -0.1100 -0.0329  0.0110
28369W        W44263   7.980  16.192  14.525 -0.0719  0.2484  0.1882
28370W        W44264   5.042   1.646  13.205 -0.3809 -0.1332 -0.1186
28371W        W44265   7.260   4.003   0.129  0.2749  0.2289  0.0786
28372W        W44266   9.628  12.451   2.274 -0.2549 -0.2092 -0.0949
28373W        W44267   3.543  10.351  12.483  0.2365  0.1218  0.0203
28374W        W44268   8.580   2.030  11.611 -0.0375 -0.1739  0.0534
28375W        W44269   9.210  13.477   3.549  0.1933  0.2640  0.2422
28376W        W44270  12.306   0.534  13.940 -0.1082 -0.0514  0.2715
28377W        W44271  11.265   9.463   4.973  0.2126 -0.0078  0.0137
28378W        W44272   9.774  16.140  14.968 -0.1960  0.1639 -0.1429
28379W        W44273  16.165  17.172  11.259  0.0676 -0.1004 -0.1046
28380W        W44274  14.874   1.921   0.203 -0.1675 -0.1016 -0.1610
28381W        W44275   1.282   3.610  16.135  0.3367  0.0798  0.1126
28382W        W44276  17.954  12.345   4.372 -0.1127 -0.1418  0.0267
28383W        W44277   0.845   6.821  11.045 -0.1077 -0.0652 -0.2919
28384W        W44278   3.777   0.810   3.117 -0.0447  0.3626 -0.0293
28385W        W44279   2.377   5.459   3.632  0.0292  0.1087  0.0207
28386W        W44280   0.790  18.122   1.943 -0.2480  0.0333  0.3762
28387W        W44281   3.970  10.507  14.511 -0.4236  0.2612 -0.0586
28388W        W44282   5.365   4.465   6.044  0.1400  0.0570 -0.0962
28389W        W44283  11.873  13.987  13.932  0.0634 -0.0010  0.4094
28390W        W44284   0.206  16.167   2.788 -0.2555 -0.2914 -0.1705
28391W        W44285   7.580   8.009  14.761 -0.2351 -0.2105  0.0913
28392W        W44286  17.395  11.230  15.258 -0.0932  0.1672  0.2091
28393W        W44287  18.099  11.935  15.607 -0.3692 -0.1834  0.2262
28394W        W44288   6.847  11.833   6.091  0.4643 -0.2063 -0.0079
28395W        W44289  13.775   2.466   3.407  0.3789 -0.2502  0.1386
28396W        W44290  18.236  18.074   1.327 -0.0796 -0.2531  0.0370
28397W        W44291  13.709  13.010   0.597 -0.0542 -0.0752 -0.2228
28398W        W44292   7.219  10.539  13.684 -0.2039  0.1206  0.0321
28399W        W44293  12.667   5.374   3.328 -0.0055  0.2358 -0.0664
28400W        W44294   7.685   4.267  14.648 -0.3402  0.1072 -0.3286
28401W        W44295  16.996  11.017   2.551 -0.0062 -0.3592  0.4117
28402W        W44296   4.485  10.851   5.075 -0.0664 -0.1249 -0.0879
28403W        W44297   1.168  14.402  14.738  0.3154  0.1467 -0.0379
28404W        W44298   0.819  12.892  11.986 -0.1955 -0.3344  0.2621
28405W        W44299   1.184  18.388  15.283 -0.1510  0.1451  0.0978
28406W        W44300   8.937   9.437  11.244 -0.0852  0.2336 -0.7187
28407W        W44301   0.957   5.269   0.973  0.1365  0.0022 -0.1236
28408W        W44302  13.671   3.284   5.795 -0.1149  0.0771 -0.0605
28409W        W44303  10.701   5.926   5.372 -0.0385  0.0429  0.0126
28410W        W44304   7.845   5.801  16.147 -0.1220 -0.1327 -0.2346
28411W        W44305  12.707   3.209   3.874  0.0660  0.2712  0.1052
28412W        W44306  17.003   2.147   4.304 -0.1010 -0.2130  0.0430
28413W        W44307  10.098   2.735   4.612  0.1054 -0.0281  0.1321
28414W        W44308  15.739   6.193   0.346 -0.1203 -0.1507  0.3801
28415W        W44309  13.689   3.688   4.075  0.2310  0.1143  0.0881
28416W        W44310   1.989  12.881  14.836 -0.1133  0.1188 -0.1222
28417W        W44311  14.202   9.872   4.056  0.1418 -0.2229 -0.3212
28418W        W44312  11.809   5.814  15.077 -0.1636  0.1704 -0.0817
28419W        W44313   2.008   3.196  12.245  0.0279  0.0695 -0.0026
28420W        W44314   4.403  12.982  15.941 -0.2592  0.5130 -0.2852
28421W        W44315  16.338   0.039   5.192  0.0390 -0.0399  0.1582
28422W        W44316  12.621   4.911  13.491 -0.4709  0.0477 -0.0691
28423W        W44317   9.688  17.802  12.433  0.0586 -0.0878 -0.1748
28424W        W44318   7.275   6.975  13.441  0.1661 -0.2186  0.3315
28425W        W44319   5.742  12.545  10.570 -0.0759 -0.1239  0.0896
28426W        W44320   4.904   4.099  15.828  0.0307 -0.3062  0.0682
28427W        W44321  15.134   7.287   3.375 -0.0913  0.0440  0.0416
28428W        W44322   6.727   0.285   4.199 -0.2263  0.0162 -0.1174
28429W        W44323   5.181   5.828   5.486  0.0317  0.0209  0.1358
28430W        W44324   3.635   0.092  14.128  0.2243  0.0918 -0.0394
28431W        W44325  17.701  17.507  13.928  0.2414  0.1384  0.0334
28432W        W44326  16.389  14.063   1.352  0.1103  0.2891 -0.0321
28433W        W44327  14.254  12.969   5.035  0.2283  0.3076  0.3263
28434W        W44328  15.426  15.315   1.998  0.0432  0.0202  0.3804
28435W        W44329  14.762   5.576  14.417 -0.2789  0.0895  0.2379
28436W        W44330   5.981   3.415  15.927 -0.3366  0.2166  0.0227
28437W        W44331  11.256   8.791   4.367 -0.0394  0.1107 -0.0391
28438W        W44332   5.166   5.122  12.941  0.0933  0.1040 -0.1518
28439W        W44333  10.589  16.737   4.126 -0.0715 -0.0390 -0.0722
28440W        W44334   8.571   9.891   0.507 -0.0157  0.2005 -0.1010
28441W        W44335   2.057   3.407  12.688  0.0424  0.1222 -0.1229
28442W        W44336   4.385   5.497   4.962  0.1207 -0.1206  0.2901
28443W        W44337  17.399  17.483   2.736 -0.3046  0.0609 -0.1441
28444W        W44338   8.765  16.162  15.167  0.3534 -0.1089  0.1187
28445W        W44339  15.092   5.457   1.132  0.0680  0.0380  0.0870
28446W        W44340   4.054  17.033  12.349  0.2379  0.1525  0.3035
28447W        W44341   2.009   3.392  15.033  0.0169  0.1131  0.3137
28448W        W44342   2.740   4.978  15.731 -0.3392 -0.0168  0.2571
28449W        W44343   2.810   5.113   1.866  0.0555  0.3244 -0.1918
28450W        W44344   7.690   2.697  15.228 -0.0433  0.2086  0.0565
28451W        W44345   7.533   8.265   5.187  0.0994 -0.1065 -0.1189
28452W        W44346  13.271  11.925  13.987  0.2412  0.0831 -0.2650
28453W        W44347   7.243  15.295   1.337 -0.0484 -0.1457 -0.3581
28454W        W44348   2.826  11.512   0.720 -0.0090 -0.1229  0.0632
28455W        W44349  11.127   8.313   3.592  0.2836 -0.1176 -0.2681
28456W        W44350  13.934  13.482   3.936  0.0582  0.2331  0.0528
28457W        W44351  15.564   6.537  15.883 -0.3146 -0.1019  0.2535
28458W        W44352  16.162  10.121   1.229 -0.0256 -0.1421  0.1119
28459W        W44353  13.978  13.595   2.162 -0.2469 -0.0531 -0.1512
28460W        W44354   1.887   2.111   2.902  0.1094 -0.4019 -0.0585
28461W        W44355   1.315  12.824  12.319  0.2806 -0.3596 -0.0281
28462W        W44356  10.741  13.406  15.378  0.0303 -0.1730 -0.1559
28463W        W44357   6.333   5.667  15.786 -0.2448 -0.3362  0.0237
28464W        W44358   7.880  13.240  13.274 -0.1075  0.1036 -0.0054
28465W        W44359  13.094  14.257   3.839 -0.2653  0.0116  0.2542
28466W        W44360   3.850  16.718  10.816  0.0069  0.0125 -0.0990
28467W        W44361   1.904   1.931   3.367 -0.0173 -0.4006 -0.0672
28468W        W44362   8.730  11.815   1.527  0.1595  0.2698  0.1614
28469W        W44363  14.733  11.325  14.882  0.1933  0.1090  0.1212
28470W        W44364   5.806   0.308   1.012 -0.1307  0.2520  0.0630
28471W        W44365   0.425  12.974  15.578 -0.2480  0.2698  0.1423
28472W        W44366   2.687   5.915   5.479  0.1466 -0.1670  0.1866
28473W        W44367   8.114   7.235  14.748 -0.1317 -0.1478  0.1372
28474W        W44368  14.970  13.325   1.498  0.0469  0.2917 -0.2494
28475W        W44369   2.492  11.786   5.597  0.1030 -0.0064  0.2310
28476W        W44370  11.687  16.187   3.947  0.1912  0.1186  0.1263
28477W        W44371   9.526   3.466  12.836  0.0447  0.3114 -0.1194
28478W        W44372  15.527   2.617  13.020  0.1481  0.1521 -0.3097
28479W        W44373  17.280  12.875  14.749 -0.0220  0.1431  0.0830
28480W        W44374   2.807  11.424  14.133 -0.0457 -0.2346 -0.2291
28481W        W44375   8.434   0.318  15.677  0.1835 -0.1557 -0.2510
28482W        W44376   3.643  16.359   0.312  0.5120 -0.0298 -0.1327
28483W        W44377   1.712   1.524  15.104 -0.1643 -0.3221 -0.1240
28484W        W44378   7.785   8.092  15.208 -0.2147  0.1127 -0.0062
28485W        W44379  13.832   2.166  12.900  0.0640  0.1714  0.1332
28486W        W44380   8.779   8.461  11.572 -0.0186 -0.1580  0.2259
28487W        W44381   4.926   3.600  15.470 -0.1242  0.1653 -0.2826
28488W        W44382   7.322   6.152   4.506  0.0741  0.0585  0.0105
28489W        W44383   5.175  18.306   4.570  0.1044 -0.0402  0.1209
28490W        W44384  14.266   1.464   3.808  0.3593 -0.1805  0.0673
28491W        W44385  13.283  12.004  15.904  0.4785 -0.2780 -0.0492
28492W        W44386   3.484   1.784   5.490  0.0332 -0.0943  0.3109
28493W        W44387  12.286  13.340  15.443  0.0823 -0.0327  0.1045
28494W        W44388  12.598  15.898  12.575 -0.1356  0.2698  0.0315
28495W        W44389   9.152   1.149   4.175 -0.3851 -0.2092 -0.1588
28496W        W44390  11.291  16.230  12.959 -0.0234  0.0196  0.1653
28497W        W44391  17.060   6.005  15.201 -0.0209  0.0720  0.2098
28498W        W44392   2.453  14.310  14.943 -0.2116 -0.1292  0.1509
28499W        W44393  17.876   9.376  11.795 -0.0726 -0.0755 -0.0510
28500W        W44394  11.729  14.649  15.403 -0.0130 -0.2394  0.0661
28501W        W44395  10.338  14.119  13.954 -0.0210  0.1196  0.1813
28502W        W44396   5.246   7.623  14.717  0.1020  0.2454 -0.1836
28503W        W44397   3.634   9.160  12.156  0.0404  0.4083  0.0860
28504W        W44398   5.762   8.614   1.885  0.1874  0.2316 -0.0425
28505W        W44399  15.258  14.638   3.384 -0.2303 -0.3998 -0.0159
28506W        W44400  13.975   0.935   6.196  0.2385 -0.1774  0.1435
28507W        W44401  18.157  17.925   5.372  0.0208 -0.0633  0.1470
28508W        W44402   5.514  14.498   3.245  0.3656  0.2668  0.3193
28509W        W44403   7.492   3.911  10.632 -0.3299 -0.1261 -0.1646
28510W        W44404  10.012  14.642  13.715 -0.2486 -0.3474  0.2581
28511W        W44405  14.794  16.367   2.372  0.0680  0.3449  0.1354
28512W        W44406   2.569   5.423   0.678 -0.0460  0.1300 -0.0845
28513W        W44407  15.656  14.727  15.964  0.5633  0.2967  0.3086
28514W        W44408   3.164   1.876  12.153  0.2663  0.1469  0.0800
28515W        W44409  14.442  11.019   0.692  0.2786  0.4332 -0.1610
28516W        W44410   3.024   4.322  14.728  0.1046 -0.1989 -0.1541
28517W        W44411   1.625   1.918  14.765  0.0085  0.0391  0.0245
28518W        W44412  11.225   1.628  11.637 -0.1429  0.2580  0.1610
28519W        W44413   0.790  10.725  15.020  0.1141  0.0307 -0.4005
28520W        W44414   1.311   0.830   2.718 -0.0264  0.0397 -0.0996
28521W        W44415   2.994  15.978   3.254 -0.0531  0.0575  0.1174
28522W        W44416   8.787   0.607  10.263  0.2152 -0.0011 -0.1153
28523W        W44417   5.686   0.196  15.777  0.0571 -0.0777  0.0008
28524W        W44418   1.674  14.473   1.050  0.0462 -0.0278 -0.2371
28525W        W44419   3.645   7.368  12.271  0.2437 -0.4291 -0.1380
28526W        W44420   0.223  10.936  14.468  0.0362  0.4316 -0.1831
28527W        W44421  14.639   0.654   4.233 -0.4640 -0.2458 -0.2297
28528W        W44422   3.869  12.956  13.370  0.0520 -0.1524  0.3091
28529W        W44423   2.403   9.686   2.394  0.0424 -0.1969 -0.0409
28530W        W44424  18.180   7.799   4.273  0.2389  0.3508 -0.2262
28531W        W44425   6.329  10.040  16.068 -0.2305 -0.1336 -0.1267
28532W        W44426   6.831   0.564  14.858  0.1416 -0.2429  0.2052
28533W        W44427   0.977  16.279   0.201 -0.2052 -0.0709  0.0051
28534W        W44428   2.071  16.652   0.493 -0.0865  0.0901  0.2967
28535W        W44429  11.635   8.740  11.576 -0.4185 -0.2461  0.0197
28536W        W44430   6.535  11.899   2.675  0.1012 -0.1979  0.0900
28537W        W44431  14.587  18.116   2.083 -0.0980  0.2110 -0.2995
28538W        W44432   9.055   2.058   5.354 -0.0382  0.0517 -0.2456
28539W        W44433   4.144   7.749   0.301  0.0549 -0.1292  0.1701
28540W        W44434   1.060   0.878   5.075  0.1234  0.1287  0.1192
28541W        W44435   9.532   0.591   4.910  0.1323 -0.0701  0.2563
28542W        W44436   2.619   2.033  10.959  0.0712  0.0836  0.0436
28543W        W44437  17.035  10.676   4.849  0.0567 -0.1570 -0.0235
28544W        W44438   9.551  12.577  15.801 -0.0505 -0.2606  0.0318
28545W        W44439   0.615  12.753  13.182 -0.1643  0.1879 -0.0909
28546W        W44440  10.995   2.208  11.003 -0.0523 -0.3181  0.1727
28547W        W44441  15.316  11.875   4.607  0.1467  0.2197  0.1173
28548W        W44442   6.359   5.816   5.268  0.2081 -0.0623 -0.0372
28549W        W44443   5.671  17.995  15.093 -0.1566 -0.1922  0.1340
28550W        W44444   2.564   8.294   4.271  0.1127  0.0406  0.1465
28551W        W44445   9.263  17.165  13.328  0.0043  0.1223 -0.4792
28552W        W44446   6.157   2.750   2.348  0.0496  0.1510  0.1317
28553W        W44447   7.857  12.467  12.164 -0.0840 -0.1441  0.0260
28554W        W44448   6.979   7.095  15.502 -0.1764 -0.4078 -0.2574
28555W        W44449   7.505   0.004  13.697  0.0005 -0.1615 -0.3332
28556W        W44450   1.378  11.979  11.275 -0.4251  0.0574  0.1173
28557W        W44451  15.456  17.379   1.615 -0.1937  0.2446 -0.0315
28558W        W44452   1.051   5.771  13.298  0.3049 -0.3692 -0.3569
28559W        W44453   7.238  15.810  12.964 -0.2066 -0.0511 -0.0527
28560W        W44454  11.216   5.500  14.497  0.2200 -0.2147  0.0303
28561W        W44455  16.444  16.214  12.681  0.0935  0.1083 -0.5447
28562W        W44456  11.990   5.762   4.962  0.0339 -0.0733 -0.2616
28563W        W44457   7.364   7.825  11.898 -0.0120 -0.2585  0.1305
28564W        W44458   5.484  17.827   3.202  0.0278 -0.1374 -0.2461
28565W        W44459  17.778   9.853  13.739  0.0412 -0.0952  0.0306
28566W        W44460  16.350   3.637   3.312  0.2379  0.1830  0.0981
28567W        W44461   7.151   5.174   1.590  0.2384  0.0806  0.0769
28568W        W44462  14.102  16.716  14.952  0.1125  0.1715  0.0456
28569W        W44463   4.481   8.233  15.276  0.1219  0.2857  0.0407
28570W        W44464  12.096  12.323   2.936 -0.1387  0.1760 -0.0172
28571W        W44465  10.969   3.301  15.237  0.1154 -0.1126 -0.1575
28572W        W44466   3.436  15.959   4.454  0.1010  0.2887  0.1994
28573W        W44467   8.328   0.030  14.197 -0.1347 -0.1041  0.1558
28574W        W44468  15.356   6.796  14.573  0.0387  0.0274 -0.0940
28575W        W44469   5.509   8.097   1.214  0.0878  0.1004  0.1442
28576W        W44470   9.631  13.731   2.925  0.0173 -0.1681 -0.2933
28577W        W44471   6.487   8.144  12.505  0.0262 -0.0752  0.0564
28578W        W44472   1.278  18.178   0.313 -0.0616  0.0475  0.3360
28579W        W44473   2.703   3.151   1.607  0.0444  0.1703  0.1803
28580W        W44474  17.399   5.007   0.067 -0.2885 -0.1915  0.0428
28581W        W44475  14.360   5.548  15.167 -0.1282  0.0755  0.1912
28582W        W44476  13.038   2.322   5.003 -0.0720 -0.0977 -0.1009
28583W        W44477   6.421   4.748  10.397 -0.1878 -0.0954  0.1828
28584W        W44478  13.344  16.976   0.830 -0.0570  0.0240  0.0835
28585W        W44479  17.100   7.851   1.514 -0.1573  0.0430  0.2919
28586W        W44480  11.418   7.793   5.391  0.0462 -0.1648 -0.0667
28587W        W44481  10.590   8.322  14.548  0.2136 -0.1512  0.1466
28588W        W44482  16.099  12.114  15.928 -0.0136  0.5048  0.1852
28589W        W44483  18.160   0.196   3.282  0.1264  0.2609  0.0217
28590W        W44484  10.878   2.908   1.970 -0.0156  0.0085  0.0908
28591W        W44485  11.474  16.549  12.203 -0.0244  0.1292  0.0756
28592W        W44486   8.226   0.106   1.607  0.2486 -0.1443 -0.0908
28593W        W44487   7.338   2.476   4.775  0.0449  0.2649  0.0053
28594W        W44488   2.691   2.503  10.921  0.0307 -0.3587 -0.3188
28595W        W44489  17.384  10.692  14.586 -0.2667 -0.0621 -0.0957
28596W        W44490  12.831   2.803   1.606  0.2870  0.0385 -0.1254
28597W        W44491  11.618  14.981  10.974 -0.3394 -0.3427  0.0605
28598W        W44492   7.962   8.487   6.177  0.0906  0.0781 -0.0254
28599W        W44493  13.335  10.362  10.169 -0.2101 -0.0798 -0.2133
28600W        W44494   0.036   6.566   4.180  0.1749  0.1556  0.1834
28601W        W44495   2.278   9.544  11.381 -0.1423  0.1321  0.1405
28602W        W44496  18.256   0.412   0.910  0.1997  0.2922  0.3133
28603W        W44497   1.053   9.081   0.837  0.0403 -0.0188 -0.2369
28604W        W44498  18.132  10.053  12.338  0.0281 -0.3188 -0.0407
28605W        W44499   9.529   4.672   4.777  0.5091  0.0772  0.0897
28606W        W44500  14.479   3.604   2.991  0.1353 -0.0603  0.5038
28607W        W44501  15.390  16.876  15.892  0.2123 -0.0313 -0.1987
28608W        W44502  17.297  13.176  12.913  0.0948  0.0137  0.0714
28609W        W44503   8.219  12.047  14.648 -0.1589  0.1408 -0.0883
28610W        W44504  16.264   7.020   1.003  0.0425  0.1711  0.2547
28611W        W44505   0.355   1.950   3.024  0.3581  0.2295 -0.0090
28612W        W44506   9.634   2.890   4.217  0.0590  0.0101 -0.2190
28613W        W44507   4.414   5.972   5.373 -0.1724 -0.1426  0.2044
28614W        W44508   6.781   0.795   0.920  0.0339 -0.1336  0.0581
28615W        W44509   8.791  11.752   5.082 -0.1455 -0.1297 -0.1012
28616W        W44510  10.317  11.095   3.635 -0.0678  0.0888 -0.0209
28617W        W44511   9.372  16.485  11.348  0.2039  0.1107 -0.1486
28618W        W44512   8.992  11.233  11.549  0.3877 -0.1833  0.2945
28619W        W44513   0.739   9.415   3.090 -0.0669 -0.1876  0.4870
28620W        W44514  13.324  11.333   4.771  0.0379  0.0015 -0.0729
28621W        W44515   7.000  10.673   0.850  0.2848 -0.1522 -0.2286
28622W        W44516   2.475   6.968   6.118  0.2356  0.2833 -0.0048
28623W        W44517   4.614   3.824  12.900  0.1529  0.1167  0.2449
28624W        W44518  16.524  17.749   2.190 -0.0409  0.0360  0.1970
28625W        W44519   5.460  14.893   1.943  0.1003 -0.1018  0.1665
28626W        W44520   5.012  12.550   3.335 -0.1521 -0.2100  0.1132
28627W        W44521   7.405  15.509   3.992  0.0983 -0.0414 -0.0446
28628W        W44522  15.728   5.773  15.594  0.3563 -0.0359 -0.1142
28629W        W44523  16.898   2.399  12.287 -0.2383  0.2731 -0.0576
28630W        W44524  16.256  13.341  11.356  0.0511  0.4242  0.0672
28631W        W44525   3.195   3.043   1.620  0.2405 -0.0828 -0.2420
28632W        W44526  18.330  14.741  15.537  0.1827  0.1352  0.0778
28633W        W44527  12.852  18.328  16.024  0.2234 -0.2948  0.0315
28634W        W44528   9.442  17.839   1.260 -0.3657  0.0516 -0.0273
28635W        W44529   5.229   4.361   4.720  0.2438 -0.0815 -0.1594
28636W        W44530  11.948   4.640   0.382 -0.2733  0.0075  0.2854
28637W        W44531  10.008   2.135  14.890  0.2476 -0.2749  0.1049
28638W        W44532  13.743  18.405  12.238 -0.1756  0.0185  0.3491
28639W        W44533  11.250  15.973   2.725  0.3051  0.0679 -0.1849
28640W        W44534   5.241   9.771   4.299  0.4814 -0.0394 -0.1840
28641W        W44535   2.437  11.281   1.522 -0.2350  0.1834 -0.0555
28642W        W44536  14.076  15.583  15.615 -0.0106  0.0153 -0.2614
28643W        W44537  15.904   6.982  12.634  0.2725  0.2515 -0.0640
28644W        W44538  11.523   9.280  14.176  0.3478 -0.0420  0.0786
28645W        W44539  16.878   7.978  15.788 -0.0898 -0.0955 -0.4066
28646W        W44540   1.001   7.319  14.078 -0.1105 -0.2192 -0.1188
28647W        W44541  10.700   6.099   1.822 -0.3256  0.0929  0.1087
28648W        W44542  14.507   6.667   1.545  0.2062 -0.3038  0.2722
28649W        W44543   6.055   4.083   4.566 -0.0353  0.0415  0.1331
28650W        W44544   2.901  15.693   0.510 -0.2538 -0.0395 -0.0979
28651W        W44545   8.165   4.739  15.159 -0.1169 -0.1116  0.0533
28652W        W44546   1.017  17.234   4.356  0.3863 -0.0771  0.0288
28653W        W44547  16.086  15.573   1.300 -0.2997 -0.0562 -0.0455
28654W        W44548  11.112   1.500   1.047  0.1749  0.1531 -0.4598
28655W        W44549   7.554  17.412   1.130  0.0501  0.0741 -0.2677
28656W        W44550  11.094  16.209  11.950  0.3360 -0.2237  0.3092
28657W        W44551   5.854   8.504   3.380 -0.2168 -0.1027 -0.0180
28658W        W44552  10.930   2.932   3.825 -0.1538  0.0259 -0.1378
28659W        W44553  14.771  16.868   2.208  0.0816 -0.0756  0.0182
28660W        W44554   7.184   7.593  12.470  0.1163 -0.0841 -0.0599
28661W        W44555   4.019  11.888  15.299  0.0060 -0.1820 -0.2470
28662W        W44556  11.506  18.373  15.168  0.0395  0.0100 -0.0003
28663W        W44557   6.688   2.072  13.330  0.1117  0.0299  0.0752
28664W        W44558   0.067   0.365   0.080  0.3714 -0.1302 -0.0624
28665W        W44559   6.903   2.325  14.300 -0.0026  0.0050 -0.1726
28666W        W44560   3.325  17.558   1.832  0.0945  0.1024 -0.4301
28667W        W44561   1.848   0.522   5.609  0.0442 -0.3043 -0.4353
28668W        W44562  11.816  18.016   3.177 -0.0294 -0.1630  0.0357
28669W        W44563   6.031   4.680  12.735  0.1168 -0.2678 -0.1970
28670W        W44564  10.970  10.074   5.619  0.2081 -0.0736  0.2949
28671W        W44565  17.526  17.613   6.159  0.0682 -0.2390 -0.0709
28672W        W44566  10.269  13.885  13.137 -0.1663 -0.0105  0.1324
28673W        W44567   5.957   8.417   2.845 -0.2639  0.1181 -0.2360
28674W        W44568  11.220   8.589   0.523 -0.2933  0.2690  0.2057
28675W        W44569   8.280  15.802   5.040  0.1304  0.2662  0.1077
28676W        W44570  18.317  16.995   4.894 -0.0244  0.0499 -0.3514
28677W        W44571   4.426   0.054   5.522 -0.2925  0.0988  0.2574
28678W        W44572  10.419  13.071  13.635  0.1086  0.1505 -0.0769
28679W        W44573   1.272   8.704   1.129 -0.2566  0.1210  0.0531
28680W        W44574  11.452   8.701   3.306  0.1538  0.0185  0.1329
28681W        W44575  11.562  10.835  12.892 -0.3848 -0.0648  0.0905
28682W        W44576  14.136   5.100  15.187  0.1202 -0.0936  0.2733
28683W        W44577   6.337   0.613  10.062 -0.1005  0.4584 -0.0176
28684W        W44578   7.353  10.385   0.665  0.1038  0.0703 -0.3101
28685W        W44579  15.576  16.417   1.839 -0.2301 -0.0213 -0.1572
28686W        W44580  10.478  10.235  15.242  0.3546 -0.2983 -0.0558
28687W        W44581   3.378   6.496   1.238  0.3579  0.2723 -0.4610
28688W        W44582   2.834   3.484   5.969  0.2683 -0.2635  0.0150
28689W        W44583  12.939   0.844  15.361  0.0225  0.0829 -0.0563
28690W        W44584   6.198   0.202   1.363  0.1575 -0.1620 -0.0585
28691W        W44585   2.466  13.341   5.111  0.2568  0.0714 -0.2715
28692W        W44586   7.048  18.031   3.684  0.1830  0.0980  0.3962
28693W        W44587   7.146   2.652   2.094  0.1182 -0.0366  0.2919
28694W        W44588   9.604   8.070  12.221 -0.1704 -0.2254  0.0162
28695W        W44589  15.221   5.621  15.755  0.2120 -0.0071 -0.0198
28696W        W44590  10.184  11.997  12.304  0.0329 -0.4371  0.3006
28697W        W44591  14.832   9.286  15.187  0.1347  0.1060  0.0707
28698W        W44592  13.392  11.258   4.322  0.2059  0.0318 -0.0698
28699W        W44593   1.481   6.200  15.487  0.3739 -0.2642  0.2396
28700W        W44594  15.996  14.100  15.114  0.5113  0.0017  0.1147
28701W        W44595   0.329   0.995  15.589 -0.0328 -0.0669  0.0876
28702W        W44596  13.079   9.797  16.052 -0.0588 -0.2046  0.2315
28703W        W44597  11.195  11.197   1.636 -0.0972  0.0481  0.1169
28704W        W44598  17.079   3.624   0.520 -0.3109 -0.0361  0.2470
28705W        W44599  11.355   4.557  11.667  0.3853  0.3663 -0.4356
28706W        W44600   3.259   3.559   4.812  0.2474  0.1892 -0.0550
28707W        W44601   7.154  15.324  12.911 -0.0336 -0.0202 -0.1112
28708W        W44602  17.536  14.226   0.502 -0.0546 -0.2001  0.2419
28709W        W44603  16.524  15.601   4.058 -0.0627 -0.3389  0.2691
28710W        W44604   4.288  12.501  15.743 -0.0832 -0.1338 -0.0082
28711W        W44605  10.476  11.466  12.436 -0.4667 -0.0214 -0.0721
28712W        W44606  11.156  14.772  12.395  0.1378 -0.2025 -0.3772
28713W        W44607   8.987   2.305   2.099  0.0593 -0.1416  0.0853
28714W        W44608  13.259   1.274  14.441  0.0153  0.2079  0.0215
28715W        W44609  16.609   4.283   4.920  0.0208  0.1176 -0.2260
28716W        W44610  10.215   7.338  10.808  0.0013  0.0262  0.2482
28717W        W44611  15.564  14.231   0.555 -0.1452  0.3436 -0.0807
28718W        W44612   8.316  15.111   4.579  0.0491  0.0585 -0.1818
28719W        W44613   7.754   6.710   0.107 -0.0138  0.4550  0.0955
28720W        W44614   7.703   9.966   0.679 -0.0032  0.0772  0.1475
28721W        W44615   7.223   5.642   0.892  0.0458 -0.1968 -0.1320
28722W        W44616   6.310   1.183   3.722 -0.0197 -0.0117  0.0702
28723W        W44617  17.129  13.678  11.362 -0.2365 -0.0099 -0.1326
28724W        W44618   4.080   8.660  13.459 -0.0129  0.0869 -0.5174
28725W        W44619   8.931  17.503   2.028  0.2583 -0.1246  0.0567
28726W        W44620   2.203   8.648   1.063  0.0362 -0.0331 -0.5986
28727W        W44621   9.364  11.034   5.144 -0.2751  0.0674  0.0677
28728W        W44622   5.698   9.712  12.155 -0.2352  0.1312  0.0128
28729W        W44623   1.361   7.086  14.537  0.1566  0.2145  0.1045
28730W        W44624  17.753   5.960  14.397 -0.2641 -0.0038 -0.0590
28731W        W44625   9.936  13.251  11.932 -0.0343  0.1591  0.3169
28732W        W44626   7.928   2.816   3.103  0.3439 -0.0212  0.0177
28733W        W44627  17.453  15.872   1.133 -0.0555  0.1319 -0.1880
28734W        W44628   8.625   6.223  10.915 -0.5365 -0.0156 -0.0731
28735W        W44629   3.767   2.297  13.393  0.4086  0.0898 -0.2659
28736W        W44630  18.366   8.572  15.163  0.0044 -0.2494  0.1178
28737W        W44631  15.582  10.710   2.524 -0.1137 -0.1355  0.0228
28738W        W44632   2.375  12.603   1.729 -0.0935 -0.0080  0.1693
28739W        W44633   8.848   2.913  15.895 -0.0032  0.0390 -0.2481
28740W        W44634   5.944   0.122   5.312  0.0323 -0.0896 -0.1658
28741W        W44635   0.656   5.430   2.600 -0.1766  0.2028  0.2832
28742W        W44636  17.226  17.272   1.197 -0.0145  0.1168 -0.0471
28743W        W44637   2.258  12.183   3.529  0.0564 -0.1446 -0.0351
28744W        W44638  10.267   6.785   0.378  0.1548  0.1953  0.3204
28745W        W44639   8.052   6.985  11.757 -0.1183  0.2408  0.1169
28746W        W44640   3.264  11.553   0.961 -0.1395 -0.1338 -0.4416
28747W        W44641   5.116   8.171   0.111 -0.0259  0.2192  0.0553
28748W        W44642  10.351  10.628  11.899  0.0671 -0.0458  0.0911
28749W        W44643   9.110   8.854   4.639 -0.2593  0.2986  0.1284
28750W        W44644  12.623   5.161  13.040  0.0310 -0.3370 -0.0237
28751W        W44645   2.011  14.692  14.905 -0.0393 -0.0820  0.4401
28752W        W44646  18.179   5.590  14.446  0.0575  0.1678 -0.0424
28753W        W44647   0.555  14.497  11.614  0.2486 -0.0212 -0.0169
28754W        W44648   5.556   4.010   3.317 -0.4043 -0.0064 -0.2663
28755W        W44649  11.690   4.142  15.872 -0.1459  0.2384 -0.3024
28756W        W44650   2.918   8.977  12.896 -0.1045  0.1024  0.0002
28757W        W44651   2.945  18.249  16.000  0.3167 -0.0744 -0.0557
28758W        W44652   0.195   6.059   4.289  0.4349 -0.3688 -0.3110
28759W        W44653   0.252   7.756  15.404 -0.2097  0.0880 -0.0298
28760W        W44654  14.521   0.524   5.603 -0.1743 -0.4066  0.4175
28761W        W44655  13.708   3.536  13.708  0.1668 -0.0443  0.2323
28762W        W44656  15.993   8.483  12.234  0.0956  0.2597  0.1213
28763W        W44657   2.425   8.903  12.730 -0.2880  0.0338 -0.1562
28764W        W44658  16.701  12.257   5.199 -0.2352  0.1773  0.1788
28765W        W44659   8.614   7.532   5.362  0.1260  0.1225  0.1357
28766W        W44660  17.897  16.969   1.384  0.6559  0.0910 -0.1756
28767W        W44661   8.638   7.286   1.301  0.0824  0.1716 -0.0772
28768W        W44662   7.146   1.129  14.997  0.3391 -0.2540  0.4148
28769W        W44663   8.258   4.393   0.672  0.0840 -0.2242 -0.0920
28770W        W44664  12.969   8.007   3.297 -0.2791 -0.1420  0.1498
28771W        W44665   1.682   7.129   2.353  0.1008 -0.0382  0.2393
28772W        W44666   9.711   2.771   1.893 -0.2756  0.3895 -0.1385
28773W        W44667   9.164  18.464  15.130 -0.0513  0.1513  0.4254
28774W        W44668   7.566  16.563  13.504 -0.0007 -0.3184  0.0427
28775W        W44669  15.266  13.625  15.160 -0.1127  0.1159  0.0033
28776W        W44670   7.817  14.040   4.499  0.1011 -0.1319  0.0386
28777W        W44671   2.089  12.442  10.977  0.4397  0.1865  0.2994
28778W        W44672  18.052   2.735   4.606  0.2737  0.0544 -0.1248
28779W        W44673  11.366  14.688   0.915 -0.0799  0.3102 -0.1256
28780W        W44674  10.251  15.057   3.464 -0.3367  0.1182  0.3518
28781W        W44675   6.247  14.737   2.623 -0.1532 -0.1583 -0.4840
28782W        W44676  14.175  15.165  13.390 -0.0678 -0.2098 -0.6276
28783W        W44677  12.619  17.387  13.146 -0.2979 -0.1802  0.3628
28784W        W44678  17.316   0.494  13.722  0.1753 -0.1006  0.0793
28785W        W44679  16.063   7.677   3.564  0.1247  0.1938  0.1535
28786W        W44680   1.221   5.681  12.428  0.0178 -0.1539  0.1374
28787W        W44681   2.454   5.031   2.573 -0.0377 -0.3080 -0.2298
28788W        W44682   3.305   5.087  14.174 -0.2718 -0.1736 -0.1730
28789W        W44683   3.681   0.698  10.393  0.1377  0.0792 -0.4164
28790W        W44684   0.015  17.471   2.784 -0.2494  0.1399 -0.0809
28791W        W44685   2.567  16.103  14.097  0.2226 -0.3253  0.0953
28792W        W44686   1.037  18.016   1.539 -0.0473 -0.3067 -0.1933
28793W        W44687   0.549  12.176  15.341  0.0054 -0.1519  0.0545
28794W        W44688  12.671   9.594   2.888  0.0140  0.2388 -0.0505
28795W        W44689   4.824   0.571   1.325 -0.0522 -0.4635 -0.1230
28796W        W44690   5.754  17.098   0.635 -0.2313  0.0770 -0.2659
28797W        W44691  12.263  12.897   0.103  0.2064 -0.2329 -0.0384
28798W        W44692   0.562   7.464   5.754 -0.1632  0.0515 -0.2901
28799W        W44693  11.553   8.646  13.909  0.3681  0.1698  0.0344
28800W        W44694   8.847   8.379   3.840 -0.0903 -0.0422 -0.1689
28801W        W44695   6.198  13.679   5.172  0.0938 -0.1347  0.1027
28802W        W44696   3.668  16.411   3.799 -0.0814 -0.0989  0.0407
28803W        W44697  12.921   7.345  14.620 -0.0018  0.4298 -0.4442
28804W        W44698   5.816  10.006  14.145  0.2324 -0.1364 -0.0343
28805W        W44699  16.678   3.366  12.424  0.1377 -0.3551  0.0149
28806W        W44700   6.781   7.714   3.921 -0.0099 -0.2467 -0.1162
28807W        W44701   1.082   1.799  13.230  0.2658  0.1547  0.1067
28808W        W44702   3.713  15.938   3.983  0.0167 -0.0576 -0.1351
28809W        W44703   6.308   7.336   2.359 -0.0552  0.0942  0.0905
28810W        W44704  15.949  15.037   0.572 -0.0288 -0.1352  0.0490
28811W        W44705  15.383  12.615  16.019  0.1277 -0.0059 -0.0125
28812W        W44706   1.450  11.951  14.795  0.0918 -0.0819  0.1762
28813W        W44707   7.072   1.778  13.161  0.0217 -0.1484  0.0205
28814W        W44708  11.027   2.391  13.265  0.1923 -0.2373 -0.0072
28815W        W44709   1.795   3.993   5.430 -0.0347 -0.4470 -0.0664
28816W        W44710   2.609  11.761   2.290 -0.0621 -0.3321  0.0349
28817W        W44711  16.207  17.344   2.544 -0.0963 -0.2229  0.1804
28818W        W44712   9.639   8.029  13.697 -0.0858 -0.2187  0.2156
28819W        W44713   7.721   1.940   0.034  0.1016  0.0550  0.1277
28820W        W44714  17.073   3.854  13.514  0.0624 -0.1759 -0.0223
28821W        W44715   1.569  10.641   3.004  0.0018  0.0926 -0.3001
28822W        W44716  14.366   0.120  11.429 -0.0802  0.1084 -0.1398
28823W        W44717   3.478  12.160  14.337  0.1213  0.1803 -0.0824
28824W        W44718  14.377  16.247   1.562  0.1102  0.3493  0.1517
28825W        W44719   1.105  15.916  15.960  0.0878  0.1787  0.2413
28826W        W44720   9.472  10.018  14.381  0.1676 -0.0866  0.1880
28827W        W44721  17.401   9.395  11.198  0.0213 -0.2493 -0.0582
28828W        W44722   0.417   0.198  15.125 -0.1533 -0.0287  0.1173
28829W        W44723   2.972  14.295   1.496 -0.0459 -0.2363  0.0881
28830W        W44724  14.817   2.470   2.359 -0.0447 -0.0507 -0.0510
28831W        W44725   0.806   7.754   2.227  0.1061 -0.0046  0.0737
28832W        W44726  17.080   7.801  14.821 -0.3106 -0.2860  0.1400
28833W        W44727  10.409   1.418  14.225  0.2455  0.0921  0.2411
28834W        W44728  15.296  12.407   1.917 -0.3853 -0.3922 -0.0754
28835W        W44729   2.068   2.729  12.531 -0.2135 -0.0088  0.0959
28836W        W44730  17.064  18.427   2.876  0.1568  0.2309  0.3782
28837W        W44731   9.200  13.201   5.751 -0.0257 -0.0651 -0.3541
28838W        W44732  12.736   2.439  14.861 -0.1434  0.2486 -0.0072
28839W        W44733  14.767   4.046  15.943 -0.0976 -0.1686 -0.2518
28840W        W44734  16.429  10.753  15.453  0.1015  0.0671  0.3400
28841W        W44735   6.448  13.540  11.055  0.0673  0.1389 -0.3320
28842W        W44736  12.982   3.633   1.282 -0.0809 -0.3486  0.2439
28843W        W44737  12.399   6.038   5.201 -0.0819  0.0967  0.0294
28844W        W44738  13.361  12.255  15.380  0.0099 -0.0537  0.0460
28845W        W44739   3.347   3.901   0.076 -0.1158 -0.1698  0.2149
28846W        W44740   2.292  11.047   1.070 -0.3451  0.1861  0.0121
28847W        W44741  12.733  17.560   1.269  0.0660 -0.0106 -0.1318
28848W        W44742  11.577  12.888  13.845  0.0079  0.0300  0.1018
28849W        W44743  11.309   6.902   3.238 -0.0658 -0.2223 -0.2689
28850W        W44744  17.697  18.056  12.615 -0.1385  0.2739 -0.0171
28851W        W44745  16.282   6.243   3.674 -0.2186 -0.2233 -0.3749
28852W        W44746   4.734  12.133  13.313  0.0496  0.1065 -0.2216
28853W        W44747   8.254  17.872   4.057  0.1674  0.1965 -0.0032
28854W        W44748  11.879   1.398  14.234 -0.1102  0.0923  0.1519
28855W        W44749  10.921   1.555  14.326 -0.1418  0.2846 -0.0881
28856W        W44750  17.382   3.023   0.060 -0.0110  0.1415  0.1567
28857W        W44751   9.935   7.057   1.247 -0.1500 -0.0165 -0.1505
28858W        W44752  17.565   2.401   1.618  0.3694  0.2112  0.0192
28859W        W44753   4.460   8.710  11.705  0.1036 -0.1579 -0.5465
28860W        W44754   2.505  14.984  12.019  0.3360 -0.0573  0.1570
28861W        W44755   9.375  13.945   3.277  0.1196  0.1709 -0.1690
28862W        W44756   0.313   8.598   2.519 -0.0443  0.1830  0.2726
28863W        W44757   7.445   2.710   3.228 -0.3030 -0.2443 -0.0503
28864W        W44758  13.577  11.657   5.159 -0.2369  0.0078  0.1321
28865W        W44759   4.160  17.453   4.938  0.1815 -0.0553 -0.0210
28866W        W44760  11.208   6.652  12.542 -0.0330  0.0738 -0.1148
28867W        W44761   8.375  13.667  13.836 -0.0531  0.0289 -0.1457
28868W        W44762  10.711   7.648   0.484  0.0142  0.2842  0.0670
28869W        W44763  10.454   5.134   3.733  0.1279 -0.0164  0.1285
28870W        W44764   1.924   5.897   4.109  0.0830 -0.1152 -0.1227
28871W        W44765   6.047  17.880   4.774 -0.2354 -0.0449  0.1483
28872W        W44766  13.957   5.608   3.510  0.1891  0.0325 -0.0936
28873W        W44767   9.599   6.511  12.304 -0.3153 -0.0653 -0.1700
28874W        W44768  13.978   5.269  11.740 -0.0262  0.2036  0.1799
28875W        W44769  13.542   5.417   0.910  0.1940  0.0460 -0.3444
28876W        W44770  15.957   3.255   6.617 -0.1144  0.0933  0.0759
28877W        W44771   8.916  11.623   2.762  0.1898  0.2079 -0.3641
28878W        W44772  11.771  13.390  13.517  0.0786  0.1463 -0.1641
28879W        W44773  14.949  11.799   4.304 -0.1201  0.2586  0.3624
28880W        W44774   9.482  17.491  14.793 -0.0185  0.3719  0.1557
28881W        W44775  14.860  18.378  15.051 -0.0185 -0.0104  0.2383
28882W        W44776   0.468  11.811  12.948  0.3146 -0.0675  0.1771
28883W        W44777   1.042   0.904  10.957  0.1811  0.2651 -0.0051
28884W        W44778   7.475   6.803   1.871  0.0512  0.0072  0.2007
28885W        W44779  12.546  13.128  12.870 -0.0220 -0.0258 -0.3396
28886W        W44780   8.347  14.698   2.855  0.0044  0.0159 -0.1065
28887W        W44781  13.095  17.826  11.347  0.0020  0.0774 -0.1115
28888W        W44782   4.069  10.739   5.329  0.0955 -0.0454  0.0032
28889W        W44783   3.591  13.255  12.071  0.0163  0.0281 -0.0470
28890W        W44784   0.554  11.124   4.395 -0.2049 -0.0615 -0.1561
28891W        W44785  18.174   5.275  13.063  0.0390 -0.2073  0.1000
28892W        W44786   4.960  11.603  11.490 -0.0527  0.2034 -0.1866
28893W        W44787  14.465   0.280  14.973  0.0816 -0.3069  0.0555
28894W        W44788   3.883  12.463  15.412  0.0431  0.1108 -0.1109
28895W        W44789  15.316   7.191   6.233  0.0748  0.1146  0.1336
28896W        W44790   7.110   9.428   3.044  0.0106 -0.2048 -0.0371
28897W        W44791  15.222  13.487  11.051 -0.3018 -0.0012 -0.1800
28898W        W44792   8.615  13.173   1.039  0.1794  0.0107 -0.0278
28899W        W44793  10.885   7.689  13.166 -0.0170 -0.0957  0.4282
28900W        W44794   2.077  11.761   3.164  0.0295 -0.0923 -0.2142
28901W        W44795  13.927   8.750  14.023  0.2319 -0.1164  0.1701
28902W        W44796   5.264   2.968  14.122 -0.3460 -0.1506  0.1168
28903W        W44797  15.904   0.309  13.521 -0.4237  0.1119  0.0721
28904W        W44798  14.062   2.042   3.294 -0.1779  0.0995  0.0099
28905W        W44799  15.151  13.660  14.337 -0.2644  0.2110 -0.2775
28906W        W44800   5.017  14.265  12.856  0.1611  0.2385 -0.1145
28907W        W44801  18.295  17.965  13.935  0.0672 -0.0411 -0.0920
28908W        W44802  16.313   3.530   5.563 -0.2538  0.1430 -0.0231
28909W        W44803   0.098  13.438  14.308  0.0751 -0.0143  0.1325
28910W        W44804   2.898   3.403   2.822  0.1847  0.1177 -0.4043
28911W        W44805   2.349  11.582   1.912 -0.0326  0.0400 -0.2193
28912W        W44806  16.972   0.060  15.776  0.1145 -0.1220  0.1922
28913W        W44807  13.350   4.346  14.206 -0.2684 -0.2356 -0.1723
28914W        W44808  15.555   3.275  13.125 -0.0330  0.0686  0.0551
28915W        W44809  14.086   5.005  14.244  0.1271 -0.1523  0.0366
28916W        W44810  18.011  16.480   4.604 -0.2921 -0.0097 -0.3375
28917W        W44811  11.084   2.897   4.369 -0.1133 -0.0507 -0.1022
28918W        W44812   0.942  15.011   1.988 -0.1519 -0.5309  0.0839
28919W        W44813  16.635   0.786   2.107 -0.5376  0.3310  0.0302
28920W        W44814   4.926   7.926   3.376 -0.3238  0.4628  0.0311
28921W        W44815  13.427  17.522   0.940 -0.0105  0.3019  0.0468
28922W        W44816  13.085   0.762  11.364  0.1303  0.0606 -0.1823
28923W        W44817   1.166  13.412  14.183 -0.2298  0.2209  0.2726
28924W        W44818   1.201   5.670   1.733 -0.1120 -0.0472 -0.2198
28925W        W44819   7.002  12.432  15.700 -0.0049  0.2604  0.0522
28926W        W44820   1.542  18.276   4.166  0.2416  0.0739 -0.2452
28927W        W44821   6.836   3.838  15.010 -0.1970 -0.0292  0.2301
28928W        W44822  16.292   1.492   5.368  0.1264 -0.1022 -0.1033
28929W        W44823   2.971  12.157  14.113 -0.1563  0.1926  0.2720
28930W        W44824  17.518   4.784   1.691  0.0282 -0.3185 -0.1806
28931W        W44825   8.021   2.162  15.055 -0.0399 -0.1689  0.0253
28932W        W44826  10.837   4.768  15.121 -0.2099  0.0205  0.0508
28933W        W44827  15.869   5.902   1.505  0.1044  0.0242  0.0903
28934W        W44828   1.303  17.294   0.549 -0.1632  0.1015 -0.0288
28935W        W44829  10.584   5.103   2.005 -0.2380  0.0092 -0.0159
28936W        W44830  12.632   9.222   1.770  0.2099 -0.1257  0.0543
28937W        W44831  13.857   9.966  15.286  0.1038  0.1344  0.1385
28938W        W44832  16.521   6.064  14.266 -0.2820 -0.0332 -0.0729
28939W        W44833  15.065  13.051  15.951 -0.1371  0.1142  0.0359
28940W        W44834   3.951  17.795  12.459 -0.1696 -0.0263 -0.1365
28941W        W44835  17.082  14.347   4.639 -0.2967  0.0050 -0.1709
28942W        W44836   0.358   2.150   2.464 -0.0751  0.0267 -0.0627
28943W        W44837   3.989  15.940   3.567 -0.0353 -0.1289  0.4328
28944W        W44838  12.733  15.102  14.065 -0.3786 -0.0557  0.0912
28945W        W44839  13.494   0.068   3.464  0.1846  0.3461 -0.0028
28946W        W44840   4.526  17.198  10.821  0.2065 -0.2205 -0.1102
28947W        W44841   4.444   5.108   0.294 -0.2064  0.0001 -0.4569
28948W        W44842   7.977  11.224   4.574 -0.0845 -0.3615 -0.0475
28949W        W44843   0.272  15.700   1.307 -0.0063  0.3051  0.0426
28950W        W44844  11.548  13.482   1.504  0.0688 -0.1302  0.0913
28951W        W44845   2.140  14.029  14.648 -0.0090  0.0811 -0.0299
28952W        W44846   9.361  13.379  14.387 -0.2625  0.1700  0.0602
28953W        W44847   8.837  13.898  12.493 -0.0186 -0.1285  0.1942
28954W        W44848   2.492   8.069  11.309  0.2660 -0.2766  0.2217
28955W        W44849  11.080  15.806  15.505  0.0628 -0.0316 -0.2108
28956W        W44850   1.516  11.871   3.865  0.0797  0.0485  0.2207
28957W        W44851  17.067  12.641   4.946 -0.4240  0.2599 -0.1951
28958W        W44852   8.888   3.289  10.860 -0.0302  0.2434  0.0076
28959W        W44853   5.229   7.040  11.478 -0.0626 -0.3407  0.0897
28960W        W44854   2.168   6.867   0.347 -0.1665 -0.1789  0.0244
28961W        W44855  10.578   6.213   4.966 -0.1954 -0.3740  0.1701
28962W        W44856   5.229  14.191  11.826 -0.0807  0.2390  0.1111
28963W        W44857   1.975  17.477   0.096 -0.1359  0.2898  0.1008
28964W        W44858   9.936  18.348   5.283 -0.1899  0.2974 -0.2271
28965W        W44859  14.941  17.989   0.624 -0.0521 -0.0576  0.1993
28966W        W44860  16.671   1.665   4.479  0.2288 -0.0984  0.2732
28967W        W44861  14.882  14.290  15.534  0.0906  0.0082 -0.3062
28968W        W44862   5.554   3.558   2.629 -0.0536 -0.0264 -0.0551
28969W        W44863  11.711   5.759  11.483  0.1456  0.0990 -0.0348
28970W        W44864   5.211   9.911  13.192  0.1623 -0.1731 -0.1491
28971W        W44865   9.214   1.096  11.982 -0.1007 -0.3427 -0.0509
28972W        W44866  14.805  17.777  14.420  0.3306 -0.0038 -0.0067
28973W        W44867  15.410   8.105  15.292 -0.0679 -0.1537  0.1612
28974W        W44868  12.907  17.359   0.795  0.2411 -0.1003  0.0120
28975W        W44869  15.839  14.161   2.760  0.0663  0.0825  0.0811
28976W        W44870  12.445  15.897  14.046  0.0362 -0.1457 -0.0748
28977W        W44871   8.261  13.541  12.889  0.1388  0.1107 -0.0011
28978W        W44872   8.024   7.868  13.402 -0.2168 -0.0278  0.0301
28979W        W44873  10.996  12.625  13.045  0.0336 -0.1047 -0.2020
28980W        W44874   3.949  14.719  16.080 -0.1283 -0.1590 -0.2358
28981W        W44875  12.085   0.981  14.013 -0.2204 -0.1034 -0.1267
28982W        W44876   9.194  10.256  15.358  0.1170  0.0642  0.2171
28983W        W44877   1.379   7.384   1.544 -0.1117 -0.1173  0.1424
28984W        W44878   1.053  13.932   6.061  0.1376 -0.0251 -0.0106
28985W        W44879   0.369   5.203   5.221  0.0960  0.2696  0.0804
28986W        W44880   4.432   7.745   3.287  0.3897 -0.1064 -0.2032
28987W        W44881  16.696  17.382   4.763 -0.0865  0.2483 -0.1991
28988W        W44882   4.524  17.341  14.185 -0.0526  0.1901 -0.3199
28989W        W44883   3.918   5.436  15.712 -0.3770  0.1648  0.0596
28990W        W44884   1.665   0.567  13.623  0.2286  0.2436 -0.0800
28991W        W44885  12.305  15.416   4.340  0.1641 -0.1160 -0.2835
28992W        W44886   3.376   4.385   1.662 -0.0907  0.0241  0.0400
28993W        W44887   5.139   6.525  12.200 -0.0925  0.2040  0.1062
28994W        W44888   9.672  14.490  11.700 -0.0068 -0.3950 -0.0652
28995W        W44889  16.327   9.744   1.641  0.3212 -0.2252 -0.2482
28996W        W44890   0.956   6.503  11.749 -0.0643 -0.1041 -0.0082
28997W        W44891   0.936  11.764  11.351 -0.1015 -0.1698 -0.0890
28998W        W44892   7.279  14.392   2.015  0.1910 -0.1168  0.0728
28999W        W44893  14.500   9.192   3.206  0.1145 -0.0712 -0.1198
29000W        W44894   9.716   8.716   1.051  0.2299 -0.2985  0.2811
29001W        W44895  17.448   6.571  12.703  0.1240 -0.1979 -0.2302
29002W        W44896  15.557  11.262   1.563 -0.2356 -0.2232 -0.1809
29003W        W44897   2.509   6.529   3.774  0.0362  0.1854  0.1407
29004W        W44898  14.293  15.403   4.872  0.0614 -0.1680  0.0925
29005W        W44899   0.344   0.390   0.553 -0.0187 -0.0503 -0.1368
29006W        W44900   2.988   0.571  11.003 -0.0251 -0.0536 -0.3100
29007W        W44901   7.916   6.340  13.377  0.0942  0.1964  0.0027
29008W        W44902  11.830   7.263   3.008  0.1722  0.0735 -0.0501
29009W        W44903  18.384   8.050  14.107 -0.2978 -0.1781  0.0360
29010W        W44904  14.622   9.141  13.397 -0.2480 -0.0551 -0.1466
29011W        W44905   7.525   3.238   3.267 -0.2769 -0.1845  0.0648
29012W        W44906  10.176   0.315  11.023  0.0511 -0.0344  0.0847
29013W        W44907   6.191  10.891   0.358  0.0401  0.1040 -0.1101
29014W        W44908  12.917   8.336   1.529  0.0442 -0.2066 -0.1157
29015W        W44909   7.524   4.590  13.272 -0.4119  0.0636  0.3395
29016W        W44910   9.988  17.108   5.591 -0.3363 -0.0535  0.0170
29017W        W44911   6.218  11.587   4.731 -0.1401 -0.1813 -0.0240
29018W        W44912   9.732  11.276   3.109  0.0553  0.1612 -0.3536
29019W        W44913   6.883  14.440  15.224  0.3998  0.0819  0.0694
29020W        W44914  16.582   8.164   4.205 -0.3221 -0.5880  0.1173
29021W        W44915  17.424   7.344  11.301 -0.0450  0.1503 -0.1941
29022W        W44916   9.571   6.316   2.404 -0.0415 -0.3757 -0.1437
29023W        W44917   9.781  14.518  13.275 -0.1182 -0.0022  0.2883
29024W        W44918  16.380  15.246  12.525 -0.0129  0.1260  0.1537
29025W        W44919   0.961  17.446   3.932 -0.0232  0.1126 -0.5158
29026W        W44920   0.793   6.574  15.621 -0.0862 -0.0983 -0.1701
29027W        W44921  13.728  13.906  12.679  0.1226  0.0047  0.0307
29028W        W44922  10.728   9.803   3.486 -0.2042  0.0577  0.0973
29029W        W44923   7.170  14.554  12.927 -0.0347  0.1875 -0.1402
29030W        W44924  17.771  16.747   4.140  0.0799 -0.1650  0.0988
29031W        W44925   1.365  10.122   1.493  0.2483  0.1711  0.1837
29032W        W44926  10.708  13.919  14.308 -0.0460 -0.0360  0.1255
29033W        W44927  18.467  10.461   2.560 -0.3109 -0.0828  0.1839
29034W        W44928  16.747   9.517  11.681  0.1892 -0.1902  0.0663
29035W        W44929  10.011   1.834   3.529 -0.0524  0.2825  0.0656
29036W        W44930   4.218   2.722   2.312 -0.1518 -0.1222 -0.3117
29037W        W44931   0.440   3.419   3.126  0.4494  0.3768 -0.0294
29038W        W44932   6.382   2.041   0.836  0.0373  0.0543  0.2477
29039W        W44933  14.222  13.352  10.822  0.2037 -0.0832  0.0922
29040W        W44934  14.413   2.370  14.364  0.0734  0.0722  0.0865
29041W        W44935   8.613   8.687   2.222 -0.0749 -0.3860 -0.1375
29042W        W44936   1.720   7.859   5.686  0.1839 -0.0817  0.2446
29043W        W44937  12.920  15.018  12.669  0.0386  0.1259  0.0003
29044W        W44938  12.005   8.959  15.257 -0.1080 -0.0875  0.0728
29045W        W44939   7.467  10.234  10.720  0.0951 -0.1732  0.1326
29046W        W44940  16.256   5.269  15.178  0.2017  0.0060 -0.1942
29047W        W44941   6.486  12.162  15.790 -0.0348  0.1525  0.0027
29048W        W44942  12.689   2.161  10.950  0.2091  0.0040  0.0985
29049W        W44943  15.866   6.176  16.032  0.0559  0.1404  0.0518
29050W        W44944   4.351   5.284   2.990  0.5049  0.1399 -0.0016
29051W        W44945  15.106  12.956  14.272 -0.1413 -0.0780  0.0364
29052W        W44946   2.939   6.226  12.712 -0.1922  0.0617  0.1886
29053W        W44947   4.819  11.538   1.427 -0.0147 -0.3048 -0.0638
29054W        W44948  17.253  13.678  14.423  0.0531 -0.2111  0.1675
29055W        W44949  16.262   9.354  14.439  0.0207 -0.1882  0.2128
29056W        W44950  17.030  16.414  11.980 -0.0467 -0.3720 -0.1441
29057W        W44951   5.474   3.230   4.113  0.2229 -0.0055 -0.1270
29058W        W44952  17.428  12.603   3.680  0.1838 -0.1344 -0.4401
29059W        W44953   5.139  12.588  13.206 -0.2483  0.0780 -0.1841
29060W        W44954  15.966   9.610  11.960 -0.0616  0.1141 -0.2301
29061W        W44955  12.833  13.402   0.795 -0.0765 -0.2449  0.2229
29062W        W44956  14.243   0.393   5.195  0.2321 -0.4663 -0.0070
29063W        W44957  10.113   5.116  15.156  0.0975  0.0189 -0.0344
29064W        W44958   3.607  17.445   2.291  0.1228 -0.1099  0.0213
29065W        W44959  12.162  15.207  14.577 -0.3638  0.6382 -0.1732
29066W        W44960   5.197   1.634   4.122 -0.2240  0.0677 -0.0574
29067W        W44961   5.012   0.360   5.715 -0.2249  0.1279 -0.2876
29068W        W44962   2.407  15.614   4.021  0.1434  0.0357 -0.0412
29069W        W44963   6.647   1.948  14.045  0.1803 -0.3830  0.1046
29070W        W44964   0.515  14.089   0.536  0.0656  0.0535  0.1754
29071W        W44965   3.108   5.234  11.926 -0.2679  0.0814  0.2700
29072W        W44966   3.979  10.936  14.885 -0.1277 -0.1858  0.0189
29073W        W44967  15.932   9.386  14.859  0.1284  0.0693 -0.2693
29074W        W44968   4.257   8.270   3.326 -0.1278 -0.0450 -0.2620
29075W        W44969   0.922   5.197   3.241  0.0157  0.0564  0.1563
29076W        W44970   1.474   6.727   2.572  0.0787  0.0049 -0.1823
29077W        W44971   3.132   9.639  15.120  0.1654  0.4632 -0.0468
29078W        W44972   3.514   0.110  12.297  0.0095  0.2424  0.1662
29079W        W44973   6.787  15.100   4.700  0.0370  0.2089  0.2720
29080W        W44974   7.321   5.875  13.306  0.1837  0.2552  0.2303
29081W        W44975  11.166   9.992   5.140 -0.3572  0.0357  0.0164
29082W        W44976   8.058  14.858   2.433 -0.1344 -0.4119 -0.0298
29083W        W44977   0.312  13.156  11.830  0.1203 -0.1255  0.4579
29084W        W44978   2.952   9.469   4.554 -0.1847 -0.0883 -0.0794
29085W        W44979   9.374   6.876   4.455 -0.2065  0.0411 -0.1930
29086W        W44980  16.199  13.145   3.974  0.2746 -0.1538 -0.1161
29087W        W44981  12.900  16.671  11.767  0.0382  0.0434 -0.1329
29088W        W44982   4.389   9.627   3.093  0.2828 -0.1541 -0.0940
29089W        W44983   4.100  16.410   1.553 -0.3295 -0.0442  0.0921
29090W        W44984  15.868  13.692  12.835 -0.1253  0.2030  0.0260
29091W        W44985   8.265   6.750  11.277 -0.2079 -0.3828 -0.0147
29092W        W44986  17.465   8.252   4.220 -0.0918 -0.0136 -0.3079
29093W        W44987  13.602  13.259  15.769 -0.1716 -0.3595 -0.0362
29094W        W44988   2.446  16.970   4.691 -0.2937 -0.0349  0.1615
29095W        W44989   3.017  13.815  14.497  0.0477 -0.0217  0.0373
29096W        W44990  15.377   1.513  15.768  0.2146  0.2072  0.3797
29097W        W44991   5.228  16.396   4.491 -0.1191 -0.1079  0.0448
29098W        W44992  17.738  17.161  12.942 -0.0781  0.4325 -0.0533
29099W        W44993   6.292   2.376  11.167  0.0525  0.1601 -0.0615
29100W        W44994   4.336   2.038   1.342 -0.0261 -0.1667 -0.0022
29101W        W44995   9.653   2.212  14.477 -0.1233  0.1507  0.0211
29102W        W44996   3.703   2.470   4.428 -0.0424 -0.1021 -0.1403
29103W        W44997  17.803   6.626  13.127 -0.0405 -0.3293 -0.2029
29104W        W44998   4.495   4.217   2.496  0.1599  0.0213  0.3990
29105W        W44999  17.468   7.708   4.125 -0.0192  0.0669  0.0267
29106W        W45000  15.869   4.432   3.969 -0.3928  0.1182  0.1457
29107W        W45001  11.288  17.720   3.919  0.1511  0.1414  0.1535
29108W        W45002   0.703   4.502   2.381 -0.2773  0.1255  0.0588
29109W        W45003  15.567   9.890  12.070  0.0655 -0.1990  0.2272
29110W        W45004  12.132   8.946  11.801 -0.3270 -0.1899 -0.1844
29111W        W45005   2.511   9.944   1.778  0.2206  0.0974 -0.1286
29112W        W45006  12.829  14.367  10.110 -0.0315  0.3582 -0.0961
29113W        W45007   8.168   7.754   5.481 -0.0492 -0.3106 -0.0560
29114W        W45008   7.174   0.239   1.660  0.3407 -0.0449 -0.0762
29115W        W45009   4.865   2.371   1.205 -0.0929 -0.1503  0.4469
29116W        W45010  12.908  10.485   1.151  0.0258  0.1918  0.4355
29117W        W45011   1.807   1.670   4.264 -0.1533  0.0027 -0.0049
29118W        W45012   8.254  17.073  12.569  0.2953  0.0134  0.1788
29119W        W45013   7.501  14.868  13.204  0.2648  0.3394  0.2212
29120W        W45014  14.791   3.620  13.755 -0.0428 -0.1475  0.3399
29121W        W45015   3.955   2.517   3.482 -0.3133 -0.1713  0.2714
29122W        W45016   0.606   6.152   4.587  0.1553 -0.1626  0.1495
29123W        W45017   2.747  12.715   0.193  0.0009  0.4110 -0.0466
29124W        W45018  13.048  17.520   4.647 -0.0741 -0.0854  0.1196
29125W        W45019   9.247   4.721  10.888 -0.2756 -0.2395  0.1861
29126W        W45020   6.174  16.487   4.827 -0.0757  0.0921 -0.0096
29127W        W45021  12.329  11.222  15.328  0.1920 -0.3504 -0.3840
29128W        W45022   2.895   6.416  14.264  0.1180  0.1227  0.0088
29129W        W45023  15.337   2.963  15.205 -0.0153  0.3800  0.0913
29130W        W45024  16.756  10.748  13.133 -0.0610  0.0160 -0.2325
29131W        W45025  16.846   3.575  13.210  0.6904  0.1035  0.2513
29132W        W45026  10.261  15.040  13.473  0.2025  0.1925 -0.1471
29133W        W45027  11.104  17.145  15.357  0.1529  0.2231  0.1630
29134W        W45028   4.983   4.087  12.609  0.1507 -0.0169  0.0335
29135W        W45029   5.089  11.951  15.592  0.1255 -0.0997 -0.1777
29136W        W45030  17.943   8.741   6.003 -0.1226 -0.3182 -0.4065
29137W        W45031  15.283   9.309  15.994 -0.0990  0.1451 -0.1179
29138W        W45032  14.552   9.445  12.922 -0.0741 -0.1059  0.0013
29139W        W45033  10.195   9.102  12.927  0.2738  0.3888 -0.0751
29140W        W45034  10.305   0.563  15.245 -0.1612  0.1984 -0.1849
29141W        W45035  15.540  12.369  12.599  0.1695  0.1875 -0.0993
29142W        W45036   5.892  17.869  10.659  0.1353 -0.1502 -0.1578
29143W        W45037  17.668  10.216  15.708  0.0124  0.1234  0.1343
29144W        W45038  10.058  14.578  15.150 -0.0140 -0.1385  0.0007
29145W        W45039  14.839   4.999   0.894 -0.2250 -0.1619  0.1870
29146W        W45040   1.272   2.627  13.734  0.1447 -0.1365  0.1873
29147W        W45041  16.559   3.893   4.131 -0.3434 -0.3418  0.0821
29148W        W45042  10.183   0.046   3.392 -0.3057  0.2513 -0.3275
29149W        W45043   4.956   9.172  13.824 -0.2478 -0.1640 -0.0318
29150W        W45044   3.734   7.448   0.395  0.2300 -0.0117  0.1090
29151W        W45045  11.352  11.635   4.982 -0.1238 -0.4435  0.0481
29152W        W45046  17.143   9.678   2.714  0.0598  0.1901 -0.1145
29153W        W45047  13.862  14.566  14.112  0.0403 -0.1168 -0.1455
29154W        W45048  15.061   9.648   4.960  0.1017 -0.0418  0.3276
29155W        W45049   5.850  17.451   3.411 -0.2718  0.2087 -0.1291
29156W        W45050   3.426  11.851   5.565 -0.1181  0.2981 -0.2243
29157W        W45051   9.347   8.547  12.243  0.1904  0.0256  0.2090
29158W        W45052   5.191  14.037   5.194  0.2269 -0.3262  0.0699
29159W        W45053   3.508   9.383   3.649 -0.1668  0.0353 -0.1176
29160W        W45054  11.593  12.752  14.357  0.1281 -0.1482  0.0372
29161W        W45055  11.665  15.660   2.010  0.0551  0.1826  0.3912
29162W        W45056  11.568  10.849  12.439 -0.1701 -0.2801  0.2489
29163W        W45057   9.973   0.557   1.548  0.0506 -0.2585 -0.4075
29164W        W45058   3.127   1.918   4.336 -0.0479 -0.0413 -0.1966
29165W        W45059  11.065   9.700  11.160 -0.1385  0.0751  0.0678
29166W        W45060  11.679  13.992  12.481 -0.1956  0.3012 -0.1828
29167W        W45061   6.757   8.778  11.735 -0.1695 -0.0761 -0.0746
29168W        W45062   5.914  11.298  14.817 -0.1121 -0.0356 -0.0857
29169W        W45063   4.100   5.917  13.390 -0.4061 -0.1357 -0.0045
29170W        W45064  10.374   5.850  14.700 -0.0626 -0.0125 -0.0059
29171W        W45065   4.526  14.576   4.875  0.3293 -0.0441  0.2130
29172W        W45066  10.169  13.203  15.712 -0.1283  0.4938 -0.2746
29173W        W45067   8.512  12.942   3.531  0.2854 -0.2194 -0.2037
29174W        W45068   0.402  12.473   0.139 -0.1376 -0.1798 -0.0326
29175W        W45069   8.979   5.572  14.591 -0.1008  0.0224 -0.1008
29176W        W45070   5.929  10.940  12.030  0.0618  0.0032 -0.4280
29177W        W45071   2.313  12.366   4.282  0.2352 -0.0622 -0.1395
29178W        W45072  10.918   8.913   1.282 -0.1307 -0.3672  0.1960
29179W        W45073   9.263   4.215   1.672  0.1628  0.1124  0.1345
29180W        W45074   2.575   5.060  15.120 -0.2559 -0.1420  0.2792
29181W        W45075   6.547   1.878  11.773 -0.0052  0.0042  0.2507
29182W        W45076   3.058  10.254   1.324 -0.2531  0.1382  0.0756
29183W        W45077   8.139   5.817  11.535 -0.2017 -0.0271 -0.0582
29184W        W45078   7.462   3.908  15.826 -0.1304  0.5074  0.1355
29185W        W45079   2.761   9.272   1.653  0.0712  0.0879 -0.0447
29186W        W45080   2.600   5.419  16.028  0.2446  0.2351  0.1421
29187W        W45081   4.579   0.330  15.620  0.3381  0.0148 -0.1052
29188W        W45082   7.745   7.220   3.077  0.1657 -0.2017  0.0485
29189W        W45083  17.190   0.402  12.111 -0.1275 -0.2468  0.0712
29190W        W45084   2.918   1.164  12.373 -0.0188  0.1218 -0.2107
29191W        W45085   8.619   8.001  13.689  0.4287  0.2255  0.0611
29192W        W45086   5.794  11.554   3.816  0.0127  0.1768  0.1709
29193W        W45087   0.431   8.319  12.803 -0.0806 -0.0901  0.3016
29194W        W45088  11.060   9.562   5.407 -0.1813  0.1926 -0.1123
29195W        W45089   0.117  16.098   3.318  0.0258 -0.0148  0.0360
29196W        W45090  17.954   2.081   0.769 -0.2275 -0.1132 -0.2993
29197W        W45091   8.954  13.049   1.369 -0.0940  0.2204 -0.1247
29198W        W45092  14.520  16.029  11.287  0.1222 -0.2153 -0.3094
29199W        W45093  12.986   5.111   2.702 -0.0704 -0.2017 -0.3764
29200W        W45094   1.687   6.390   5.391 -0.1555  0.0341  0.4984
29201W        W45095  11.593  14.506  12.613 -0.0531 -0.1359  0.0244
29202W        W45096   9.298   6.345  12.934 -0.0788  0.3861 -0.3834
29203W        W45097   1.023  12.852   3.357 -0.1573  0.1351  0.3616
29204W        W45098   8.928   9.205  16.051  0.0948  0.0372  0.0513
29205W        W45099   2.120  15.803  15.452  0.3667 -0.1398  0.1525
29206W        W45100   4.002   8.177  15.492 -0.1982 -0.0634 -0.2013
29207W        W45101  16.793  14.196  13.311  0.1996  0.2232  0.0326
29208W        W45102   1.814  14.449  15.272  0.0733 -0.0226  0.1777
29209W        W45103   9.907  10.535   0.788 -0.0987 -0.2684 -0.1095
29210W        W45104   1.380  17.302   4.754  0.2940  0.3072  0.0057
29211W        W45105   5.565   7.899  13.930  0.0003 -0.2148  0.1463
29212W        W45106   8.201  11.552   0.367  0.1205  0.2410 -0.0763
29213W        W45107  12.267  11.144   5.957  0.1839  0.0779  0.0833
29214W        W45108  15.247   3.291   4.871  0.0170  0.1184 -0.0124
29215W        W45109  14.085   8.842  11.691  0.1410 -0.1495  0.0844
29216W        W45110   6.926  16.089   2.763 -0.1337  0.1080 -0.1011
29217W        W45111  10.773   5.209  11.319  0.2164  0.1392  0.0683
29218W        W45112  14.524  14.357  14.851  0.4591  0.2071 -0.2304
29219W        W45113   3.464   7.104   1.001 -0.1704  0.1048 -0.2271
29220W        W45114   0.071   9.583  11.559 -0.0673 -0.2290  0.1239
29221W        W45115   6.185  14.911   6.310 -0.1350  0.2248  0.3563
29222W        W45116  10.866  15.066  11.087 -0.2753  0.0645 -0.2608
29223W        W45117  16.964  15.168   3.649  0.1329  0.2779  0.3703
29224W        W45118  17.574  13.570   4.981  0.2632 -0.3149 -0.2037
29225W        W45119   9.966  10.486   2.709  0.1308 -0.1395 -0.4223
29226W        W45120   5.058  15.677  12.649  0.0565 -0.0724  0.0577
29227W        W45121   4.613  12.460   5.106  0.3150  0.0537  0.2903
29228W        W45122   5.668  13.882   5.300 -0.0034  0.0102  0.0434
29229W        W45123   1.977   7.545   2.975 -0.0692  0.1905  0.1339
29230W        W45124   9.270   5.696   1.582 -0.2255 -0.4508  0.3542
29231W        W45125   9.113   0.130   0.338  0.1896 -0.0668 -0.0308
29232W        W45126   6.647  16.152  14.385  0.0585 -0.0094  0.2392
29233W        W45127  14.743   0.929   2.637  0.1133  0.1956 -0.0718
29234W        W45128   4.908  17.067  13.968 -0.1198  0.5137  0.0189
29235W        W45129   8.779   5.144   0.792 -0.0203  0.0501  0.1217
29236W        W45130  10.547   1.575   4.080 -0.2406 -0.1452 -0.0397
29237W        W45131  15.383   6.818   2.010 -0.3907 -0.1050 -0.0855
29238W        W45132  15.525   8.088  14.438  0.1453 -0.1635 -0.2765
29239W        W45133   3.294  15.484  11.984  0.1125  0.1015 -0.1865
29240W        W45134  14.684   3.647   4.283 -0.0094  0.1067  0.2713
29241W        W45135   9.427   5.148   3.626 -0.2953 -0.1960 -0.1272
29242W        W45136   3.348  12.897   0.965 -0.1342  0.2623  0.0914
29243W        W45137   2.259  14.143  11.760  0.1172 -0.2974  0.1282
29244W        W45138  12.916  12.412  15.589  0.2788 -0.2239 -0.2300
29245W        W45139   4.572   2.917  15.406 -0.0023 -0.1976  0.0577
29246W        W45140  16.855   1.809   0.426 -0.1716 -0.2776 -0.1444
29247W        W45141   0.029  14.439  14.263 -0.3061  0.1124  0.2271
29248W        W45142   8.952  16.848  13.086  0.0654 -0.1876  0.0692
29249W        W45143  13.391  13.523   3.083 -0.1048 -0.0922 -0.1452
29250W        W45144   7.483   5.234  14.116 -0.1572 -0.2742  0.1171
29251W        W45145   4.148   0.687  12.737 -0.2819  0.1381 -0.0174
29252W        W45146   6.741  10.622   5.026 -0.4187  0.0229 -0.3390
29253W        W45147   7.557  17.025  13.441 -0.1172  0.0568 -0.3252
29254W        W45148   3.666   7.314   1.926  0.2274 -0.0089  0.3038
29255W        W45149   0.406  11.032   0.608 -0.0446 -0.1463  0.1527
29256W        W45150  14.963   9.242  10.777 -0.1568  0.1121  0.2276
29257W        W45151  17.312   9.872  12.953 -0.0660  0.2999 -0.0281
29258W        W45152   4.253   5.583  14.031  0.2751  0.2273 -0.1169
29259W        W45153  14.963   6.308  11.939 -0.2845 -0.2390 -0.3265
29260W        W45154  13.987   2.954  16.043  0.0360  0.0633  0.0895
29261W        W45155   1.016  17.532  15.177  0.1235 -0.1240 -0.0868
29262W        W45156  16.234   3.745   3.813 -0.4959 -0.0887 -0.1723
29263W        W45157  18.121  16.160  14.077 -0.1377 -0.4030  0.0237
29264W        W45158   2.630  16.545   0.017 -0.2626  0.1020  0.1843
29265W        W45159   9.330   3.403   1.297 -0.2485 -0.1087  0.0972
29266W        W45160   9.136  16.430   1.067 -0.0502 -0.4049 -0.0481
29267W        W45161   1.069   6.411   3.860 -0.1189 -0.3475 -0.0817
29268W        W45162   8.636   3.554  15.058 -0.1291 -0.3301  0.2093
29269W        W45163   8.635   7.344  12.214 -0.2326  0.3122  0.0680
29270W        W45164   3.293   0.597  12.799 -0.2092 -0.1203  0.0759
29271W        W45165  17.047   6.352   0.245 -0.0505  0.0809 -0.3521
29272W        W45166   3.572  14.063   0.306 -0.0563  0.1986  0.0176
29273W        W45167   3.340   6.470  14.034 -0.1683  0.0211 -0.1311
29274W        W45168   5.065   7.116  14.913 -0.3075 -0.0887  0.0408
29275W        W45169  13.441   8.440   0.456  0.2451  0.0761  0.1281
29276W        W45170  16.808   2.437   5.245 -0.0453 -0.1949  0.1972
29277W        W45171  10.081   6.134   2.468 -0.2488 -0.0250 -0.2059
29278W        W45172   2.916  16.071   2.325  0.0051 -0.0349 -0.0969
29279W        W45173  12.164   8.119  12.719  0.3017  0.1213  0.0282
29280W        W45174  10.567  10.307   4.356 -0.1271 -0.0836 -0.0472
29281W        W45175   7.778   2.504   4.544 -0.0928 -0.2848  0.1507
29282W        W45176  12.169  14.020  13.097 -0.2351 -0.1272 -0.1616
29283W        W45177  16.397  13.194  13.426  0.1309 -0.0125  0.1595
29284W        W45178  14.915   3.437   5.274 -0.1512  0.1212  0.0890
29285W        W45179  13.186  18.047  15.823 -0.0147  0.0475 -0.0815
29286W        W45180  12.371  15.357   4.896  0.1829 -0.1358  0.0520
29287W        W45181  17.566  10.025   4.811 -0.0707 -0.2914  0.2339
29288W        W45182  13.370   3.470  12.122 -0.1488 -0.1564  0.0350
29289W        W45183  10.587   1.769   2.269 -0.1389  0.3191 -0.2730
29290W        W45184   7.284   4.209   3.783  0.3451 -0.4074  0.2422
29291W        W45185  16.289   0.615  15.339  0.0138 -0.1860  0.1444
29292W        W45186  10.925   1.887   0.827  0.0251 -0.2416 -0.1976
29293W        W45187   4.193   1.510  10.879 -0.1273  0.1933  0.0350
29294W        W45188   7.344  11.969  12.861 -0.2558  0.1949 -0.1594
29295W        W45189   8.785   6.662   3.104  0.2488  0.0470 -0.3014
29296W        W45190   4.425   4.077   3.942  0.1362  0.0443  0.1783
29297W        W45191  16.381  17.070   5.121  0.1570 -0.2823  0.1944
29298W        W45192  10.593   7.898   0.007  0.1517  0.0359  0.0794
29299W        W45193   5.502   4.952  12.635 -0.0009 -0.0020  0.4332
29300W        W45194   2.110   0.676  13.588  0.1571  0.0221 -0.3263
29301W        W45195   8.208  16.418   3.740 -0.1932 -0.1832 -0.1642
29302W        W45196  10.519   5.240  14.846 -0.1305  0.2997 -0.0839
29303W        W45197   0.005  10.837   2.981  0.1652  0.1796 -0.1295
29304W        W45198  12.017  11.690  15.479  0.3451  0.0904 -0.3179
29305W        W45199   2.166   8.213   2.514 -0.0204 -0.0597 -0.0896
29306W        W45200   1.837  15.980   4.706 -0.2074  0.2410 -0.0202
29307W        W45201  15.553   7.731   4.455  0.0429  0.0273  0.4154
29308W        W45202   4.428  17.673   2.898  0.2733 -0.2282  0.0545
29309W        W45203  14.678  17.376  11.415  0.5280  0.0273 -0.1566
29310W        W45204  17.321  13.235   3.215 -0.1760 -0.2290 -0.0850
29311W        W45205   2.691  15.539   1.659 -0.1213 -0.0085 -0.1636
29312W        W45206   8.357   8.398   3.756 -0.0155  0.4250  0.0099
29313W        W45207  12.990  11.762  13.175 -0.0057 -0.0246  0.0892
29314W        W45208  14.118   4.724   4.040 -0.1430  0.0673  0.3541
29315W        W45209  12.175   6.170  14.161  0.1486  0.0247 -0.2087
29316W        W45210   8.026   5.828  13.150  0.1358 -0.0827 -0.3705
29317W        W45211  15.508  12.415   4.295  0.0988 -0.0934  0.0885
29318W        W45212   2.661  17.789   3.081  0.2726 -0.1730  0.0123
29319W        W45213  17.017   0.492   4.914  0.2007  0.1513  0.0568
29320W        W45214  10.729  16.149   1.535 -0.1319 -0.0826 -0.0812
29321W        W45215   3.857   2.058  11.546 -0.3005  0.3116  0.1125
29322W        W45216  10.292  15.315   4.454 -0.2658 -0.2534 -0.0294
29323W        W45217   0.387   5.062   1.498 -0.0054  0.1568 -0.0662
29324W        W45218   8.949   6.047   2.168 -0.0612  0.0410  0.2409
29325W        W45219  11.372   2.586   4.032  0.2552  0.1913 -0.3326
29326W        W45220  13.295  12.727  11.485 -0.1415 -0.0449 -0.0168
29327W        W45221   0.329   2.797  14.376 -0.1628 -0.1847 -0.1399
29328W        W45222  14.776  14.163   4.724  0.0331  0.1891  0.1188
29329W        W45223  17.710  15.310  13.640  0.0728 -0.0657 -0.2337
29330W        W45224   7.001  14.782   2.252  0.1689 -0.0623  0.2162
29331W        W45225   7.415   4.907  11.746  0.0381  0.0005 -0.1571
29332W        W45226   6.145  15.815   0.908 -0.2533  0.3390  0.3766
29333W        W45227  15.310   4.715   0.420 -0.4065 -0.2395  0.1365
29334W        W45228   7.558   2.177   9.627 -0.2038  0.0455 -0.1334
29335W        W45229  18.322  17.217  13.871 -0.1998 -0.1306  0.1740
29336W        W45230   0.432  11.984   5.599 -0.3264  0.0137 -0.0570
29337W        W45231   8.715  13.696  11.102  0.0766  0.3930  0.0726
29338W        W45232  11.271  14.706  15.724 -0.3552 -0.2099 -0.0627
29339W        W45233   0.990   8.644   4.248  0.4299 -0.4124  0.2931
29340W        W45234   7.767   0.094   0.163  0.1998 -0.2257  0.1021
29341W        W45235   2.837   1.358  13.470  0.0304  0.0144 -0.0467
29342W        W45236  16.650   5.116  14.776 -0.3084  0.0151 -0.0106
29343W        W45237  16.161  15.504   2.585 -0.0137 -0.0662  0.0386
29344W        W45238  13.648   8.247  12.199  0.0357 -0.0062  0.1655
29345W        W45239  15.288   3.615   4.471  0.3486  0.2076 -0.0570
29346W        W45240   7.833  11.902   0.615  0.0922 -0.0747  0.2484
29347W        W45241  16.288   6.679  13.508  0.0111  0.1011 -0.4907
29348W        W45242  16.590  13.716   5.327 -0.1169  0.1184  0.0297
29349W        W45243   6.633  14.811  14.355 -0.2369  0.0960 -0.0445
29350W        W45244   7.463  16.600  14.055  0.3061  0.1463 -0.3168
29351W        W45245   4.662  16.197  15.119 -0.2059  0.0154  0.2379
29352W        W45246   5.453  16.222   2.839  0.0607  0.1154 -0.0447
29353W        W45247  10.767   6.591   4.626  0.2311  0.1807 -0.0576
29354W        W45248  13.483   1.381   2.841 -0.3403 -0.2552  0.1528
29355W        W45249  17.188   3.942  12.996 -0.5142 -0.0197  0.0787
29356W        W45250   6.999  18.096  11.421 -0.0914 -0.1210  0.2020
29357W        W45251   3.788  17.179   1.354 -0.1997 -0.2481 -0.1903
29358W        W45252   6.735  13.215  13.838  0.0130  0.2377 -0.3931
29359W        W45253   0.967   5.516   0.317 -0.0938  0.0419  0.1003
29360W        W45254   0.507   5.281   3.481  0.3301  0.3121  0.3536
29361W        W45255   2.804  12.206  11.423  0.0616  0.3866  0.0494
29362W        W45256  11.303   3.458   2.209 -0.2239 -0.1385  0.2336
29363W        W45257  13.111   1.623   0.911  0.3756  0.1347  0.0267
29364W        W45258   4.400  12.006   2.323  0.3440  0.1235 -0.0549
29365W        W45259   1.207  11.802   4.387 -0.2966  0.1582  0.3127
29366W        W45260   1.178   4.542   3.655 -0.1815  0.0401 -0.0620
29367W        W45261   7.207   8.883  11.233 -0.0398 -0.2204  0.0558
29368W        W45262   4.676  15.687   2.694  0.1424 -0.1542 -0.4098
29369W        W45263  13.067  10.344   5.269  0.2063 -0.0749 -0.1079
29370W        W45264   6.421  17.730  15.355 -0.2116 -0.0885  0.3807
29371W        W45265  12.505  15.022  12.917  0.2744  0.1638  0.1290
29372W        W45266   8.321   1.743   0.846 -0.0984  0.2720  0.1146
29373W        W45267  13.675  17.460   1.454 -0.3282  0.0019 -0.1086
29374W        W45268  14.643  13.776  11.408  0.0116  0.1010 -0.1577
29375W        W45269   0.422   2.102   5.106  0.1915  0.1459 -0.1786
29376W        W45270   9.087  12.712   3.968 -0.1173 -0.1781 -0.0081
29377W        W45271   8.151  12.578  16.063  0.2715  0.4293 -0.2299
29378W        W45272   5.508  15.539   4.090 -0.0545  0.0262  0.1127
29379W        W45273   1.384  15.818   2.127 -0.0071  0.0277 -0.2641
29380W        W45274   0.855   3.266  11.511 -0.0779  0.1452  0.1126
29381W        W45275   6.492   8.499  12.091  0.3058 -0.2540 -0.0936
29382W        W45276   7.214   2.445  11.193 -0.2986 -0.1336 -0.0217
29383W        W45277   0.583   0.720  13.543  0.0284  0.1302 -0.0332
29384W        W45278  13.264   9.745  14.577  0.0770  0.2835 -0.0566
29385W        W45279  11.059  13.109  14.382 -0.0378  0.2638  0.3112
29386W        W45280   2.618  15.016   0.973 -0.0049 -0.0694  0.0812
29387W        W45281  13.324   2.394  13.610 -0.3169 -0.0803 -0.1706
29388W        W45282  16.683  12.224   4.202  0.0911 -0.0604  0.3867
29389W        W45283  12.711   6.089  14.204 -0.1580 -0.0792  0.0365
29390W        W45284   1.764  17.351   5.164 -0.3642 -0.0846 -0.1226
29391W        W45285  15.866   7.065  15.762  0.2759  0.0292  0.1940
29392W        W45286  15.211  16.675   2.137 -0.2637 -0.0469 -0.1219
29393W        W45287  18.369   8.018   3.822  0.1317 -0.4340 -0.1247
29394W        W45288  10.715   3.087  12.191  0.0490 -0.0833  0.0421
29395W        W45289  16.372   2.834  15.137 -0.4607 -0.1475 -0.0982
29396W        W45290   2.476   5.012  12.514 -0.2932  0.0234  0.0684
29397W        W45291  12.179  10.612  13.827 -0.1113  0.4424 -0.0997
29398W        W45292   5.664   2.900   5.074  0.0215 -0.1034 -0.1486
29399W        W45293  18.210  11.254   5.041  0.2063  0.2775  0.5805
29400W        W45294   6.580   1.262   0.930 -0.0850 -0.2895  0.0262
29401W        W45295   1.099  11.583  13.854 -0.2095  0.0132 -0.2094
29402W        W45296  11.168   3.708   4.297  0.0035 -0.2709  0.4307
29403W        W45297  17.212   9.012   3.010  0.0500 -0.0715 -0.0180
29404W        W45298   5.973   7.058  11.171  0.1243  0.3032  0.0579
29405W        W45299   5.417  13.558   3.529 -0.0891  0.1239 -0.4029
29406W        W45300  14.134  16.570   3.163  0.2097 -0.1804  0.0935
29407W        W45301   8.550   4.522  14.856  0.2344  0.1922 -0.0865
29408W        W45302  12.666  11.436   1.831  0.3033 -0.1500 -0.0395
29409W        W45303  11.685  13.889   2.327 -0.1548  0.3262 -0.0926
29410W        W45304  17.937  11.633   2.452  0.3646 -0.2342  0.3589
29411W        W45305   9.319  18.030  14.199  0.0487  0.0317 -0.1305
29412W        W45306   7.332  16.891   4.111 -0.1773 -0.2290 -0.1760
29413W        W45307   7.916  13.091  12.332 -0.4022  0.3525 -0.4352
29414W        W45308   9.854  10.864   4.753 -0.0952 -0.1615  0.3238
29415W        W45309  13.330  14.678  15.460  0.3052  0.1068 -0.1844
29416W        W45310   5.104  14.208  14.722 -0.0053 -0.2570  0.1461
29417W        W45311  18.188  16.484   2.761 -0.2329  0.1697  0.2457
29418W        W45312   2.403   4.182  12.091  0.0003 -0.1953  0.3895
29419W        W45313  12.608   8.502   1.111  0.0124  0.2642 -0.1174
29420W        W45314   3.147   8.786  13.360  0.1834 -0.2162 -0.1415
29421W        W45315  16.235   2.429  12.558 -0.2263 -0.3184  0.0462
29422W        W45316  14.347  14.423   1.951  0.1148 -0.0074 -0.1625
29423W        W45317   8.531   6.018   0.876 -0.3417  0.0652  0.1381
29424W        W45318  16.685   2.022  11.975 -0.0647  0.0364 -0.0571
29425W        W45319   7.327  16.283  13.149  0.2584  0.0609 -0.1680
29426W        W45320  12.094   9.968   0.976 -0.1517 -0.0051  0.0908
29427W        W45321   2.840   2.346   0.309  0.1373 -0.3158  0.4070
29428W        W45322   2.790   1.618   2.002 -0.2139 -0.2055  0.0930
29429W        W45323  14.966   9.425   3.922 -0.0353  0.0811 -0.1092
29430W        W45324   9.675  13.593  12.304  0.4806  0.0693  0.5200
29431W        W45325   6.933   2.868   0.744  0.0404 -0.0730 -0.1088
29432W        W45326  12.582  11.171  14.259  0.0102 -0.1067 -0.4098
29433W        W45327  18.350  10.369   3.116  0.0868  0.0833  0.1288
29434W        W45328   4.064   5.244  11.309  0.0050  0.0256  0.2976
29435W        W45329   5.520  12.310   2.142 -0.1778  0.0389 -0.0148
29436W        W45330   1.429  14.927   1.008 -0.0687 -0.1116  0.2572
29437W        W45331  16.185   6.755   0.590  0.0801 -0.1594 -0.2083
29438W        W45332   7.708   6.029   5.153  0.1068  0.0168  0.2606
29439W        W45333  17.528   1.188  14.341  0.3088 -0.3606 -0.2309
29440W        W45334   6.821  15.340   3.667  0.0948  0.1423  0.1184
29441W        W45335  18.148   5.084  15.678  0.1118  0.0114  0.2674
29442W        W45336  13.282   5.808   0.138 -0.0527  0.0805 -0.0761
29443W        W45337   0.840  12.585   2.232  0.1046  0.1962 -0.0548
29444W        W45338   5.319   7.500  14.151  0.2959  0.2533  0.3843
29445W        W45339   3.008  15.816   4.084 -0.0013 -0.3047  0.0566
29446W        W45340   1.834   2.272   0.499 -0.2559 -0.2066  0.0886
29447W        W45341  18.410  13.924   3.125 -0.0722  0.0281 -0.2427
29448W        W45342  13.680   5.616   5.527 -0.3912 -0.0233 -0.1570
29449W        W45343  17.291  11.604   4.625 -0.1093 -0.0078  0.1095
29450W        W45344  16.875   7.776   5.335 -0.0456 -0.0214  0.1420
29451W        W45345  16.529  18.182  14.275 -0.2548 -0.0043 -0.0871
29452W        W45346   0.438   8.759  14.987  0.2463  0.0569  0.0748
29453W        W45347   7.933  17.256   5.848 -0.2026  0.1546 -0.0217
29454W        W45348  11.842  13.272  12.014 -0.0928 -0.0669  0.1527
29455W        W45349  16.154  16.428   2.571  0.1064 -0.0440 -0.1541
29456W        W45350   7.999  10.382  11.534 -0.2393 -0.1535  0.2331
29457W        W45351  17.711   0.725  14.598 -0.0179  0.0094 -0.2498
29458W        W45352   6.961   9.930  15.242  0.1796 -0.0326  0.1223
29459W        W45353   0.964  13.216   4.624  0.1298 -0.2525  0.0463
29460W        W45354  17.150  14.734   1.816 -0.0077  0.4074  0.1748
29461W        W45355  14.157  10.022  13.626 -0.0421  0.1342 -0.1417
29462W        W45356   8.113   4.020  12.629 -0.2508 -0.0788 -0.0350
29463W        W45357   6.686  10.726   2.183 -0.1349  0.2977 -0.1043
29464W        W45358  16.235  17.859   2.620  0.0205  0.1211 -0.0113
29465W        W45359  17.610  18.331   2.686 -0.0399  0.0371 -0.0709
29466W        W45360   2.322   8.402   2.947 -0.1961  0.0051 -0.0104
29467W        W45361  16.471   5.706  14.633 -0.1986 -0.0809 -0.1633
29468W        W45362  18.046  12.897   4.402  0.2133 -0.4048  0.0181
29469W        W45363  11.065   0.323  14.721  0.3950 -0.0106  0.3502
29470W        W45364  10.598  13.379   1.560  0.1821  0.0086  0.1696
29471W        W45365   3.271   6.171   4.448 -0.1033 -0.1203  0.3080
29472W        W45366  12.448   2.033   2.688 -0.2185  0.0422  0.2463
29473W        W45367   4.118  14.105   5.156 -0.3887  0.0243  0.1466
29474W        W45368  13.816  16.282   5.390  0.0667  0.3967  0.2703
29475W        W45369  12.380  10.302   1.989 -0.3200 -0.0290  0.1902
29476W        W45370   3.924  15.091  14.375  0.1295  0.2402 -0.1189
29477W        W45371  13.339   8.939   5.330  0.1169  0.2009 -0.2747
29478W        W45372   8.465   0.629  12.456 -0.0586  0.2580  0.2005
29479W        W45373   9.162   0.442   0.779 -0.0883 -0.0344 -0.0631
29480W        W45374  14.595  13.716   1.426 -0.2230  0.0049  0.0031
29481W        W45375   6.833   8.186   3.679  0.0622 -0.0505 -0.0498
29482W        W45376   0.248  12.921   3.789  0.3275 -0.0826  0.1598
29483W        W45377   3.294   7.728   4.857  0.2384 -0.1937 -0.0323
29484W        W45378  10.897  16.987   2.095 -0.0242  0.2355  0.0478
29485W        W45379   3.817   9.365  13.819  0.2974 -0.2086 -0.2014
29486W        W45380  11.609   7.037   4.419  0.0540 -0.1850 -0.2649
29487W        W45381   2.201   5.686   5.443 -0.2128 -0.0793  0.1960
29488W        W45382  10.591  16.434  11.923 -0.2922  0.1956 -0.1666
29489W        W45383   5.101   4.912   1.464 -0.1721  0.0428 -0.4077
29490W        W45384   5.614   3.107  15.905  0.2203  0.1359 -0.3167
29491W        W45385  15.497   9.241  11.908 -0.3343  0.0212  0.1281
29492W        W45386  15.072   8.847   2.595  0.2316  0.1966  0.0928
29493W        W45387   7.485   0.284  13.248 -0.5092 -0.0671 -0.0730
29494W        W45388   4.286   8.389  10.201  0.0644  0.0595  0.1383
29495W        W45389   0.368  12.056   4.929 -0.0897 -0.2683 -0.0580
29496W        W45390   7.105  16.946  14.144  0.2799 -0.1130  0.0577
29497W        W45391   0.494  16.801   1.989  0.0589  0.2360 -0.0595
29498W        W45392   5.487  14.952   0.165  0.1373 -0.3220 -0.0284
29499W        W45393  16.265   8.711  15.419  0.1289  0.0630  0.0840
29500W        W45394   6.498  11.371  13.320  0.1143 -0.1631 -0.0804
29501W        W45395  13.726   2.511   2.419 -0.1269 -0.1873  0.2206
29502W        W45396  14.349   8.309   3.562  0.3081  0.1401 -0.1287
29503W        W45397   7.537   3.385  12.265  0.2824 -0.0461  0.1348
29504W        W45398  17.845   1.257   4.604  0.3109  0.0740  0.0577
29505W        W45399   6.623  12.789   0.807  0.2310 -0.0984 -0.2269
29506W        W45400   0.671  12.113  13.424  0.4092  0.0267  0.1318
29507W        W45401  13.965  17.552   4.940  0.2789  0.2530 -0.0098
29508W        W45402   6.310  15.482  14.295  0.2790 -0.1959 -0.0450
29509W        W45403  16.914   5.119  15.203 -0.0454 -0.0039 -0.4601
29510W        W45404  17.780   3.674  11.753 -0.3079 -0.0171  0.1536
29511W        W45405  11.651  11.353  11.144  0.5217 -0.1747 -0.0733
29512W        W45406  15.686  11.879  14.452 -0.2917 -0.0524  0.1938
29513W        W45407  14.067   2.019  14.251  0.0210 -0.1219  0.2283
29514W        W45408  14.983  12.773  11.417  0.3164 -0.0161 -0.1044
29515W        W45409   2.898  16.543   2.498  0.2343 -0.0200  0.1053
29516W        W45410   5.871   7.380   0.129 -0.1623  0.1109 -0.2937
29517W        W45411  13.763   9.069  11.336  0.0059 -0.0596  0.1320
29518W        W45412   6.076   4.009   5.633 -0.1757 -0.2470 -0.3181
29519W        W45413  14.871   1.122  14.431 -0.2310 -0.0311 -0.0643
29520W        W45414   6.671  10.073  14.458 -0.3433 -0.1331 -0.3842
29521W        W45415  15.483  11.929  15.278  0.2516 -0.1714 -0.1585
29522W        W45416  11.740   8.189   5.532 -0.1684 -0.0407 -0.0899
29523W        W45417   4.275  17.077  15.189 -0.1676 -0.1321  0.2012
29524W        W45418   8.941  14.029  15.947 -0.0612 -0.1437  0.1695
29525W        W45419  13.552   4.256   2.902 -0.1140 -0.2074 -0.1661
29526W        W45420  14.524  15.774   1.423  0.0665  0.4681  0.1129
29527W        W45421  11.151  13.281   4.155 -0.1093  0.0521  0.2274
29528W        W45422   2.114  16.452  12.841 -0.1782  0.0810 -0.3520
29529W        W45423  10.270  11.084  14.061 -0.3635  0.1001  0.1104
29530W        W45424   7.558   6.830   4.562  0.2096 -0.2044 -0.1168
29531W        W45425   2.140  10.956   3.836  0.1925  0.0540  0.2341
29532W        W45426  17.054  17.781  11.900 -0.1437  0.0153 -0.2128
29533W        W45427  12.619  12.138  15.184 -0.1562 -0.3625  0.2480
29534W        W45428   7.916  16.666  14.345 -0.1539  0.0077  0.1243
29535W        W45429   7.503   7.534   5.069  0.0782  0.1462 -0.2004
29536W        W45430   9.847   7.118   2.135  0.0729  0.1350  0.1514
29537W        W45431   6.915  13.892  15.623  0.0085 -0.2076  0.2964
29538W        W45432   7.085   8.407  13.089 -0.0486  0.1034 -0.3260
29539W        W45433  18.019   2.047  15.187  0.1478  0.0439  0.1583
29540W        W45434   3.567  15.325   1.278 -0.0756 -0.2513  0.1268
29541W        W45435  15.233   1.069   2.622  0.2356 -0.0703 -0.6732
29542W        W45436   3.300  16.947   3.232 -0.0678 -0.1355 -0.1723
29543W        W45437   9.580  13.594  11.034 -0.3149  0.2967  0.3863
29544W        W45438   7.252  17.601  15.737 -0.2041  0.0256  0.2940
29545W        W45439  13.664   4.296  13.722 -0.1839  0.1916 -0.2693
29546W        W45440   3.239   8.824   4.417  0.1487 -0.0909  0.0258
29547W        W45441   9.433  10.886   1.660 -0.1770  0.1455  0.0325
29548W        W45442   3.011   3.752   0.881 -0.2050  0.2057  0.3937
29549W        W45443   6.873   8.182  16.051  0.3257  0.1575  0.1165
29550W        W45444  17.816   6.464  15.390 -0.0766  0.0307 -0.4391
29551W        W45445   4.571  10.927  16.108 -0.0927  0.0541  0.3041
29552W        W45446  11.666   3.546  10.689  0.0562  0.1402 -0.0261
29553W        W45447  11.162   5.966  16.124 -0.3558  0.0836  0.1243
29554W        W45448  11.323   7.566  15.243  0.1876 -0.0426  0.0444
29555W        W45449   3.281  16.308   4.121 -0.1275  0.5032 -0.0722
29556W        W45450  12.104   4.667  12.537 -0.2083 -0.0122  0.0486
29557W        W45451   6.335   0.447  11.198 -0.3081  0.0357 -0.3135
29558W        W45452   8.538   6.984   5.399 -0.2752  0.0280 -0.0533
29559W        W45453  16.844   4.043   4.556  0.2893  0.0763 -0.1768
29560W        W45454   9.062   0.131   4.894  0.0492 -0.0947  0.0431
29561W        W45455   4.613  15.786   5.034 -0.2956 -0.0982  0.4192
29562W        W45456   6.752   4.759  15.505 -0.0344 -0.1727 -0.1368
29563W        W45457  12.155  14.995   4.113  0.1486  0.3237 -0.2249
29564W        W45458  16.513  10.171  14.078 -0.0356 -0.1944 -0.0232
29565W        W45459  11.703  16.388  15.422 -0.0381 -0.0144 -0.1851
29566W        W45460  14.566   9.069  11.059 -0.3018  0.4675 -0.1601
29567W        W45461   3.841  14.131  15.424 -0.0960 -0.0305  0.0993
29568W        W45462  13.593   4.974  12.948 -0.0477  0.0125  0.3408
29569W        W45463   7.840  12.392   0.302 -0.0913  0.0056 -0.0800
29570W        W45464   2.499  18.248  15.486  0.1146  0.2668 -0.4413
29571W        W45465   2.086   6.556   2.788  0.1187  0.1151  0.2140
29572W        W45466   3.332   9.073   2.372 -0.0151 -0.1360 -0.1061
29573W        W45467   4.450  16.138  16.145 -0.1126 -0.1029  0.3537
29574W        W45468  13.244  12.482  12.288 -0.1613 -0.1454 -0.0644
29575W        W45469  14.336  17.680  14.576  0.2115  0.2889  0.1154
29576W        W45470  12.419  16.163   1.218  0.4036 -0.1393 -0.0769
29577W        W45471   8.148   3.426  15.798  0.0619  0.2280 -0.1515
29578W        W45472   5.700   0.888   0.400 -0.1744  0.2599 -0.0143
29579W        W45473  13.925  18.003   4.000 -0.3345  0.2881 -0.0796
29580W        W45474  18.451  15.343  12.072  0.0820 -0.1911 -0.1427
29581W        W45475   1.570   7.286  13.985 -0.1017  0.1648  0.0384
29582W        W45476   9.944   9.936  12.549  0.0736 -0.2807 -0.1218
29583W        W45477   4.297   6.420   5.140  0.1193  0.0828  0.0474
29584W        W45478  12.992  13.561   5.220  0.1847  0.1415  0.0906
29585W        W45479  14.186  15.805   3.572  0.0844  0.2580 -0.3056
29586W        W45480   5.177  14.364  13.362  0.0545 -0.1173 -0.4092
29587W        W45481  15.285   8.112   3.783 -0.0658 -0.2395 -0.0718
29588W        W45482  13.868   1.681   4.914  0.1771  0.0907 -0.0531
29589W        W45483  11.046   4.786   5.332 -0.2117  0.1427 -0.1331
29590W        W45484   4.450   1.729   5.483  0.0292 -0.1890 -0.1526
29591W        W45485   9.611  17.024  15.351 -0.2008 -0.0476  0.0213
29592W        W45486  13.054  17.030   2.025 -0.0857 -0.0007  0.0004
29593W        W45487  16.831   0.286  11.754  0.2249 -0.1487  0.1259
29594W        W45488   7.414  10.080   1.065 -0.0231 -0.1010 -0.1226
29595W        W45489  10.007   9.752   2.281 -0.3836  0.1414 -0.1587
29596W        W45490   4.038   3.102  15.538 -0.1306  0.2020 -0.0006
29597W        W45491  15.618   4.287   1.759  0.1139 -0.1261 -0.0841
29598W        W45492  16.666  13.833  15.355  0.1628  0.3604  0.0856
29599W        W45493  14.359   4.506   5.862  0.1641 -0.0712  0.1420
29600W        W45494   1.195  14.189  13.750 -0.0825  0.0260  0.0628
29601W        W45495  11.976  11.527  15.950 -0.0648  0.3193  0.0818
29602W        W45496   2.198   4.722  12.185  0.3484 -0.1583 -0.0101
29603W        W45497   8.846   9.346   3.464  0.3029  0.0505  0.2232
29604W        W45498  11.083  12.315  10.131 -0.1317  0.2942 -0.2216
29605W        W45499  12.269   6.896   2.812  0.2366 -0.0476  0.1939
29606W        W45500   6.543   5.907  10.933 -0.2391 -0.0921 -0.2995
29607W        W45501  10.440  16.613  15.570 -0.0979 -0.0526 -0.0479
29608W        W45502  11.435   4.479   4.172 -0.1146  0.1956 -0.4029
29609W        W45503   3.552   1.034  14.771  0.1016 -0.2390 -0.0301
29610W        W45504   1.004  11.708   3.376 -0.2986  0.0435  0.0097
29611W        W45505   1.489  16.215   1.428  0.3372 -0.0519 -0.0376
29612W        W45506   4.787  11.615  15.389  0.2690  0.0046  0.1091
29613W        W45507  16.649  13.686  12.613 -0.2993  0.1270 -0.0421
29614W        W45508  12.033   1.508  16.028  0.1434 -0.0503  0.2043
29615W        W45509  17.496   3.970   2.467  0.0850  0.0666  0.0822
29616W        W45510  13.541   2.221   1.587  0.3302  0.1079  0.0185
29617W        W45511   4.385   1.627   3.763  0.3852  0.1647 -0.1871
29618W        W45512  15.184   5.247  12.592  0.0391  0.5736  0.1522
29619W        W45513   8.300   3.938  13.252 -0.0055 -0.2611  0.2399
29620W        W45514   3.919   0.277  14.469  0.2431  0.0580  0.1296
29621W        W45515  14.833   9.284  15.690  0.1850  0.2406 -0.2527
29622W        W45516   9.731   1.637  11.533  0.2635  0.2233  0.0892
29623W        W45517   6.451   2.037   1.846 -0.0106  0.3219  0.0902
29624W        W45518   7.185   6.116   4.016  0.2158 -0.2313 -0.2679
29625W        W45519   9.595  11.729  11.367 -0.1991 -0.0905 -0.0194
29626W        W45520   6.036  14.744  12.313  0.0193  0.3673 -0.0793
29627W        W45521   1.275   4.712   1.618 -0.0286 -0.2356  0.0566
29628W        W45522   1.573  16.849   0.702 -0.0382  0.2420  0.1485
29629W        W45523   2.480   4.296  14.595 -0.3812 -0.2697 -0.1362
29630W        W45524   2.561   1.803   0.142 -0.0471  0.1489 -0.2411
29631W        W45525  11.055  15.249  15.736 -0.0182 -0.0600 -0.0710
29632W        W45526  18.171  10.934   1.622 -0.0704  0.1719  0.2020
29633W        W45527   3.809   1.670   0.610 -0.1051 -0.1587 -0.1954
29634W        W45528   8.588   5.054   2.159 -0.0062 -0.0222  0.4203
29635W        W45529   2.495   1.874  15.325  0.2669  0.1021 -0.1169
29636W        W45530   3.922  11.577   5.035  0.1036 -0.2365  0.0282
29637W        W45531  13.905  13.610   3.132  0.0834 -0.0471 -0.1025
29638W        W45532  15.411   9.999   4.845  0.1634  0.2047  0.1257
29639W        W45533  16.668  14.679  12.055 -0.0689 -0.1224 -0.0299
29640W        W45534   7.412  13.945   5.282 -0.0222  0.0879  0.0919
29641W        W45535   3.942   1.685   5.534 -0.0670 -0.0278  0.0503
29642W        W45536   5.078   8.012  13.045  0.0258 -0.3356 -0.3887
29643W        W45537   9.270   3.650  10.838 -0.0428 -0.1042  0.1092
29644W        W45538  16.494   3.843   1.393 -0.2578 -0.0509  0.0898
29645W        W45539  12.943   3.230   0.753 -0.0381 -0.4359 -0.2653
29646W        W45540   8.905  13.505  15.742 -0.1926 -0.1013  0.3715
29647W        W45541  12.620   8.760   1.611 -0.1224  0.1578  0.0507
29648W        W45542   6.353   0.141  12.771 -0.2908  0.3629 -0.3680
29649W        W45543  16.281   2.910  13.647 -0.2275  0.0729 -0.0414
29650W        W45544   1.857   2.938  13.922 -0.1039 -0.0434 -0.1784
29651W        W45545  16.527   9.772  10.594 -0.0093  0.0819  0.1207
29652W        W45546   7.625  10.232  13.931  0.0377 -0.1908  0.0039
29653W        W45547   9.893   5.132   1.683 -0.0838 -0.0038 -0.1086
29654W        W45548   2.496   8.814   3.932 -0.3837  0.0288 -0.0863
29655W        W45549   1.294  13.929   2.316  0.0220  0.0153  0.0690
29656W        W45550   3.414  11.472  12.291 -0.0682  0.1961 -0.3638
29657W        W45551   8.041  12.252   1.153  0.0875  0.0682 -0.0673
29658W        W45552   1.842  10.294  15.914 -0.2684 -0.1343  0.1840
29659W        W45553   1.537  10.874  14.396  0.0135  0.0304  0.3585
29660W        W45554   3.818  16.265  12.445 -0.1046 -0.0876  0.0042
29661W        W45555   7.015   8.370  14.291 -0.2039  0.0391 -0.1368
29662W        W45556  12.726   1.455  12.564  0.2174  0.2862  0.3108
29663W        W45557  15.087  13.870  13.603  0.0803  0.1713 -0.1542
29664W        W45558  13.980   7.626   2.413 -0.3408 -0.2874  0.1964
29665W        W45559   7.249   6.658  13.859 -0.3037 -0.3165 -0.3890
29666W        W45560   5.741   8.656  12.644 -0.1812 -0.2400  0.0960
29667W        W45561  14.658  11.709   2.299 -0.1227 -0.1540  0.1094
29668W        W45562   8.100   6.326   2.774  0.0107  0.2524  0.0271
29669W        W45563   4.937   5.765  12.152  0.1348 -0.0339 -0.3575
29670W        W45564   5.624  18.243  11.439  0.5189 -0.0949  0.0981
29671W        W45565   0.183  10.654   0.915  0.2640  0.1182  0.1582
29672W        W45566  15.301  12.719   5.274  0.0676  0.3529 -0.0778
29673W        W45567  15.017   5.899  14.000 -0.0016 -0.2559  0.0596
29674W        W45568   1.051   7.739   4.643 -0.4666 -0.0142  0.0624
29675W        W45569   7.642   1.841   3.826  0.2800  0.2089  0.2556
29676W        W45570   5.705  10.919   5.561  0.0851  0.1041  0.1381
29677W        W45571   4.499   9.632   2.560  0.3155  0.1901 -0.0460
29678W        W45572   2.373   8.216  14.118  0.0809 -0.3058  0.1526
29679W        W45573  17.326  10.562  14.071 -0.0413 -0.2246  0.0496
29680W        W45574   8.248   7.942  15.493 -0.2319  0.0477  0.0048
29681W        W45575   6.873  11.488  10.957  0.1282  0.0285  0.2555
29682W        W45576   9.054   4.215   2.394  0.0530  0.0034 -0.0389
29683W        W45577   5.926   0.056   2.831  0.0805  0.0157 -0.1499
29684W        W45578   6.290   2.630   1.211  0.1562  0.0583  0.0921
29685W        W45579   3.283  15.702  14.260  0.0521 -0.0987 -0.1451
29686W        W45580   0.461   3.672   4.112 -0.0587  0.2343 -0.2504
29687W        W45581  15.368   2.154   0.261  0.0273 -0.0878  0.0413
29688W        W45582  16.587  12.541  13.910 -0.1040  0.1413 -0.2427
29689W        W45583   7.909   0.900  11.207 -0.3411  0.1475 -0.1563
29690W        W45584  17.212   5.716  13.097  0.0854  0.0931  0.1078
29691W        W45585   1.783  16.224   0.479  0.0159  0.1293  0.0471
29692W        W45586   5.550   2.725   0.570 -0.0870  0.2684 -0.3993
29693W        W45587  16.007  14.040   3.709 -0.3135 -0.2425  0.1130
29694W        W45588   4.645  12.632   0.556  0.1414 -0.2039 -0.4584
29695W        W45589  15.126   0.572   2.456  0.1803 -0.0525  0.4466
29696W        W45590  15.294   3.830   2.241  0.0055  0.0509  0.1026
29697W        W45591  13.412   8.114  11.497 -0.2041  0.0436 -0.1229
29698W        W45592  10.766  13.451   4.543  0.2542 -0.2288  0.2643
29699W        W45593  14.869   6.774   1.231  0.0699 -0.0796  0.1378
29700W        W45594  12.148  10.930   2.119  0.1505  0.1161  0.2657
29701W        W45595  12.862  13.566   1.592 -0.1983 -0.0910 -0.0398
29702W        W45596   5.943  16.196   0.543 -0.0381 -0.2885  0.0435
29703W        W45597   6.635   8.922  15.439  0.1065  0.2029  0.1253
29704W        W45598  13.472  14.716  11.425 -0.0220 -0.1362  0.3352
29705W        W45599   1.894  15.618   2.061  0.0576  0.2078  0.1657
29706W        W45600   0.274  12.507   1.685  0.0148  0.0973 -0.2111
29707W        W45601  16.886   9.089  13.026  0.0668  0.2100  0.2372
29708W        W45602  10.319   5.374  11.388 -0.2233  0.0325 -0.0881
29709W        W45603  10.800   7.137   3.230  0.1449 -0.3898  0.0848
29710W        W45604   6.966  16.318   1.847  0.2877  0.5809  0.1254
29711W        W45605   3.790   1.518  13.869 -0.2014 -0.0961 -0.0893
29712W        W45606  12.923   9.149   1.381  0.0159  0.1380 -0.3163
29713W        W45607   8.489  17.984  12.606  0.1107  0.1416 -0.0571
29714W        W45608  11.617   7.354  15.713  0.0860  0.0002 -0.0784
29715W        W45609   5.962   1.334  13.319 -0.1609 -0.1619  0.1840
29716W        W45610   0.472   8.480   3.400 -0.2079  0.0953 -0.0048
29717W        W45611   6.966  12.866   1.133  0.3099  0.0644  0.3450
29718W        W45612   3.231   8.032   0.770 -0.0971  0.2022  0.3273
29719W        W45613   9.800  15.324  12.905  0.1254 -0.1509 -0.1261
29720W        W45614  11.229   1.244  13.886 -0.1468  0.0972 -0.1692
29721W        W45615   8.968   7.895  11.524 -0.0190 -0.0825  0.1262
29722W        W45616  15.106  18.221  14.399  0.0447  0.2344 -0.1929
29723W        W45617  10.846  14.421  13.232 -0.2168 -0.1486 -0.1366
29724W        W45618  13.523  18.405   0.169  0.3107 -0.2375  0.2895
29725W        W45619   9.192   1.543  14.238 -0.1787 -0.0194 -0.1290
29726W        W45620  14.702   9.755  15.707  0.0325 -0.2675  0.3053
29727W        W45621  13.566  15.837  14.153 -0.0737  0.3973 -0.0456
29728W        W45622   7.584  11.463   5.420  0.2484 -0.0032  0.2786
29729W        W45623   3.163   4.939   3.244 -0.1705 -0.1391  0.1279
29730W        W45624   9.151  16.167  11.808  0.0994 -0.0185  0.4576
29731W        W45625  10.023   7.833   4.042 -0.0917  0.0961  0.2408
29732W        W45626  15.907  14.063  13.144  0.1814 -0.2608  0.4162
29733W        W45627   4.662   4.140  14.294  0.0358  0.3852  0.4618
29734W        W45628  10.427  10.853  10.519  0.4180 -0.1747  0.1567
29735W        W45629   6.114   9.395   0.794  0.1112 -0.2830  0.2903
29736W        W45630  16.088   8.230  11.373  0.0644 -0.1778  0.1133
29737W        W45631  10.840   5.311  13.025  0.0719  0.0149  0.0645
29738W        W45632   5.810   9.949   2.285  0.1048 -0.3388 -0.1744
29739W        W45633  17.695   7.325   0.638  0.0641 -0.1183  0.1708
29740W        W45634   5.781  17.471  14.208  0.1176 -0.2549  0.0955
29741W        W45635  14.347  15.102   2.043 -0.0929  0.2498  0.1625
29742W        W45636  11.844   7.412  15.283  0.0055 -0.1985 -0.1773
29743W        W45637   0.847  13.353  14.601 -0.1319  0.0167 -0.3503
29744W        W45638  11.194   4.705   0.345 -0.0040 -0.2001 -0.1870
29745W        W45639  15.767  13.320  11.304 -0.0895 -0.3315 -0.0367
29746W        W45640   6.874  12.471  14.470 -0.2348 -0.0849 -0.2330
29747W        W45641  18.049   1.765  13.559 -0.0689  0.0967 -0.2758
29748W        W45642  10.865   1.273   3.577 -0.0133 -0.1144  0.2358
29749W        W45643  17.182  11.618  14.963  0.1089 -0.0522 -0.1276
29750W        W45644   0.387   4.805  12.385 -0.5326 -0.0685  0.3803
29751W        W45645   4.477  11.117  15.369 -0.0589 -0.0398  0.2285
29752W        W45646  14.418  11.197  15.227  0.1615 -0.1913 -0.1020
29753W        W45647   6.373  14.390  11.026  0.0678 -0.2033  0.4412
29754W        W45648   7.240  15.984   3.801  0.1115 -0.0992 -0.1833
29755W        W45649   9.146   0.825   3.320  0.1035  0.0652  0.1454
29756W        W45650  17.747  15.464   1.876  0.2077 -0.1349 -0.1450
29757W        W45651  16.874  17.298   0.176  0.0586 -0.1713  0.2959
29758W        W45652  15.277   4.678  12.441  0.0429 -0.1887 -0.1464
29759W        W45653  11.664   7.698  16.081 -0.4454  0.1533 -0.1925
29760W        W45654  12.480   8.323  14.328 -0.0475  0.0553 -0.1263
29761W        W45655   4.124  10.601  11.256  0.1609  0.1570  0.1304
29762W        W45656  11.946   9.876   5.246  0.0260 -0.1341 -0.1289
29763W        W45657   0.625   0.610   3.394  0.0547  0.1196  0.1842
29764W        W45658   6.887   8.086  15.146 -0.0537  0.0253 -0.0156
29765W        W45659   1.395  11.128   0.620  0.1501 -0.1139 -0.1864
29766W        W45660   0.085   3.075   5.328  0.0475  0.0261  0.2819
29767W        W45661   2.230   9.077   3.677 -0.1652 -0.0510 -0.1872
29768W        W45662   9.733  17.117   3.760  0.1964 -0.2114  0.1246
29769W        W45663   4.052   6.525  14.938 -0.5010 -0.0827  0.1995
29770W        W45664  14.014   1.147   3.450 -0.1391 -0.2168 -0.1331
29771W        W45665   8.541   6.417  14.966 -0.3177  0.0350  0.0844
29772W        W45666  13.949  10.216   0.668 -0.5469 -0.3206 -0.3847
29773W        W45667  11.805  16.964  11.969 -0.0259 -0.1880 -0.3281
29774W        W45668   5.735   5.207   3.666 -0.0466 -0.3931 -0.0438
29775W        W45669  11.632  13.904  15.537 -0.0711  0.2154 -0.4446
29776W        W45670  13.535   9.187   2.730  0.2183  0.0756  0.0912
29777W        W45671  15.465  14.509  13.811 -0.0258  0.2146 -0.5603
29778W        W45672  15.452   2.848  15.664  0.1188 -0.1291 -0.2686
29779W        W45673   5.659  11.130   1.325 -0.1347  0.3277 -0.1297
29780W        W45674  16.068   4.022   1.584  0.1464 -0.0708  0.2545
29781W        W45675  14.572  13.239  12.242  0.0763 -0.1087 -0.0023
29782W        W45676   1.289  18.259  12.216 -0.1064  0.0797  0.1578
29783W        W45677   2.169  13.492   1.448  0.2261 -0.0890 -0.1311
29784W        W45678  11.013  13.025   1.424  0.0117 -0.1573  0.1216
29785W        W45679  12.248  17.355   5.147 -0.0967  0.3524  0.2115
29786W        W45680   4.733   2.695   3.930  0.1453 -0.0053 -0.0492
29787W        W45681   7.318  10.752  10.697 -0.0877 -0.1679 -0.2329
29788W        W45682   3.935  13.855   2.731  0.1675  0.2754  0.1593
29789W        W45683   8.923   4.533   9.817  0.0370 -0.0803  0.0600
29790W        W45684   9.052  13.405   1.012 -0.2389  0.1969 -0.1511
29791W        W45685   6.925   5.733  11.865 -0.0562 -0.1806 -0.2897
29792W        W45686   6.910   0.585  13.990 -0.0507 -0.1309 -0.0541
29793W        W45687   6.212   3.541  13.795 -0.1500 -0.0226 -0.1245
29794W        W45688   9.180  14.364   0.672  0.1207 -0.2902 -0.0186
29795W        W45689  18.365  12.635  13.832 -0.2628  0.1689 -0.2166
29796W        W45690  11.923   4.241   2.596 -0.1051  0.3476 -0.0239
29797W        W45691   0.317  16.675  12.997  0.3225  0.0493 -0.3366
29798W        W45692   0.817   8.194   5.592  0.0257  0.3571 -0.1323
29799W        W45693   9.319   1.248  15.177 -0.0398  0.0443 -0.1117
29800W        W45694  17.927   8.174   2.593 -0.1964  0.1240  0.0154
29801W        W45695   1.988  10.528   6.020  0.1773 -0.1894  0.1334
29802W        W45696  16.547   1.269  12.234 -0.3897  0.2289  0.0722
29803W        W45697  10.723  13.675   2.233  0.1230 -0.0483  0.0375
29804W        W45698  10.370   4.775  13.723  0.1605  0.1917 -0.1354
29805W        W45699   0.283   9.294   1.943 -0.0785 -0.1839  0.0609
29806W        W45700  15.042   2.413   1.425 -0.1711 -0.1275 -0.0006
29807W        W45701  17.581  12.681   4.460 -0.2197 -0.3791 -0.0124
29808W        W45702  18.094  16.459  15.596  0.2672 -0.0571  0.2939
29809W        W45703  13.696   2.161  13.915 -0.1020 -0.1739  0.0283
29810W        W45704   4.361   0.918   0.063 -0.1333  0.1266  0.1929
29811W        W45705   5.456   4.884  10.781 -0.0622  0.0475 -0.3107
29812W        W45706   0.504  18.132   4.458 -0.0813  0.1689  0.1045
29813W        W45707   1.428  11.487   2.664 -0.1514 -0.0691  0.2139
29814W        W45708   1.694  11.459  13.600 -0.1652 -0.0024  0.1232
29815W        W45709  14.837  13.651   2.639  0.0806  0.1182 -0.1866
29816W        W45710  13.495   6.014   0.557  0.0295  0.1996  0.0908
29817W        W45711  10.569  13.047   0.203 -0.4612  0.3828  0.2443
29818W        W45712  10.177  17.050   3.904 -0.0741  0.1370  0.0256
29819W        W45713   1.679  11.863   2.841 -0.3078 -0.2704 -0.1117
29820W        W45714  15.568   4.752  13.404  0.1810  0.0106  0.1707
29821W        W45715  12.133  13.312   4.399 -0.2036 -0.0257 -0.0084
29822W        W45716   1.808  11.106   0.244  0.0293 -0.1071  0.0343
29823W        W45717   2.443   9.080   2.359  0.0954  0.1800 -0.0467
29824W        W45718  17.934  13.793   3.307  0.1068  0.1168 -0.0287
29825W        W45719   0.588   3.539   0.295 -0.0290  0.0478 -0.2283
29826W        W45720   2.045   1.258  15.733 -0.1013  0.0257 -0.1032
29827W        W45721   0.398   9.254  15.114  0.0049 -0.0909  0.4210
29828W        W45722   4.028   7.509   5.621  0.1128  0.3984 -0.1952
29829W        W45723  16.132  16.908   6.443 -0.0589 -0.2320  0.0805
29830W        W45724   9.767   3.814  12.991 -0.1291  0.1012  0.1358
29831W        W45725   2.175  11.842   2.663  0.0304 -0.5412 -0.1638
29832W        W45726  12.954   7.776   0.046 -0.1459 -0.1230  0.1123
29833W        W45727  15.042  18.051  12.355  0.1478  0.0414  0.0351
29834W        W45728   8.011  14.761   3.232  0.1307  0.0320 -0.3654
29835W        W45729  14.838   4.510  11.868  0.2412  0.0152 -0.1809
29836W        W45730  11.028   4.583  12.168 -0.2612  0.1575 -0.1257
29837W        W45731   0.468  11.135   6.098  0.0216  0.0849 -0.1262
29838W        W45732   6.334  10.506   1.859  0.0599  0.0037 -0.1832
29839W        W45733  11.842   6.866   5.273  0.1105  0.4696 -0.0493
29840W        W45734   0.675   7.431  14.989 -0.0008 -0.0118  0.0647
29841W        W45735   2.154   1.095   2.821 -0.0447  0.3237  0.0121
29842W        W45736  12.601  13.190   5.215 -0.4859 -0.3216  0.2380
29843W        W45737   5.455  16.447  14.025 -0.1500 -0.0138  0.1705
29844W        W45738   2.192  15.856   3.638  0.1158 -0.3399  0.0483
29845W        W45739   0.846  12.961  13.662 -0.1281  0.0269 -0.1737
29846W        W45740   4.579   0.948   1.124 -0.0201  0.1558  0.1353
29847W        W45741  13.728  15.473  14.435 -0.1621 -0.0087 -0.0515
29848W        W45742  17.631  13.441  14.133  0.1795 -0.0689 -0.0150
29849W        W45743  11.920  16.744  12.485 -0.2295 -0.1152  0.1180
29850W        W45744   1.617  15.725  15.244  0.2174  0.1291 -0.0439
29851W        W45745   9.661   8.790   1.944 -0.2283 -0.1491 -0.1347
29852W        W45746   0.657   4.334  13.226  0.3971 -0.1858 -0.2706
29853W        W45747  14.776   6.613   4.469 -0.0474 -0.0661 -0.2819
29854W        W45748   7.019   6.418   3.636 -0.0469  0.1012 -0.3576
29855W        W45749   9.781  10.978   3.560  0.1362  0.1134  0.0929
29856W        W45750  11.623   8.140   0.795  0.2878 -0.1764 -0.3651
29857W        W45751  16.471   7.578  12.001  0.0317 -0.0548  0.0940
29858W        W45752   9.790  12.481   0.342 -0.1139 -0.0322  0.1056
29859W        W45753   8.943   9.983   2.076 -0.2662 -0.0158 -0.2028
29860W        W45754  17.671   1.387  12.278 -0.1879 -0.0344 -0.1034
29861W        W45755  16.311  15.527   0.288 -0.1177 -0.2043 -0.3542
29862W        W45756   6.152   3.628  15.525  0.1648 -0.2307  0.0835
29863W        W45757   6.475  11.577  12.299 -0.3173  0.0893  0.4817
29864W        W45758  18.133   7.273   0.349  0.1623 -0.1364 -0.0633
29865W        W45759   2.133   3.251   4.876  0.1276 -0.2091 -0.0941
29866W        W45760   2.426  15.494   0.559  0.1843  0.4738  0.2520
29867W        W45761   9.128   3.312   3.104 -0.4168  0.1489 -0.0412
29868W        W45762   8.769   1.775   2.633 -0.0764 -0.1949  0.0121
29869W        W45763   7.658  12.848   3.474 -0.0204  0.0471  0.0131
29870W        W45764   9.490   0.623   1.085 -0.0341 -0.0850 -0.0998
29871W        W45765   1.244   6.652   1.200  0.0896  0.0415  0.1089
29872W        W45766   9.325   0.897   4.564 -0.0410 -0.0659 -0.1766
29873W        W45767   3.248  17.422  13.245 -0.0637  0.0736  0.0770
29874W        W45768  16.574   9.242   0.874  0.0170 -0.0407 -0.0125
29875W        W45769  11.142  10.499   0.308 -0.1967  0.3470  0.1205
29876W        W45770  10.605   9.560  11.469  0.0933 -0.1166 -0.0110
29877W        W45771  16.791  15.024   5.850  0.0284  0.0996 -0.2750
29878W        W45772   3.859  13.341   4.194  0.0840  0.0940 -0.2433
29879W        W45773  18.279   9.307   0.449  0.2975 -0.0286 -0.0683
29880W        W45774  14.616  12.441  11.327  0.1104  0.1248 -0.3219
29881W        W45775   7.977   6.627   9.867 -0.2449  0.1435  0.0121
29882W        W45776  15.666  12.031   2.221 -0.0265  0.0067 -0.1660
29883W        W45777   9.183   0.573  13.854  0.2459  0.5324  0.0927
29884W        W45778   4.788  13.096   4.682  0.0725  0.3251 -0.2715
29885W        W45779  18.079  11.505   0.496 -0.1327  0.0086  0.2327
29886W        W45780  11.401   1.059  11.622 -0.2376 -0.5761 -0.2881
29887W        W45781   4.641   6.660  15.933  0.0540  0.0662 -0.0697
29888W        W45782   4.795   9.862  12.459 -0.0842  0.1951  0.0648
29889W        W45783  15.732  13.837   4.862  0.1358 -0.3011  0.0244
29890W        W45784   4.909   8.933  10.838 -0.2491  0.0580  0.1243
29891W        W45785   2.936  12.133   2.228 -0.2758 -0.0140  0.0742
29892W        W45786  13.605   8.085  14.534  0.4627  0.1979  0.1820
29893W        W45787   7.547  13.732  13.180  0.0213 -0.2155 -0.3102
29894W        W45788  14.648   4.929   4.660 -0.1543 -0.1206 -0.0386
29895W        W45789   7.293  15.031   4.576  0.1755 -0.0489 -0.3951
29896W        W45790   1.403   8.450  13.061 -0.3528 -0.0943 -0.1102
29897W        W45791  14.784   2.451   2.913  0.2257  0.1599 -0.0606
29898W        W45792   2.986   7.490  15.492  0.4375  0.2151  0.2409
29899W        W45793   0.619  17.464  13.478 -0.2900  0.1377  0.0776
29900W        W45794   4.458   3.526  11.592 -0.1189  0.1768  0.1535
29901W        W45795  12.286   8.331  13.346  0.1644  0.0862  0.0721
29902W        W45796  14.587   7.534   2.136 -0.0057  0.0233  0.1391
29903W        W45797  10.864  10.795  14.404  0.1771  0.0134  0.0325
29904W        W45798  17.242  10.769  15.169 -0.2076 -0.2064  0.2268
29905W        W45799  14.306   1.321  11.928 -0.0244 -0.0449  0.1629
29906W        W45800   7.954  12.415  10.850  0.2042  0.2375  0.1419
29907W        W45801   6.408   0.936   2.812  0.0295 -0.0437  0.3306
29908W        W45802   7.887   4.637  11.286  0.0058  0.0096  0.3043
29909W        W45803   7.922   6.703   0.613  0.3541  0.1292 -0.0442
29910W        W45804  10.337  12.940   1.258  0.3386 -0.1774  0.2915
29911W        W45805  10.250  18.051  12.589  0.1749 -0.0675 -0.1443
29912W        W45806   6.138   9.322   3.448 -0.2685 -0.4357 -0.0003
29913W        W45807   4.112  18.003  11.824  0.7511  0.1795 -0.2216
29914W        W45808   6.954  13.142   3.027 -0.3117 -0.3216 -0.1756
29915W        W45809  12.418   0.801  14.919  0.3429  0.3100 -0.4023
29916W        W45810   8.858  17.110  15.575 -0.1246  0.3389 -0.2736
29917W        W45811   1.267  10.517  15.663 -0.1950  0.2306  0.3468
29918W        W45812  15.843  15.043  14.414  0.0119  0.0121 -0.0282
29919W        W45813   4.349   4.325   5.131  0.1987 -0.1132 -0.4724
29920W        W45814  11.507  12.924   1.275 -0.2685  0.0572  0.2820
29921W        W45815   9.225  11.051  12.890  0.1152 -0.2548 -0.2666
29922W        W45816  10.886   0.365  15.290 -0.0410 -0.0638 -0.0972
29923W        W45817  10.240   4.085   4.274 -0.0420 -0.1245 -0.1021
29924W        W45818   6.946   4.276   1.924  0.1242 -0.0930 -0.1724
29925W        W45819  15.817  18.212   4.037  0.0472 -0.0637  0.1278
29926W        W45820   7.942   4.246   2.413 -0.0375  0.0823 -0.1257
29927W        W45821  13.009   2.457  11.784 -0.2925 -0.4541  0.1458
29928W        W45822  11.790   9.604  15.113  0.0447 -0.2749 -0.1653
29929W        W45823   2.475   0.525   1.150  0.1335  0.0852  0.0845
29930W        W45824  18.004   9.318   0.896 -0.0384 -0.0437  0.0545
29931W        W45825  15.108  15.527  13.082 -0.2401 -0.3181  0.1565
29932W        W45826  16.659  12.168  15.504 -0.1106  0.0057  0.6098
29933W        W45827  10.301  18.308  11.497 -0.0595  0.2889 -0.2027
29934W        W45828  16.679   8.708   4.536  0.1238  0.1548  0.0705
29935W        W45829  11.184   2.608  14.281  0.2048 -0.1207  0.0409
29936W        W45830  11.009   0.977  14.570  0.1212 -0.0373 -0.1167
29937W        W45831  15.442  18.014   2.391  0.3978  0.2069  0.3738
29938W        W45832   9.826  17.593  14.066 -0.1449 -0.1804  0.0823
29939W        W45833   2.340   2.358  11.863 -0.0881 -0.2723 -0.0838
29940W        W45834  10.943   4.594  15.958 -0.1312 -0.0228 -0.4128
29941W        W45835  13.695   0.887   2.751  0.1893 -0.2947 -0.0134
29942W        W45836  17.941  10.323   4.099 -0.1625 -0.1310  0.2162
29943W        W45837   8.479   0.210  11.275  0.0508  0.0573  0.0451
29944W        W45838   4.730   7.111   5.605  0.2091 -0.1256 -0.0641
29945W        W45839   4.729   2.503   2.167 -0.0101  0.0688  0.0010
29946W        W45840  10.271  16.565   4.907  0.0724 -0.0210  0.1863
29947W        W45841  13.952   2.943   5.177 -0.0948  0.1515 -0.0237
29948W        W45842  17.128  12.126  15.224  0.0765 -0.1327 -0.6509
29949W        W45843   3.088  15.534  11.531 -0.1084 -0.5166 -0.2145
29950W        W45844   4.624  10.126  14.523 -0.2763 -0.0543 -0.0608
29951W        W45845  13.133  15.726   3.724 -0.0274 -0.3249 -0.4840
29952W        W45846   6.053  16.167   3.103 -0.0186  0.0728 -0.1754
29953W        W45847  12.056   8.658  14.178 -0.0066  0.3201 -0.3402
29954W        W45848  14.156  14.609  15.837  0.0115 -0.3052  0.1833
29955W        W45849   4.959   8.803  14.196  0.1791 -0.0274 -0.1358
29956W        W45850   3.575   0.501  15.594  0.1824 -0.1366 -0.0637
29957W        W45851   5.959   3.161  14.039  0.0734 -0.2458 -0.1874
29958W        W45852   8.287   1.166   4.568  0.0255 -0.1139  0.1144
29959W        W45853  13.818  14.396  12.475 -0.0742  0.0122 -0.2115
29960W        W45854  12.036  16.324   5.061  0.4176  0.1467 -0.4320
29961W        W45855   8.870   2.247  13.273 -0.3113 -0.3027 -0.1364
29962W        W45856   5.342   9.687  11.776  0.0312  0.0137 -0.0371
29963W        W45857  10.963   8.026   1.319 -0.2062  0.0909  0.3236
29964W        W45858   3.838  15.037  14.900 -0.0993  0.0542 -0.0224
29965W        W45859   2.841  10.434   2.775  0.0928  0.4389 -0.1978
29966W        W45860  17.338  12.205  12.847  0.2526 -0.0866  0.1039
29967W        W45861  16.415  16.309   1.618 -0.0228 -0.0761 -0.1567
29968W        W45862  16.577  11.459  16.043 -0.1220 -0.0090  0.2147
29969W        W45863   7.827  10.625  10.537 -0.2095 -0.3503 -0.1763
29970W        W45864  12.388   0.237  14.946  0.2177 -0.1223  0.2328
29971W        W45865   6.304   5.023  12.499 -0.2369 -0.0724  0.0482
29972W        W45866   5.914  16.152  13.819  0.1096 -0.4254 -0.0318
29973W        W45867   2.636   3.619  13.591  0.0071  0.0440  0.0194
29974W        W45868  18.439   5.400   4.984 -0.0128  0.0175 -0.1772
29975W        W45869  15.265  10.491  16.034  0.1199 -0.0181  0.2944
29976W        W45870   6.404  10.636   3.109  0.1012 -0.0237  0.0081
29977W        W45871   4.847  18.303   3.240  0.0101 -0.2849 -0.0972
29978W        W45872   0.373  13.400   1.742  0.0299  0.0911  0.0462
29979W        W45873   9.985  11.352   2.114  0.0785 -0.1204  0.3862
29980W        W45874   7.198  15.223  11.341  0.0464  0.2043 -0.2820
29981W        W45875  15.646  17.745  10.518 -0.0077  0.3660 -0.1613
29982W        W45876   5.681   5.173   0.900  0.1995  0.2289  0.1828
29983W        W45877  13.667  16.760  15.744  0.0650  0.0649  0.0678
29984W        W45878   1.801   8.470   4.821  0.1426  0.1704  0.0344
29985W        W45879   8.967  15.918   1.131 -0.0108  0.2960 -0.0323
29986W        W45880  10.349   4.414   3.273 -0.4454 -0.1208 -0.1017
29987W        W45881  13.512  13.103  13.245 -0.0499  0.0940  0.0999
29988W        W45882  17.863  16.907  14.710 -0.2846 -0.1566  0.0763
29989W        W45883  10.651   4.148   1.998  0.0691  0.1458 -0.1525
29990W        W45884  14.917   7.797   1.858 -0.2038 -0.0085  0.1109
29991W        W45885  18.059  13.214  14.406 -0.2812 -0.0815  0.0883
29992W        W45886  13.081   9.012  12.111 -0.0260  0.2420  0.0457
29993W        W45887  11.352  16.704  13.818  0.0620  0.1345 -0.0316
29994W        W45888  15.347   0.204   2.030 -0.2935  0.2826  0.1882
29995W        W45889   3.025  11.237  11.151 -0.0028 -0.0082 -0.1700
29996W        W45890   5.582  10.062   1.541  0.0599 -0.1312 -0.0005
29997W        W45891   7.003   1.885  13.697  0.2285  0.0509 -0.0517
29998W        W45892   9.858   2.026  15.364  0.2413  0.0008 -0.1771
29999W        W45893   5.594  15.605  13.684 -0.0231 -0.0085 -0.2261
30000W        W45894  13.879   0.934  14.567 -0.1200 -0.1392 -0.0345
30001W        W45895   9.607   0.918  10.901  0.1134 -0.2263 -0.2546
30002W        W45896  18.223   5.672   4.441 -0.1528  0.0149  0.2814
30003W        W45897  17.031  14.112  16.019 -0.1380 -0.0721 -0.2705
30004W        W45898  16.204   8.196   2.427  0.0524  0.0494  0.2646
30005W        W45899   9.272   2.821  13.595  0.1562 -0.1198  0.0721
30006W        W45900  12.473  14.777   3.324 -0.1244  0.0521 -0.1060
30007W        W45901  10.832  10.062   0.439  0.0974  0.1199 -0.0032
30008W        W45902   3.799  11.108   4.949 -0.3317 -0.0180  0.1612
30009W        W45903   1.375   6.390   1.594 -0.3010 -0.2724 -0.1577
30010W        W45904  16.986  17.363   4.310  0.2382  0.1224 -0.0053
30011W        W45905   8.150  15.739  11.429  0.1045 -0.2847  0.2378
30012W        W45906  10.654   3.274  15.653  0.0871  0.0006 -0.1753
30013W        W45907  10.384  16.654   3.647  0.0485  0.0337 -0.2924
30014W        W45908   5.072  17.469   5.016  0.3158 -0.1265 -0.0682
30015W        W45909   5.196   4.222   2.321 -0.0065  0.0066 -0.0466
30016W        W45910  15.097   6.875  15.051  0.0045 -0.1935 -0.4160
30017W        W45911  11.974  15.515   1.564 -0.0207 -0.1062  0.1692
30018W        W45912  16.930  16.232  13.021 -0.0691 -0.4310 -0.1059
30019W        W45913   9.134   7.440  14.625  0.2390 -0.1597 -0.0219
30020W        W45914   7.677  15.722  14.813  0.0906 -0.1316  0.2618
30021W        W45915   8.296   1.960  15.506  0.1032 -0.1691 -0.2486
30022W        W45916  13.503   5.425   3.857 -0.0374  0.2122  0.0081
30023W        W45917  17.588   2.645  12.947 -0.0068 -0.1423 -0.2106
30024W        W45918  17.346   7.633   4.811  0.2748 -0.1361 -0.0441
30025W        W45919  12.791   4.358  12.029  0.0588  0.0931 -0.1270
30026W        W45920   3.816  14.832   0.424 -0.0369 -0.1726  0.1809
30027W        W45921   9.967   9.996  15.119  0.2931  0.1759 -0.1486
30028W        W45922   5.685  13.588  16.087  0.4069  0.1457  0.1596
30029W        W45923  17.504   4.397  15.957 -0.0345 -0.1949  0.1625
30030W        W45924  13.195  14.728   4.008  0.1210  0.4550 -0.2531
30031W        W45925  12.028  10.141  14.456  0.0536  0.0252 -0.4600
30032W        W45926   3.718   8.059   4.802 -0.2968  0.0133  0.0601
30033W        W45927  10.036   2.051   2.630  0.4642 -0.1970  0.2653
30034W        W45928  17.901   4.152  15.748  0.1165  0.0669  0.4034
30035W        W45929   8.448   2.175   5.244 -0.2326  0.1284 -0.0350
30036W        W45930   1.306  16.344  14.759 -0.2373  0.1391  0.1560
30037W        W45931   7.596   6.418  14.915  0.2185 -0.0920 -0.0824
30038W        W45932  18.402   6.127   0.349 -0.3155 -0.0082 -0.2210
30039W        W45933  14.625  12.361   4.140 -0.0578  0.1841  0.1187
30040W        W45934   2.744   2.371   0.819 -0.0084 -0.1533 -0.0848
30041W        W45935   4.556  15.655  13.524  0.2382 -0.0545  0.0823
30042W        W45936   4.851   6.521  13.788 -0.1129  0.3302 -0.0348
30043W        W45937   0.107   0.543  15.045  0.3880  0.0352 -0.3990
30044W        W45938  12.691  15.947  11.130  0.1577 -0.2074  0.2678
30045W        W45939  10.240  16.145  12.564  0.0402 -0.0006  0.3140
30046W        W45940  14.220   2.241   0.331 -0.1506 -0.3133 -0.0396
30047W        W45941   8.328  14.353  12.014  0.0451  0.3068 -0.1856
30048W        W45942   8.929   1.857  11.937  0.2914  0.3311 -0.1831
30049W        W45943   7.291   7.133   3.346 -0.3388 -0.2511 -0.2221
30050W        W45944  10.829  13.990  11.028 -0.2631 -0.1767 -0.0339
30051W        W45945  11.482   7.944   0.397 -0.1986 -0.2370  0.0173
30052W        W45946  16.448   4.780  14.160  0.0312 -0.1608  0.2167
30053W        W45947  10.160  16.784   4.478  0.0019  0.0831 -0.0618
30054W        W45948  10.819  10.774   4.782 -0.0283  0.0340  0.2187
30055W        W45949  18.085  14.167  14.396 -0.0529  0.1858  0.2679
30056W        W45950   7.135   1.796  15.220  0.1519  0.3940  0.3758
30057W        W45951  15.990  10.935   1.564  0.4336  0.2690 -0.1176
30058W        W45952  14.670  10.407  14.605 -0.0372  0.3411  0.0946
30059W        W45953  10.167  16.225  14.236  0.0207  0.1125  0.0738
30060W        W45954   5.182   4.074   4.321  0.0562 -0.1684 -0.0656
30061W        W45955   4.285   9.530   4.991  0.1600  0.0126 -0.0272
30062W        W45956  13.852  15.759   3.073 -0.2017  0.0106  0.0340
30063W        W45957  14.331   9.661   3.345  0.0357  0.0934  0.2378
30064W        W45958   4.489  17.980   3.929 -0.4581 -0.1879  0.0322
30065W        W45959  15.661   5.453  11.988 -0.1466 -0.1219  0.0101
30066W        W45960  14.866   6.891   2.654 -0.0683 -0.0806  0.1359
30067W        W45961   1.704  13.861   3.038 -0.2284  0.1568  0.0046
30068W        W45962  12.103  10.895   3.123 -0.1980  0.1197  0.2405
30069W        W45963   2.417  16.786  12.576  0.0039  0.0508  0.0133
30070W        W45964   7.242   8.302   4.561  0.0763 -0.4143  0.0204
30071W        W45965   0.783   4.284   0.500 -0.0524 -0.2361 -0.0805
30072W        W45966   4.844   1.611   0.525  0.0196  0.0376 -0.0035
30073W        W45967  17.698   8.841  12.490  0.3207 -0.0092  0.0328
30074W        W45968  11.882   9.923   0.412  0.2941 -0.1940  0.0901
30075W        W45969  18.186   7.596  11.814 -0.0409 -0.1471  0.0366
30076W        W45970  11.354   3.572  10.175 -0.1034 -0.0659  0.1769
30077W        W45971   4.315  11.405   3.467  0.0551  0.0356 -0.0487
30078W        W45972   3.535   3.357   4.447 -0.1399 -0.4064  0.1958
30079W        W45973   2.019   5.250  11.160 -0.0880 -0.1197 -0.2409
30080W        W45974   8.664  17.821   4.272 -0.4711  0.0873  0.0263
30081W        W45975  15.403   8.241   1.246 -0.2504 -0.2665  0.2157
30082W        W45976   8.497  11.269   4.783  0.1187  0.0331  0.0667
30083W        W45977  13.902  14.020   3.785 -0.1349 -0.3247  0.0284
30084W        W45978   2.884  15.387   3.002  0.0802  0.1725  0.0203
30085W        W45979  10.953   3.276  11.226 -0.0773  0.2059  0.1132
30086W        W45980  11.303  10.045  11.847  0.0217  0.0483 -0.2227
30087W        W45981   7.241   1.965   5.979  0.2256 -0.2610  0.1303
30088W        W45982   4.110  14.679   1.931 -0.3121  0.2079  0.2417
30089W        W45983   0.334   7.999  14.454  0.1372  0.2098  0.0599
30090W        W45984  16.736   9.594  14.375 -0.0076  0.2201 -0.0313
30091W        W45985   4.448   4.617  15.774 -0.0927 -0.0792  0.1426
30092W        W45986   8.015  11.608   2.827 -0.0054  0.1897 -0.0396
30093W        W45987   4.799   9.878   3.996 -0.4156 -0.0184  0.2514
30094W        W45988  11.414   6.189   2.863 -0.1397  0.1951 -0.3252
30095W        W45989   4.205   0.235   3.910 -0.1263 -0.2010 -0.0619
30096W        W45990  13.713   0.157  14.058 -0.2587 -0.2806  0.0964
30097W        W45991   6.284  15.227   1.440  0.1152 -0.4217 -0.2337
30098W        W45992  11.131  15.799   1.807  0.2158 -0.2620  0.1180
30099W        W45993  10.278  10.170  16.122  0.1282  0.1222 -0.2337
30100W        W45994  17.297   3.926  14.601 -0.3835 -0.1321  0.2194
30101W        W45995  17.417   0.070  14.024  0.1841  0.1961 -0.0093
30102W        W45996   6.078   5.572  12.539 -0.0388  0.3025 -0.2378
30103W        W45997  13.829   9.694   0.483 -0.2006 -0.3486  0.4852
30104W        W45998   0.405   3.406   5.459 -0.3507 -0.2777 -0.1398
30105W        W45999   1.629   0.753   1.650  0.0280  0.1300  0.1037
30106W        W46000   0.655  11.472   0.816  0.3610 -0.1876  0.3887
30107W        W46001  17.114   0.717  14.647 -0.0231 -0.0100  0.0903
30108W        W46002   7.907   1.701   5.155 -0.3623 -0.1638 -0.0271
30109W        W46003   8.086   3.880   1.396  0.0571  0.0043  0.0226
30110W        W46004   7.187  12.553   4.786  0.5059  0.0830  0.0798
30111W        W46005   3.661   6.387   0.274  0.2778  0.2346 -0.0863
30112W        W46006   6.994  11.386  15.761 -0.0891 -0.4069  0.1804
30113W        W46007   0.670  18.068  10.188 -0.2115  0.2180  0.2006
30114W        W46008  12.979   0.899  13.473 -0.2141  0.0489 -0.0735
30115W        W46009  10.179   9.753  13.772 -0.1665  0.1789 -0.2464
30116W        W46010   7.278  14.639  14.943  0.2315 -0.0075 -0.0450
30117W        W46011   0.389  16.508   3.535 -0.1327 -0.2608  0.1416
30118W        W46012  11.544  15.242  13.283 -0.0532 -0.2724 -0.2364
30119W        W46013   7.207   0.673  14.467 -0.0892  0.0135 -0.0460
30120W        W46014   1.143   4.464  12.946 -0.0660  0.0512  0.1881
30121W        W46015  13.765   7.348   5.795  0.0869  0.1153 -0.1253
30122W        W46016   7.060   1.262   0.783  0.0140  0.0455  0.0419
30123W        W46017   9.270   6.557   4.818 -0.3249  0.2116 -0.0613
30124W        W46018   2.106  12.089   0.465  0.0182 -0.1349 -0.2529
30125W        W46019  14.862   1.665  12.805 -0.1802 -0.3330  0.3689
30126W        W46020   6.735   7.775   0.254 -0.1839 -0.0561  0.0467
30127W        W46021   5.900  15.641  11.292  0.0586 -0.0452 -0.0124
30128W        W46022   8.492  16.370  12.388 -0.0943  0.1247  0.1044
30129W        W46023   7.110   2.690  13.083 -0.0158 -0.3463 -0.0682
30130W        W46024   6.321   7.460   2.964  0.0583  0.0857 -0.2825
30131W        W46025   6.374   1.993  15.046  0.2227 -0.0881 -0.0418
30132W        W46026   7.594  13.106  13.782 -0.0385  0.0061  0.2252
30133W        W46027  13.319  16.088  11.459  0.1376 -0.0975 -0.1608
30134W        W46028   4.417   3.836  15.428  0.0727  0.1300 -0.1922
30135W        W46029   2.101  16.596   4.720  0.1317  0.0007 -0.2433
30136W        W46030   1.123   5.159  16.152  0.1511 -0.0294  0.1047
30137W        W46031   8.183   3.124   4.125 -0.1528 -0.1842 -0.4438
30138W        W46032  13.505   2.638   5.097  0.1934 -0.1038  0.1668
30139W        W46033   9.441  16.433   0.557 -0.1299  0.0096 -0.2714
30140W        W46034   8.576  12.522   3.800 -0.1608 -0.2529 -0.3955
30141W        W46035  18.079  16.292   0.693 -0.0004  0.1967 -0.0895
30142W        W46036   3.020  15.254  14.397  0.0288  0.3219  0.4228
30143W        W46037   4.145   3.964   2.828 -0.1551 -0.0797 -0.0261
30144W        W46038   4.368   6.804  10.366  0.4040  0.0394 -0.0151
30145W        W46039   3.839  13.886   4.782  0.2150 -0.1334  0.0293
30146W        W46040  11.359   8.421   2.562  0.0527 -0.3221 -0.0597
30147W        W46041  16.034  11.607  11.398  0.0577 -0.2367 -0.0986
30148W        W46042  14.233   5.456   4.719  0.1378 -0.0946  0.1649
30149W        W46043   6.766   7.803  14.307  0.1203  0.0474  0.0993
30150W        W46044   6.251  13.299   1.237 -0.2539 -0.0697  0.0363
30151W        W46045  16.356   9.265  11.350  0.2593  0.2792  0.0108
30152W        W46046   7.256   0.876  11.072 -0.1301  0.0686  0.2045
30153W        W46047   6.000  12.317   3.395 -0.0712  0.0521  0.2366
30154W        W46048  18.258   2.816  15.132 -0.1122  0.0477  0.0603
30155W        W46049   8.153  12.242   3.713 -0.1332  0.1834  0.0211
30156W        W46050  10.521   9.395  13.429 -0.0416 -0.1326 -0.0801
30157W        W46051   0.536  15.124  14.514 -0.3610  0.0641  0.1466
30158W        W46052   5.695   1.911  12.791  0.2238 -0.0298 -0.3675
30159W        W46053  16.382  13.300  14.761  0.1092 -0.1818 -0.0823
30160W        W46054   7.398  17.821   4.082  0.0798 -0.1984 -0.0737
30161W        W46055  15.740  14.637  14.607  0.3439 -0.1832 -0.1497
30162W        W46056   2.995   3.371  12.856  0.0407  0.0876 -0.1156
30163W        W46057  10.030  11.816   0.023  0.0055 -0.1127  0.0688
30164W        W46058   3.598  16.381  13.896  0.0821 -0.1821 -0.0457
30165W        W46059   2.258  15.739   1.653 -0.0963 -0.0026 -0.0804
30166W        W46060  17.833  16.913   2.841  0.0420  0.1997  0.1044
30167W        W46061   8.843   5.328  11.966 -0.0750 -0.2267  0.2888
30168W        W46062   3.320   3.132   2.981 -0.1978  0.3017 -0.1139
30169W        W46063  11.709   8.510   4.332  0.1754  0.1332 -0.0679
30170W        W46064  11.849  10.619   5.458 -0.0531  0.1030  0.0135
30171W        W46065   1.611  11.679  12.308 -0.2981 -0.2126 -0.0418
30172W        W46066   9.206   0.887  15.490 -0.0683  0.1996  0.0619
30173W        W46067  12.831   2.273   1.621 -0.1035 -0.3250 -0.0474
30174W        W46068   3.361   0.273   3.916  0.0816 -0.0509  0.0582
30175W        W46069   1.340   2.379   2.246  0.4151  0.1715 -0.0895
30176W        W46070  11.642  15.872   0.178  0.4509  0.0844 -0.1665
30177W        W46071  12.828   3.323  12.156 -0.2431  0.2241 -0.3548
30178W        W46072   5.388  18.350  15.377 -0.0538  0.1098 -0.1105
30179W        W46073   1.336   1.802  12.386  0.1973 -0.1094 -0.1475
30180W        W46074   5.431   5.546   3.912 -0.0423 -0.0320 -0.0640
30181W        W46075   1.757   1.099  10.468  0.1410 -0.2781  0.0275
30182W        W46076  12.111   7.288   1.025  0.0520 -0.2340 -0.0631
30183W        W46077  13.195  16.948   5.206  0.1229  0.1576  0.2099
30184W        W46078   9.763  15.442  12.096 -0.1984  0.4543  0.0173
30185W        W46079   5.076  13.578   4.548 -0.0644  0.1219  0.0898
30186W        W46080   6.020  17.437  14.712 -0.0375  0.2192  0.0286
30187W        W46081   9.009   2.277   2.911 -0.2880  0.0096  0.0220
30188W        W46082   4.313   0.431   4.397  0.3904  0.3815 -0.2222
30189W        W46083   7.397   2.225   4.021 -0.0061  0.0732  0.1773
30190W        W46084   8.762   4.344  10.791 -0.1579  0.0104 -0.1216
30191W        W46085   5.845  14.724   1.704 -0.1446  0.2766  0.1409
30192W        W46086   6.090   1.401   4.112  0.1181 -0.2384 -0.0761
30193W        W46087   8.780  14.710   2.514 -0.0654 -0.2426 -0.3979
30194W        W46088   9.708   1.761   0.680  0.2961 -0.1281  0.1088
30195W        W46089   4.435   8.598  14.331  0.0581  0.3395 -0.0061
30196W        W46090   1.192  15.104  12.530  0.4208  0.0668  0.3440
30197W        W46091   9.845  11.068  13.637 -0.0698 -0.1051 -0.0188
30198W        W46092   1.455  13.931   0.927  0.1310  0.1094  0.0052
30199W        W46093   2.078   9.977   1.093 -0.1579  0.0039  0.1691
30200W        W46094  14.973   5.361  16.122 -0.2306  0.0579  0.1974
30201W        W46095   2.457   2.717   3.850  0.0692  0.1311  0.0894
30202W        W46096   3.273  15.977  13.335 -0.0202 -0.1407  0.2326
30203W        W46097   6.987  14.216   2.415  0.1761 -0.3785  0.2420
30204W        W46098  18.196   1.172   5.810  0.0891  0.2669 -0.0152
30205W        W46099   9.217   6.437   1.276 -0.1210 -0.2689  0.0017
30206W        W46100   2.707  12.713  14.854  0.1012 -0.0411 -0.1181
30207W        W46101   0.661  16.019   1.382  0.1651  0.0278 -0.2036
30208W        W46102   3.624  14.457   0.655 -0.0950  0.1752  0.1843
30209W        W46103  12.819  13.426   2.866 -0.2918 -0.1819  0.0749
30210W        W46104   2.194   1.351   4.333  0.0661 -0.0543  0.1071
30211W        W46105   8.224   8.984  12.849 -0.0744  0.1336 -0.2103
30212W        W46106   1.152  18.350  13.103 -0.4284 -0.1128  0.1590
30213W        W46107   9.868  16.211   3.057  0.2157 -0.0705 -0.3416
30214W        W46108   5.130   0.298  12.570 -0.0802  0.0257  0.1260
30215W        W46109   4.887   7.141   3.688 -0.2382 -0.0665 -0.0174
30216W        W46110   1.865   6.015   4.611 -0.2354 -0.2072  0.1938
30217W        W46111  17.902   5.425   1.941 -0.1898 -0.1640 -0.0731
30218W        W46112  14.544   9.976   1.858 -0.0198 -0.0350  0.2559
30219W        W46113   9.725   4.963  15.499  0.2110 -0.0810 -0.1474
30220W        W46114  12.559  10.100   4.449 -0.1758 -0.0143  0.0899
30221W        W46115  15.999  10.911   0.516 -0.2468  0.0695  0.0708
30222W        W46116  12.404  18.389   0.764 -0.1829  0.1585 -0.1202
30223W        W46117  12.575   4.411   5.381 -0.1170  0.1034  0.1560
30224W        W46118   1.909   7.834   1.068  0.1631 -0.0397  0.3345
30225W        W46119   9.170  14.174  15.081  0.2872  0.0322 -0.0676
30226W        W46120   6.091   4.113   2.394 -0.0477  0.1993 -0.2327
30227W        W46121   7.507   5.244   0.746  0.1824  0.1040  0.2725
30228W        W46122  13.780   6.407   1.832 -0.0524  0.2053  0.0277
30229W        W46123  10.391  14.489  12.347  0.2907 -0.1272 -0.3895
30230W        W46124   3.099  10.343   0.062  0.1689  0.1024  0.0376
30231W        W46125   3.542  14.595  10.711  0.0553 -0.0454  0.2981
30232W        W46126   2.866  16.265  15.798 -0.0270 -0.3114 -0.1992
30233W        W46127   1.949   9.723   5.677  0.0313  0.0910 -0.2982
30234W        W46128  13.850  10.969  11.895  0.1338  0.0389 -0.0936
30235W        W46129  14.278   8.157  11.226  0.0215  0.1181 -0.2450
30236W        W46130  17.019   4.325   0.716  0.1179 -0.2105  0.1774
30237W        W46131  14.948  15.262   0.769  0.2257  0.0205 -0.2351
30238W        W46132  10.270   3.720   3.765 -0.3304 -0.0135  0.1558
30239W        W46133   0.719   6.741  13.264 -0.2987  0.0838 -0.2749
30240W        W46134   1.301  16.964   3.541 -0.2944  0.1510  0.0536
30241W        W46135  12.286   6.539   4.423 -0.0402  0.1460  0.1135
30242W        W46136   6.319   2.886  13.117 -0.0203  0.0862  0.2019
30243W        W46137   4.753   8.034  15.721 -0.0977 -0.1201  0.1521
30244W        W46138  15.525   5.724  14.324  0.0740 -0.2550  0.2323
30245W        W46139  13.076   2.833  15.928  0.0849 -0.3528 -0.4253
30246W        W46140  10.613   4.820  12.359  0.3259 -0.0923  0.1550
30247W        W46141  15.666   8.842  14.146 -0.1750  0.0081  0.2790
30248W        W46142  10.081  16.280   1.341  0.1066  0.0208  0.1142
30249W        W46143  12.986   6.745  13.638  0.2216  0.1002  0.1005
30250W        W46144  13.378   5.766  11.155 -0.1106 -0.0903 -0.3670
30251W        W46145  10.927   4.200   1.193  0.1884  0.0432  0.1738
30252W        W46146  17.581   0.737  14.121  0.0423 -0.1655  0.5026
30253W        W46147  10.500   2.500   1.869  0.1176  0.2601  0.2430
30254W        W46148   1.624   5.862  15.977  0.1270  0.1621 -0.1500
30255W        W46149   6.123  17.155  13.880  0.0540 -0.1872 -0.2847
30256W        W46150  15.342   1.508   3.743  0.0697 -0.1369  0.0701
30257W        W46151   0.461   9.939  15.726 -0.1205 -0.0092  0.1380
30258W        W46152   0.647  11.993  13.955 -0.4121  0.0239  0.1894
30259W        W46153  17.004   2.028  15.462  0.1845  0.1215  0.0793
30260W        W46154   3.393   6.938  13.121 -0.0906  0.0208  0.0162
30261W        W46155  15.522  11.918   4.159 -0.3524 -0.1058  0.4748
30262W        W46156   5.661   5.252  13.786  0.0429  0.2135  0.0609
30263W        W46157   1.149   5.201   5.408 -0.0084  0.0275  0.3832
30264W        W46158  15.238  18.061  11.431 -0.5054 -0.2150 -0.0759
30265W        W46159  10.897   9.255   1.705 -0.3468 -0.2818 -0.0011
30266W        W46160  18.318   8.899   3.589  0.0705  0.0628 -0.0698
30267W        W46161   3.346  10.647  12.084  0.2428  0.1438 -0.0213
30268W        W46162   6.726  17.705   1.141 -0.5473 -0.2292 -0.2683
30269W        W46163  12.080  16.922   0.704  0.0727 -0.0885  0.1782
30270W        W46164   6.240  16.684   4.369  0.2714 -0.3308  0.0649
30271W        W46165  16.877   6.515  15.137 -0.2203  0.4966  0.1344
30272W        W46166   7.619  11.272  13.996 -0.0201 -0.1728  0.0708
30273W        W46167  11.766  14.878  14.103  0.1161  0.1988 -0.0576
30274W        W46168   1.564   0.136  15.713 -0.1125  0.0170  0.1306
30275W        W46169   4.624  17.243   2.988  0.0602  0.1995 -0.0433
30276W        W46170   8.344   4.533   3.227  0.3433  0.0276 -0.1423
30277W        W46171  16.521  14.006  12.255  0.5064 -0.0802 -0.0534
30278W        W46172   0.533   3.664   2.002 -0.0293 -0.1175 -0.0345
30279W        W46173   9.696  12.154   4.927  0.1202 -0.2834 -0.0916
30280W        W46174  14.332   2.723   1.790  0.2649 -0.1114  0.0489
30281W        W46175  12.323   8.435   2.303 -0.2001 -0.0054  0.0366
30282W        W46176  12.882   9.163  15.270  0.3969 -0.4090 -0.3575
30283W        W46177  11.660  15.899   3.002 -0.0745  0.0395  0.0471
30284W        W46178  15.110  12.271  15.551  0.1127 -0.0907  0.4456
30285W        W46179  17.806   2.661   2.965  0.1038 -0.0927 -0.2143
30286W        W46180  16.034   3.222   4.250 -0.2063  0.3371  0.1620
30287W        W46181  16.041   3.272   5.176  0.4241  0.1573 -0.0992
30288W        W46182   4.180   1.290   5.302  0.0856  0.2902  0.1844
30289W        W46183   1.095   6.043  11.986  0.1920  0.0854 -0.1235
30290W        W46184   4.694  11.932  11.880  0.3217  0.0930  0.1286
30291W        W46185   5.066  12.534   4.752  0.3262 -0.1762 -0.0126
30292W        W46186   4.368   8.741  15.228  0.0956 -0.2844 -0.0834
30293W        W46187  14.773   7.968   5.015 -0.1709 -0.3411  0.0882
30294W        W46188   8.211  14.389   0.978 -0.0824 -0.0030 -0.1179
30295W        W46189  12.176   4.683  10.500  0.1309  0.3995  0.0974
30296W        W46190  17.038  11.558   3.681 -0.4162 -0.4117  0.2063
30297W        W46191   8.637   1.078  15.281  0.0315  0.2284 -0.3142
30298W        W46192  13.180   8.561   6.103 -0.2402  0.0520 -0.2395
30299W        W46193   4.582   7.104  10.729  0.1617 -0.1261  0.0376
30300W        W46194   7.669   0.492   2.849  0.2294  0.0672  0.0458
30301W        W46195  14.860  13.698  13.030  0.1183  0.2851  0.1320
30302W        W46196  14.950  14.088  16.088 -0.2894  0.1204  0.3299
30303W        W46197   2.292  17.835  14.802 -0.4219  0.0708 -0.0630
30304W        W46198  17.091  14.637  15.974  0.2842  0.0942  0.0569
30305W        W46199  12.697  17.830  13.396 -0.1030 -0.2173 -0.2380
30306W        W46200  15.950  10.014  14.030 -0.0347  0.0110 -0.0911
30307W        W46201  18.348   3.850   4.743  0.0560  0.0194  0.1910
30308W        W46202  12.656   1.291  11.735  0.0997 -0.1546  0.1585
30309W        W46203  15.734   7.796   1.256 -0.0234 -0.2118 -0.0409
30310W        W46204   5.829  11.416  12.109  0.0088  0.0096  0.0106
30311W        W46205   2.791   7.390  16.007 -0.2126  0.4110  0.3200
30312W        W46206   1.267  13.789  14.508  0.0278  0.1882 -0.3547
30313W        W46207  15.767  11.609   1.884  0.2365  0.0934 -0.1219
30314W        W46208  12.765  11.169   5.233  0.0074 -0.1439  0.2077
30315W        W46209   7.138  13.084   0.696 -0.0336  0.1160 -0.1435
30316W        W46210   7.847  15.405   1.393  0.2008 -0.0253 -0.1473
30317W        W46211   8.975   2.073  10.398  0.2438 -0.2258  0.1120
30318W        W46212  12.830  16.301   0.911  0.2794  0.1966 -0.0832
30319W        W46213   0.999   5.148   4.883 -0.2402  0.1385  0.0678
30320W        W46214   2.015   3.455  11.333  0.2032  0.3017  0.0977
30321W        W46215  14.608   3.989  14.039  0.1423  0.0709 -0.3253
30322W        W46216   9.272   0.116  11.690  0.0186  0.1538 -0.1848
30323W        W46217  12.176   4.831   2.779 -0.0326  0.3534 -0.1458
30324W        W46218   6.670  12.636  15.379 -0.0549  0.0233  0.1876
30325W        W46219  10.523  16.852   1.638 -0.3939 -0.0381 -0.1221
30326W        W46220   9.013   0.400  14.771  0.2553 -0.0980  0.2774
30327W        W46221   2.754  14.747  12.871  0.2417 -0.3234 -0.0048
30328W        W46222  14.118  16.254   0.993 -0.0915  0.2707 -0.0252
30329W        W46223   1.354  13.735  13.913 -0.1270 -0.1113  0.2473
30330W        W46224   9.967  13.781  16.014 -0.0913  0.0459 -0.1735
30331W        W46225   6.858  13.035  11.712 -0.1325  0.0768  0.2090
30332W        W46226   8.072   3.917  14.049  0.1752  0.1396 -0.0242
30333W        W46227   8.073  11.781   3.922  0.0207  0.3449 -0.2515
30334W        W46228   3.448  13.874   3.428  0.1720  0.1250  0.0462
30335W        W46229  15.377   4.930   2.581  0.0031 -0.3267  0.1292
30336W        W46230   2.361   0.522  13.140 -0.4018 -0.2337  0.1169
30337W        W46231  14.008  18.036  13.117  0.3094  0.2261  0.0590
30338W        W46232   9.918   7.404   0.257 -0.2361  0.0796  0.0845
30339W        W46233  18.003   4.070  11.986 -0.0276 -0.2185 -0.0655
30340W        W46234   4.199   6.494   4.189  0.0191 -0.1362 -0.1282
30341W        W46235  12.979   7.817  15.651 -0.0127  0.1485 -0.1132
30342W        W46236  15.348   8.349  11.718 -0.0549 -0.0297  0.0230
30343W        W46237   1.101  16.555   0.964  0.0078 -0.1951  0.0209
30344W        W46238   2.673   1.220   2.445 -0.2774  0.1760 -0.2538
30345W        W46239   3.891   9.584  14.360 -0.0425  0.1730 -0.3552
30346W        W46240   7.313   7.458   0.853 -0.2902 -0.0491  0.4252
30347W        W46241  10.287   3.616  13.921 -0.1319 -0.0481  0.2670
30348W        W46242   2.392   3.347  14.698 -0.1071  0.4493  0.0615
30349W        W46243   4.908   2.766   5.287  0.0050 -0.0211 -0.3113
30350W        W46244   2.709   9.980   4.629  0.3140  0.1521 -0.0607
30351W        W46245  11.366   5.419  11.767  0.1528 -0.3162  0.1250
30352W        W46246  15.697  13.426   1.535 -0.0074  0.0291  0.1474
30353W        W46247   1.853   7.388   0.352  0.3055 -0.0373  0.1260
30354W        W46248  16.028  16.454   3.661 -0.0148 -0.1747  0.0249
30355W        W46249   0.313   6.268  12.261  0.2564  0.2043 -0.1790
30356W        W46250  15.476  12.677  11.339 -0.0243  0.0852  0.1557
30357W        W46251  15.958   8.389  14.554 -0.1558 -0.1164 -0.1210
30358W        W46252  13.985  17.970  14.269 -0.2516  0.1598 -0.1864
30359W        W46253  16.071  17.791  12.169  0.2301  0.1976  0.0016
30360W        W46254   0.439   6.627  11.890  0.1832 -0.0889 -0.3086
30361W        W46255  13.966  10.365  13.970  0.1241 -0.3319 -0.1148
30362W        W46256   8.553  13.255  14.050 -0.0857  0.1749  0.0850
30363W        W46257   9.949   1.412  13.997 -0.1360 -0.0840 -0.0532
30364W        W46258  15.958   4.738  13.747 -0.0837  0.0019  0.0367
30365W        W46259  11.306   5.968  14.260 -0.1291 -0.1902  0.3836
30366W        W46260   6.778  16.448   0.674 -0.3070 -0.0612 -0.1433
30367W        W46261  16.910  15.920  13.980 -0.2919 -0.0940  0.2260
30368W        W46262  15.885   4.742  14.296  0.1382 -0.0721  0.1915
30369W        W46263   4.861   0.689  13.516  0.1198  0.2409  0.0563
30370W        W46264  16.009  14.135   0.371  0.0458  0.1600  0.1060
30371W        W46265   8.899   1.832   3.651  0.1697 -0.1660 -0.3689
30372W        W46266  17.704  15.439   0.388 -0.0199  0.2171  0.1509
30373W        W46267  10.719   3.056   3.369  0.1329 -0.1772 -0.0686
30374W        W46268  13.528   5.010   2.135  0.0820  0.2148 -0.1825
30375W        W46269  13.090   4.172   1.174  0.0327  0.0471 -0.2094
30376W        W46270  11.312  17.926   2.854 -0.1414 -0.1314  0.2487
30377W        W46271   8.523   8.846   3.057  0.1891 -0.0099 -0.1431
30378W        W46272  17.837   4.463  13.189 -0.2505 -0.0124  0.0347
30379W        W46273  10.790   9.842   2.353  0.1924  0.0155  0.0322
30380W        W46274   3.711   8.916   0.957 -0.0283 -0.2469  0.2137
30381W        W46275   2.555   5.189  11.095 -0.3375  0.0922  0.1100
30382W        W46276   3.072   7.122   4.427  0.1515  0.0291  0.0750
30383W        W46277   0.632  14.352   3.868  0.2339 -0.1408 -0.3609
30384W        W46278   2.756  12.095   3.546  0.1765  0.1668  0.2670
30385W        W46279   8.133   9.131   0.350 -0.1546 -0.2042 -0.0375
30386W        W46280  14.619  17.826  11.075  0.0960 -0.0217  0.3479
30387W        W46281   6.065   2.400   2.748 -0.3435  0.1073 -0.0176
30388W        W46282  10.209   3.921   1.163  0.1237  0.3578  0.1349
30389W        W46283   2.784  11.077  15.821 -0.0225 -0.1837 -0.0365
30390W        W46284   4.533  13.520   3.289 -0.0744  0.1272 -0.1112
30391W        W46285   2.551  12.855   4.948  0.1718  0.1595  0.0620
30392W        W46286   7.270   4.253  14.283  0.1072 -0.0330 -0.1314
30393W        W46287   4.265   0.969   4.552 -0.0445  0.1204 -0.2833
30394W        W46288   9.014   6.199  10.057 -0.0829  0.3820  0.2391
30395W        W46289   5.051  10.772  11.354 -0.1873 -0.3914  0.2828
30396W        W46290  15.015   8.312  15.612  0.0395 -0.0450 -0.2469
30397W        W46291   0.028  11.606   4.075  0.1314 -0.4285 -0.2283
30398W        W46292  12.311   2.968   3.775  0.0958  0.3198 -0.5390
30399W        W46293   5.901   7.058   5.278 -0.2254  0.1279  0.1050
30400W        W46294   6.080   3.562   5.427 -0.1256  0.2018  0.1086
30401W        W46295   8.697   4.905  11.627  0.3760  0.0927  0.2014
30402W        W46296   8.144   3.477  12.751  0.0509 -0.0447  0.0410
30403W        W46297   1.820  13.455  15.704  0.1273  0.0254 -0.2421
30404W        W46298  12.306  13.337  14.534 -0.0895  0.4462  0.2713
30405W        W46299   7.802   9.194  14.601 -0.3091  0.1164  0.0155
30406W        W46300  15.456  14.779  10.993 -0.0380  0.1625 -0.0423
30407W        W46301  14.299   4.492   1.533  0.2093 -0.0539 -0.0657
30408W        W46302  18.249  16.052   0.251 -0.1179 -0.2678 -0.3136
30409W        W46303   3.082  14.473   4.725  0.3590  0.1089  0.4714
30410W        W46304   0.416   1.711  10.917 -0.0246  0.2931 -0.1834
30411W        W46305   7.532   2.759   3.711  0.2297  0.3417  0.0499
30412W        W46306   2.270  13.024  15.835 -0.0816 -0.3268  0.2587
30413W        W46307   6.105   2.790  11.451 -0.2917  0.2079 -0.2446
30414W        W46308   6.466  17.328  10.991 -0.2345 -0.1675 -0.1221
30415W        W46309   9.328  17.895   2.587  0.0508 -0.0142 -0.0721
30416W        W46310   5.969   4.323   1.559 -0.1696  0.1057 -0.0100
30417W        W46311   1.001   8.128   4.367  0.2182  0.0236 -0.1312
30418W        W46312  17.451   0.746  10.728  0.2712  0.1046  0.1578
30419W        W46313  13.572  15.186   0.478  0.1455  0.1735 -0.1367
30420W        W46314  18.107   5.344   0.525  0.1831  0.1652 -0.0448
30421W        W46315   8.914  15.058  14.922  0.2896  0.0613  0.2929
30422W        W46316   3.290  14.780  14.298 -0.0396 -0.3140 -0.1024
30423W        W46317  17.930   0.884   2.435  0.0117 -0.0324 -0.3936
30424W        W46318   3.667   4.927   0.945 -0.0097  0.0846 -0.1645
30425W        W46319  12.683  12.424  11.931  0.1895 -0.2530 -0.1595
30426W        W46320  15.655   9.118   1.637 -0.3848  0.0292 -0.0033
30427W        W46321   7.505   0.030   2.629 -0.2923  0.2527 -0.4623
30428W        W46322  12.762  10.242  14.896  0.1062 -0.2313  0.0169
30429W        W46323  13.078  18.444   4.796 -0.2992  0.1461 -0.4293
30430W        W46324  11.123   8.974   2.482  0.4576  0.0454 -0.0777
30431W        W46325   1.953  16.931   1.931 -0.1181  0.1255 -0.1349
30432W        W46326   6.865   1.214   2.785 -0.0406  0.3470  0.3103
30433W        W46327  12.345  14.262   3.304 -0.0642  0.1499 -0.0664
30434W        W46328   5.172   3.698   3.332  0.1847  0.2510  0.1014
30435W        W46329  14.682  11.488   4.620  0.0612 -0.2417  0.1894
30436W        W46330  14.961   4.777  15.296  0.1633 -0.2050  0.0773
30437W        W46331  16.021  12.534  15.462 -0.2172 -0.0159 -0.2641
30438W        W46332   9.270   9.835  11.583 -0.0935  0.0083  0.0675
30439W        W46333  11.864   4.859  14.588 -0.2865  0.0715  0.2073
30440W        W46334   4.513   9.519   6.069  0.3896  0.1331  0.0524
30441W        W46335  11.522   3.993   1.750  0.0254  0.2601  0.2348
30442W        W46336  17.296  18.012  13.873 -0.2975  0.2950 -0.1843
30443W        W46337  16.029   9.180   4.937 -0.3072  0.1769  0.2059
30444W        W46338   9.184   8.447   3.311  0.0701  0.1400 -0.0891
30445W        W46339   0.953   7.498   1.813 -0.2086 -0.1941 -0.1584
30446W        W46340  11.773  10.483  15.140  0.0692  0.1942 -0.2390
30447W        W46341   0.435  16.136  13.368 -0.2685  0.1190 -0.0429
30448W        W46342   1.388  14.472   4.199  0.1969  0.0876 -0.2565
30449W        W46343   4.481   7.751  12.033 -0.1593  0.0204  0.2151
30450W        W46344   9.011   3.333   2.080 -0.0338 -0.0267  0.1149
30451W        W46345  11.904   3.106   0.591  0.2798 -0.1530  0.0269
30452W        W46346   8.949  16.758  15.951 -0.1935  0.0486  0.2702
30453W        W46347   9.139  15.672   3.397  0.0045 -0.2643 -0.3226
30454W        W46348   7.452  12.713   2.235 -0.3100 -0.2970 -0.0721
30455W        W46349   6.538  12.256   2.211 -0.4918  0.3087  0.1207
30456W        W46350  16.141  18.034   3.076 -0.0941 -0.3123 -0.0781
30457W        W46351   1.333  11.460  11.505 -0.0026  0.0300  0.2711
30458W        W46352   4.881  12.247  10.783  0.2181  0.2632 -0.2902
30459W        W46353   0.795   8.221  14.342  0.0072 -0.1561 -0.2348
30460W        W46354  16.502   4.400   4.380  0.1211  0.2295  0.1885
30461W        W46355   4.472   9.037  11.095 -0.1924  0.1673 -0.3314
30462W        W46356  10.525  17.228   5.590 -0.1347  0.1289 -0.1815
30463W        W46357   9.840  10.049   3.935  0.0722 -0.0312  0.0283
30464W        W46358   0.546  10.053   1.892 -0.0729 -0.1129 -0.0223
30465W        W46359   7.091  11.538   2.019 -0.1553 -0.1475 -0.1822
30466W        W46360   7.250  15.591  13.908  0.4016 -0.0506 -0.5160
30467W        W46361   9.483   5.081  11.243 -0.0967  0.3277  0.1872
30468W        W46362   5.973   2.612  13.330 -0.0723 -0.1548 -0.0051
30469W        W46363   7.006  11.884  15.665 -0.2209 -0.0122 -0.1190
30470W        W46364  16.623   3.278  15.557 -0.0083  0.0757  0.1038
30471W        W46365   8.665   7.141   2.919  0.2112 -0.3822  0.0185
30472W        W46366  10.334   6.880  14.441 -0.1317  0.1588 -0.1892
30473W        W46367   5.973   1.547  15.926  0.2390 -0.1558  0.1242
30474W        W46368   0.291   6.031  10.519  0.0103 -0.1475 -0.0444
30475W        W46369  14.814   4.590   1.199 -0.2318 -0.2640  0.1193
30476W        W46370   2.991  16.749   2.939 -0.0228 -0.2076  0.0358
30477W        W46371  11.257   0.175   2.158 -0.1467  0.0049 -0.4384
30478W        W46372   0.984   1.951   5.921 -0.2806  0.0997  0.3063
30479W        W46373  16.820  10.044  12.870 -0.0757  0.1466 -0.1096
30480W        W46374  10.417  11.494   1.603 -0.2341  0.0242 -0.0391
30481W        W46375  13.491   9.810  12.902  0.0792 -0.1814 -0.1697
30482W        W46376  16.055  17.348   4.286 -0.1478 -0.3308 -0.0935
30483W        W46377   3.843  10.924  11.487  0.0602  0.3296 -0.0595
30484W        W46378   9.985  14.623   9.938  0.0076  0.1977  0.0878
30485W        W46379   7.691   8.751   3.334  0.2779 -0.3534 -0.1557
30486W        W46380  16.254  15.900  11.485  0.6084 -0.2921 -0.2594
30487W        W46381   0.209  15.760   4.265  0.0623  0.1872 -0.0140
30488W        W46382   6.970   4.790  14.915 -0.0180  0.1974  0.0592
30489W        W46383   7.880  10.029  11.100  0.2304  0.0360  0.3528
30490W        W46384   1.137  14.259   5.588  0.1099 -0.1615 -0.2422
30491W        W46385   0.553   5.393   0.015 -0.0551  0.0828  0.0642
30492W        W46386   6.406   4.381  12.726  0.1513  0.0306 -0.4068
30493W        W46387   2.098   2.558   2.910 -0.1466 -0.1469  0.0431
30494W        W46388   2.860   5.188   2.883  0.0156 -0.3480 -0.0851
30495W        W46389  14.663   9.573  16.139  0.3774 -0.4218 -0.1685
30496W        W46390  11.118  17.444   3.077  0.0162  0.2655 -0.2250
30497W        W46391  12.693   1.987   1.305 -0.0843 -0.0731 -0.0617
30498W        W46392   3.632  17.280   4.230  0.1864  0.1250  0.2194
30499W        W46393   0.479   0.559  16.009 -0.1994  0.1067 -0.1717
30500W        W46394   9.868  12.641  10.897  0.0859 -0.0251 -0.0502
30501W        W46395  17.825   7.009   4.786 -0.0503  0.2016 -0.1624
30502W        W46396  11.470   8.707  16.114  0.1225 -0.2258 -0.1776
30503W        W46397   4.708  14.863   5.264 -0.0549 -0.0951 -0.3059
30504W        W46398  11.321   4.761   4.691 -0.2205 -0.0987  0.0304
30505W        W46399  17.688  17.034  12.423 -0.2574 -0.1029 -0.1329
30506W        W46400  10.943  15.813   4.727  0.2627 -0.0099  0.0515
30507W        W46401  17.303  12.414   2.888 -0.1102  0.2246 -0.0415
30508W        W46402   3.087   9.102  15.937  0.1685 -0.1172  0.0564
30509W        W46403   6.931   8.972   2.860  0.0170 -0.1018 -0.2418
30510W        W46404   2.569  17.812  11.628  0.0583  0.1353  0.1372
30511W        W46405   6.567   0.507   1.666 -0.1577  0.1792 -0.0411
30512W        W46406  14.575   2.454  13.740 -0.0457 -0.2703  0.0904
30513W        W46407   3.168   1.041  14.485 -0.2774  0.1626 -0.2773
30514W        W46408  16.805  11.426   2.394 -0.2667  0.2342  0.2231
30515W        W46409   6.264   7.795   2.481  0.2242  0.0081 -0.0695
30516W        W46410   2.035   0.569   1.333 -0.0851  0.1706 -0.0554
30517W        W46411  13.180   2.323   0.476 -0.2363  0.1113 -0.2260
30518W        W46412  13.314   3.948  13.418 -0.0848 -0.2064  0.0891
30519W        W46413   2.360  10.845  12.764  0.1417 -0.2824 -0.5864
30520W        W46414   0.762  12.437  14.848  0.3072  0.0906 -0.1462
30521W        W46415  11.379  13.920   0.061 -0.0024  0.0119 -0.1425
30522W        W46416   1.203  12.452  15.095  0.0617 -0.3008  0.0266
30523W        W46417  12.748   4.958  15.102 -0.1451 -0.1770 -0.0672
30524W        W46418   6.392   1.803   2.281  0.0730  0.2324 -0.0166
30525W        W46419  14.480  11.462  13.415 -0.0918  0.1703  0.1370
30526W        W46420  13.225  13.967   3.422 -0.0519  0.1297 -0.1636
30527W        W46421   2.076   4.768  12.754  0.2957  0.1557  0.2057
30528W        W46422  10.543  10.620  14.016 -0.0815 -0.1086 -0.2811
30529W        W46423  18.395   8.708   5.702  0.0083 -0.1108 -0.2337
30530W        W46424   0.782  18.099  15.279 -0.0207 -0.0059  0.3162
30531W        W46425   0.927   8.675   5.120  0.1931  0.1605 -0.0774
30532W        W46426  11.263  16.294  15.625  0.0314  0.0275  0.0960
30533W        W46427  14.816  15.180  10.255 -0.3884 -0.1431  0.3354
30534W        W46428   9.403  13.947   9.910 -0.2617  0.0487  0.0162
30535W        W46429   3.467   6.227  11.917 -0.1618  0.4112  0.2119
30536W        W46430   9.108  18.158  13.618 -0.0357 -0.1327  0.3069
30537W        W46431  16.058  10.021   1.928 -0.0400  0.0950 -0.1241
30538W        W46432   7.962  12.428   5.467 -0.0540 -0.2002  0.1792
30539W        W46433   7.253  12.364   3.649  0.0131  0.0675 -0.1397
30540W        W46434   1.944  13.582   4.483  0.0698  0.0794  0.0366
30541W        W46435  14.322  15.007  12.617 -0.0823 -0.1915  0.0762
30542W        W46436   3.263   9.963   0.822  0.1965 -0.0696  0.0244
30543W        W46437  13.876   0.662   2.206  0.4531 -0.4650 -0.3473
30544W        W46438  10.434   6.928  11.226  0.2668  0.1618 -0.4861
30545W        W46439   8.999   1.176   0.346  0.1371  0.1775 -0.2616
30546W        W46440   6.217  13.831  14.949 -0.2595 -0.2760 -0.4066
30547W        W46441   3.132  17.619  14.222 -0.0491  0.0487  0.0912
30548W        W46442  18.271  16.084  13.540  0.0586  0.3348  0.0249
30549W        W46443   4.278  16.554  15.217  0.0532 -0.0644  0.1397
30550W        W46444   4.975  16.535   2.713  0.1005  0.0561  0.1104
30551W        W46445  16.903  13.482  13.047  0.1726 -0.3042 -0.0670
30552W        W46446  12.583  13.946  15.256  0.3611 -0.0210 -0.0272
30553W        W46447  14.643   5.200  15.272 -0.1516 -0.3032  0.0844
30554W        W46448  10.478  15.792   4.520  0.2388  0.0220  0.2613
30555W        W46449  11.377  13.075   1.765 -0.0881  0.0689 -0.0692
30556W        W46450  14.630   1.453  15.481 -0.0325  0.0804  0.1988
30557W        W46451  10.118  14.572   1.458 -0.0997 -0.2225 -0.0287
30558W        W46452  10.460  17.592   1.374  0.2058  0.0601  0.1909
30559W        W46453  11.597   0.499   1.817 -0.3061 -0.3902  0.2742
30560W        W46454   5.438   8.845   1.265 -0.2067  0.0599 -0.3670
30561W        W46455   3.859   6.344  12.178 -0.1203 -0.0598  0.1105
30562W        W46456   8.559  13.134   4.658 -0.3421  0.2965 -0.4114
30563W        W46457  17.685  11.613   0.241 -0.0552 -0.0736  0.1121
30564W        W46458   8.377   1.240  13.806 -0.0653 -0.0718 -0.0773
30565W        W46459   3.944   7.712  13.553  0.3099 -0.1375  0.0228
30566W        W46460   5.341   1.534  11.895  0.3868  0.1497  0.1106
30567W        W46461   7.880  10.992  14.600  0.3521 -0.0151  0.1142
30568W        W46462  16.379   0.531   0.550 -0.0847  0.2304 -0.2212
30569W        W46463  16.208  15.826  13.393 -0.0800  0.2023  0.3169
30570W        W46464  17.992  18.406  14.601 -0.0560 -0.1071  0.2575
30571W        W46465  12.916  12.322  12.984 -0.1852  0.2006 -0.2337
30572W        W46466  15.172   5.119  13.142 -0.2019  0.3097  0.2365
30573W        W46467  12.964   3.543  15.358  0.2195 -0.0182  0.0123
30574W        W46468   1.487  11.197  13.981 -0.2770  0.0073 -0.4026
30575W        W46469  15.045  17.233  12.746  0.0527  0.3977  0.2112
30576W        W46470  14.654  13.274  12.730 -0.0478  0.5293 -0.1506
30577W        W46471   4.230   6.773   2.886  0.1741 -0.0050  0.2061
30578W        W46472  16.386   7.833   5.117 -0.2426  0.1844 -0.1773
30579W        W46473   3.494   7.564  13.703  0.1433 -0.0301 -0.3035
30580W        W46474   1.812   5.793   2.391  0.0930  0.1497  0.0505
30581W        W46475  13.896   7.452  15.779  0.2458  0.1409  0.2268
30582W        W46476  11.684   5.118   6.047 -0.0623 -0.0266  0.0546
30583W        W46477  12.032   2.432   2.145  0.2933 -0.0465  0.1858
30584W        W46478  15.123  16.692   2.672 -0.1105 -0.0567  0.2261
30585W        W46479   4.240  11.107  15.785  0.0248  0.1351 -0.0449
30586W        W46480  11.659   6.329   1.058  0.0521 -0.0049  0.3089
30587W        W46481   7.118  11.933  12.440 -0.0403  0.2780  0.0671
30588W        W46482   0.975   5.250  13.413  0.1403 -0.1671  0.1843
30589W        W46483   8.714   6.801   1.236 -0.1792  0.1464 -0.1927
30590W        W46484  13.174  17.729   5.120 -0.3482 -0.2491 -0.0799
30591W        W46485   5.578  13.824   4.164  0.0325  0.0088 -0.0719
30592W        W46486  12.547  14.113  11.807  0.0713 -0.2075 -0.0309
30593W        W46487  12.898  10.970   3.019  0.0126  0.3135 -0.2091
30594W        W46488  10.778  11.132   0.431 -0.0497  0.1797 -0.1226
30595W        W46489  14.810   0.526  11.459  0.1128 -0.0812 -0.2252
30596W        W46490   4.331  16.308   3.488  0.0982  0.0011 -0.0682
30597W        W46491  10.540   1.249  11.309 -0.0636 -0.2054 -0.2346
30598W        W46492  15.992   8.952  11.948  0.3133  0.1575 -0.0736
30599W        W46493  13.553  11.714   5.699  0.1325  0.0968 -0.2382
30600W        W46494   0.745   0.480  12.404 -0.0541 -0.1857  0.3633
30601W        W46495  15.064   1.884   3.504  0.2749  0.1331  0.1566
30602W        W46496  15.615  13.790  11.309  0.0620 -0.1438 -0.1266
30603W        W46497  10.423  16.825  14.929  0.3354  0.0925 -0.5369
30604W        W46498   8.102  11.153   1.327  0.1258  0.1011  0.3794
30605W        W46499   1.490   6.606  14.408 -0.0115 -0.1776  0.0188
30606W        W46500   4.337   1.207  15.234  0.1536 -0.2938  0.2010
30607W        W46501  13.780  15.637  15.162  0.0513  0.2599  0.2637
30608W        W46502   9.960  13.658  12.774  0.5465 -0.2274  0.2010
30609W        W46503  11.286  16.488  14.280 -0.2099  0.0758  0.3321
30610W        W46504  13.657  12.347   1.949 -0.2720  0.1465  0.0862
30611W        W46505   8.801  11.972   2.439  0.1932  0.0332 -0.1449
30612W        W46506   4.004  16.955  11.848 -0.0217 -0.1640 -0.0093
30613W        W46507   5.863   1.361  13.831 -0.0024  0.2302 -0.3785
30614W        W46508   7.431  14.153   4.767  0.0159 -0.0490 -0.1300
30615W        W46509  13.887   3.130  13.977 -0.0335 -0.2001  0.0418
30616W        W46510   5.565   6.114  15.909 -0.0433  0.1863  0.1441
30617W        W46511  11.435  16.653  13.173  0.0272  0.0501 -0.1329
30618W        W46512  10.621  16.464  12.466 -0.0416  0.2853 -0.0879
30619W        W46513   8.313   1.380   2.192 -0.1476  0.0768 -0.0381
30620W        W46514  11.451   7.894   3.547 -0.0253  0.0673  0.1134
30621W        W46515  12.488  17.893  12.959 -0.0645  0.0523  0.0970
30622W        W46516   4.251   6.995   4.818 -0.3041 -0.1676 -0.2997
30623W        W46517   1.902  13.115   0.074  0.0118 -0.0144 -0.2958
30624W        W46518   8.681   0.615   2.047 -0.0023 -0.1105 -0.1660
30625W        W46519  13.010   1.462   4.468 -0.5479  0.0930  0.0518
30626W        W46520   0.384   3.064   1.218 -0.0011 -0.0776  0.0559
30627W        W46521  17.895   8.864  16.094  0.0275 -0.0902 -0.0326
30628W        W46522   8.526  17.535  12.357  0.1822  0.0624  0.0437
30629W        W46523   8.705   3.758   3.704  0.0658 -0.2285  0.0660
30630W        W46524   3.160   8.210  16.028  0.0181  0.0102 -0.2323
30631W        W46525   7.315  16.646  12.295  0.2783  0.1859  0.2269
30632W        W46526  12.663   6.249  11.937  0.2996  0.1834  0.1098
30633W        W46527   2.192   4.616  14.944  0.1970  0.1356  0.3501
30634W        W46528  16.641   0.193  14.224 -0.0242  0.2063 -0.2835
30635W        W46529   9.609  14.332   0.409  0.3823  0.3041 -0.1372
30636W        W46530   3.396  14.457   0.007  0.1980  0.0433  0.1626
30637W        W46531  12.707   9.378  13.802  0.0865  0.2803  0.2485
30638W        W46532   2.140   4.305  13.046 -0.4446 -0.1583  0.2151
30639W        W46533   7.822  16.979   4.033  0.0555 -0.1099 -0.1007
30640W        W46534  10.143   5.488   3.832  0.2075  0.1916  0.0010
30641W        W46535  10.024  15.426   4.034  0.0391 -0.2309  0.3244
30642W        W46536  14.924   3.339  11.543  0.0454 -0.2421  0.2101
30643W        W46537   4.922  16.907  11.568 -0.1498  0.0547 -0.0366
30644W        W46538  11.427  13.033   3.390  0.0625 -0.2624  0.0841
30645W        W46539  14.060   6.729  13.947  0.1482 -0.4266  0.1840
30646W        W46540  12.175  11.816   3.943  0.3536 -0.2128  0.2720
30647W        W46541  16.159   0.462   4.613 -0.1906 -0.3248 -0.0527
30648W        W46542  13.812  16.538   0.021 -0.1999  0.2206  0.2243
30649W        W46543  15.394   1.666   5.349 -0.2180  0.2149 -0.0425
30650W        W46544   5.296  16.821  13.706  0.0726 -0.2141 -0.0203
30651W        W46545  17.582   2.293   4.504  0.1284  0.2382 -0.2799
30652W        W46546  11.439   5.914   1.415  0.0630  0.0125 -0.0284
30653W        W46547  15.065   4.264  12.310  0.0149  0.4733 -0.2324
30654W        W46548   0.648  12.254  11.490  0.0730 -0.0931  0.2174
30655W        W46549   9.996  17.714   4.892 -0.0918  0.0589 -0.0706
30656W        W46550  11.713   0.190  14.200 -0.0395  0.1938 -0.1766
30657W        W46551   7.368  15.473   0.822 -0.0256 -0.0851  0.1195
30658W        W46552  16.166   3.439  15.723  0.0306 -0.3948  0.1220
30659W        W46553   8.182   0.285  11.770 -0.1600 -0.1474 -0.2025
30660W        W46554   3.963   3.986  14.831  0.2594  0.0421 -0.3600
30661W        W46555  16.031   3.770  14.981  0.3979 -0.0017 -0.0615
30662W        W46556   2.829   7.626   1.927  0.2270 -0.2910 -0.0642
30663W        W46557  16.524  10.983   0.601  0.0271  0.2336  0.1143
30664W        W46558   2.382   3.379  14.103  0.1848  0.1269  0.4076
30665W        W46559   9.480  13.744  13.040 -0.0382  0.0302  0.1701
30666W        W46560  11.823   3.177   1.377  0.2592 -0.0485 -0.2016
30667W        W46561   1.709  13.338   1.278  0.2191  0.1361 -0.1441
30668W        W46562  14.300  10.583   0.937 -0.1988  0.0664 -0.2599
30669W        W46563   9.762  15.348  14.650  0.3701 -0.0334  0.1200
30670W        W46564  15.652  10.654  15.130  0.0091  0.1801  0.1065
30671W        W46565   4.703   3.128  14.210 -0.1959 -0.1937 -0.3520
30672W        W46566  15.732   6.385  11.756  0.0987 -0.2507  0.0519
30673W        W46567  16.801   2.620   4.310  0.1775  0.1958 -0.0532
30674W        W46568   6.656   5.126  14.666 -0.4130 -0.1274 -0.4106
30675W        W46569   0.617  18.419   5.079 -0.1915  0.2285  0.0061
30676W        W46570   1.394   9.326   5.148 -0.0655  0.2635 -0.2028
30677W        W46571  13.391   2.150  11.494 -0.0484 -0.0377 -0.2301
30678W        W46572   8.242  11.520  12.959 -0.3499  0.1811 -0.2233
30679W        W46573  12.968   5.802   1.706 -0.0907 -0.1728 -0.3358
30680W        W46574  10.845   4.080   4.473  0.0463 -0.2108 -0.0521
30681W        W46575   8.143   8.294  13.771 -0.0682 -0.1974  0.2282
30682W        W46576  15.149  16.280   4.064 -0.0333 -0.2605  0.1261
30683W        W46577   0.415   6.902   2.191  0.3735  0.0497  0.0034
30684W        W46578  14.911  15.976  13.190  0.3440 -0.2371  0.1820
30685W        W46579  14.630   3.126  11.200 -0.1493  0.0325  0.0475
30686W        W46580  18.004   3.277  14.491 -0.0039  0.0084  0.2016
30687W        W46581  15.122   3.980   4.108 -0.1037  0.1358 -0.0466
30688W        W46582  17.512   8.561  13.250  0.0098  0.0193  0.0643
30689W        W46583   9.418   9.315   0.706 -0.1458 -0.1889 -0.2249
30690W        W46584  16.377  17.686   0.405 -0.1312  0.0166  0.3920
30691W        W46585  12.083   1.346   4.147  0.4427  0.1582  0.1102
30692W        W46586  14.812   4.086   2.837  0.0583 -0.0137 -0.2322
30693W        W46587   8.065   8.597  15.993 -0.3037  0.1092  0.0553
30694W        W46588   1.576  15.256  13.965 -0.2200  0.2567  0.1160
30695W        W46589  10.292   7.249   3.401 -0.0959 -0.0483  0.0282
30696W        W46590  16.909   7.200   3.589 -0.1304 -0.0201 -0.1397
30697W        W46591  17.792  11.670   4.568 -0.0697  0.0250 -0.1653
30698W        W46592  12.497  18.272   4.245  0.0737 -0.5012 -0.2192
30699W        W46593  15.345   9.572  15.511 -0.2141 -0.0847  0.2044
30700W        W46594  12.655   5.038   5.981 -0.1864  0.1456 -0.1752
30701W        W46595  15.413   8.790   5.560  0.1429  0.0927 -0.0630
30702W        W46596  15.050  14.924   4.952 -0.1249 -0.3106  0.0580
30703W        W46597  15.517  10.616  11.484 -0.4685 -0.3187  0.3170
30704W        W46598   5.080   6.992   0.049  0.0928 -0.1192  0.2239
30705W        W46599   3.433  11.821   2.816 -0.0639  0.0657  0.1381
30706W        W46600   3.615  17.633  15.898  0.0960 -0.1458 -0.0490
30707W        W46601   4.552  14.546   0.590 -0.0650 -0.3755 -0.0798
30708W        W46602  16.304   3.784   6.005 -0.0987  0.0614  0.3562
30709W        W46603   7.296   3.975   5.141 -0.1069 -0.2258 -0.0219
30710W        W46604  11.322  14.145   3.586  0.1209 -0.1299  0.0317
30711W        W46605   6.282   2.864  12.594  0.1461 -0.0201  0.0897
30712W        W46606   2.455   3.642  12.915  0.1098  0.4268  0.1054
30713W        W46607  18.414   4.875   2.220  0.2937 -0.1975 -0.3195
30714W        W46608   1.186   1.573  15.672  0.2502 -0.1273 -0.1968
30715W        W46609  12.304  16.231  11.933  0.1566 -0.1153 -0.1984
30716W        W46610  15.722   2.485   3.828  0.2104 -0.0307  0.0951
30717W        W46611  16.129   5.162  12.735 -0.1238 -0.1045 -0.1488
30718W        W46612  10.430  17.871   1.777  0.0369 -0.0763  0.0139
30719W        W46613  15.902   5.116  15.952  0.1367 -0.0507 -0.3393
30720W        W46614  17.927  12.940  11.357  0.2176 -0.2098 -0.1058
30721W        W46615   8.425  17.314   4.562  0.4281 -0.3635 -0.0797
30722W        W46616   8.896  12.358   0.648  0.4110  0.2266 -0.0927
30723W        W46617   1.703  15.763   3.372  0.0932 -0.1290 -0.2000
30724W        W46618   7.175   2.116   1.779  0.0658 -0.0060 -0.3903
30725W        W46619   6.922  12.572  11.867  0.0583 -0.0404 -0.0014
30726W        W46620   0.498  13.397   3.926 -0.0912  0.0705 -0.2320
30727W        W46621   9.563  11.641  11.926 -0.1298 -0.0623 -0.1409
30728W        W46622   7.612  13.116  15.468  0.0742  0.0987 -0.3729
30729W        W46623   3.962   0.408  15.840 -0.3814 -0.0672  0.2570
30730W        W46624  16.665  18.278  14.738 -0.3177 -0.1375  0.1111
30731W        W46625  14.339  13.568  15.045 -0.0112  0.0087  0.2003
30732W        W46626   3.522   4.953  12.189 -0.0553 -0.2225 -0.0138
30733W        W46627   7.176   4.937  11.311 -0.0858  0.0756 -0.0797
30734W        W46628  12.618  18.397   3.742  0.0701  0.0432  0.3250
30735W        W46629  15.370   2.494   1.080 -0.3079  0.0607 -0.0406
30736W        W46630   8.456  14.962   2.110  0.1117 -0.0571 -0.1049
30737W        W46631   9.815  16.004  12.227  0.2129 -0.3227  0.2419
30738W        W46632   4.126   2.867  12.561  0.0663  0.0679  0.0908
30739W        W46633  17.423   5.858   4.826 -0.1198  0.0963 -0.0748
30740W        W46634   7.407  17.936   5.347  0.0893  0.0240  0.0830
30741W        W46635   4.183   8.782  12.172 -0.0453  0.0211 -0.3656
30742W        W46636   2.170  14.611  13.976  0.0838  0.0124  0.2060
30743W        W46637  13.678   8.526   1.291 -0.5025 -0.2524  0.1683
30744W        W46638   4.568  14.708   2.827 -0.1989 -0.2152 -0.0920
30745W        W46639   7.304   2.368   5.260 -0.3355  0.0554  0.4273
30746W        W46640  11.207   4.765   2.860  0.1460  0.3092  0.2395
30747W        W46641  12.918   5.961   1.164  0.1039 -0.0338 -0.3431
30748W        W46642  16.772   0.673   3.226 -0.1931  0.1221  0.0409
30749W        W46643  10.328   4.686  14.938 -0.1561 -0.0958 -0.0803
30750W        W46644   2.349  15.524   4.484  0.0361  0.0974  0.3842
30751W        W46645   2.469  18.342  14.837 -0.2968  0.1602  0.3743
30752W        W46646  12.272   1.637   4.803 -0.0850  0.3767 -0.1915
30753W        W46647   1.031   4.754   0.780  0.3269  0.1085 -0.0760
30754W        W46648   6.971  14.927  13.172 -0.3750  0.1805  0.1278
30755W        W46649   7.826   2.459   3.937  0.2719 -0.0747 -0.2564
30756W        W46650   0.615  17.978   5.341  0.3143  0.1178 -0.1432
30757W        W46651   4.433   4.779   3.988  0.1734  0.3517  0.0412
30758W        W46652   2.270   5.809   0.620  0.1313  0.0224  0.1467
30759W        W46653  16.357   6.240  12.562 -0.0576  0.1527  0.0941
30760W        W46654   9.483  17.078  11.298  0.0206  0.0941 -0.3223
30761W        W46655   4.475  10.242   3.736  0.0619  0.3065  0.0451
30762W        W46656   1.022  14.662   3.783 -0.4415 -0.1115 -0.3596
30763W        W46657   7.205  15.050  11.830  0.0047  0.0834  0.2817
30764W        W46658  14.556  18.229   0.904  0.0344 -0.2050 -0.3828
30765W        W46659   5.341  16.436   2.288  0.0469  0.0081  0.1026
30766W        W46660   1.458   9.780   5.441 -0.0361  0.0653  0.1357
30767W        W46661   7.736   8.336   4.728  0.3575  0.2151 -0.0291
30768W        W46662   4.478   3.952  14.737  0.2158  0.1732 -0.1935
30769W        W46663  13.616   4.002   2.139  0.2824 -0.0714 -0.2073
30770W        W46664   2.625   5.898  13.630 -0.0644  0.3511 -0.0047
30771W        W46665  12.353  12.157  13.983 -0.1981 -0.2843  0.3695
30772W        W46666  15.796   8.894   2.132  0.0291  0.0542  0.4197
30773W        W46667   8.037  15.382  11.769 -0.2003 -0.0410 -0.0922
30774W        W46668  13.298  11.723   0.754  0.0486 -0.1254  0.2154
30775W        W46669  10.515   2.063   5.240  0.0690 -0.0171  0.0493
30776W        W46670  12.645   3.279   1.686 -0.1425 -0.0246 -0.3468
30777W        W46671  10.233   7.754   0.330 -0.1504 -0.0500  0.2771
30778W        W46672   8.201  16.782   1.820  0.0545  0.0978 -0.1008
30779W        W46673   4.920   4.172  13.232 -0.3667  0.3036  0.2145
30780W        W46674   8.662  11.680  14.787  0.3873 -0.3283  0.0599
30781W        W46675   1.468  14.562  11.163 -0.0233  0.2219 -0.2920
30782W        W46676   4.279   9.139   0.097 -0.2196  0.0988  0.0830
30783W        W46677   1.447   4.392  15.749 -0.3065  0.0888 -0.1731
30784W        W46678  14.230  14.033   1.533 -0.1094 -0.0678 -0.1112
30785W        W46679   7.175  12.467  12.794 -0.0802  0.1851 -0.2460
30786W        W46680   0.536  12.401   0.630 -0.1869 -0.1424 -0.0387
30787W        W46681  14.706   3.272   4.869  0.1289 -0.2983  0.0768
30788W        W46682  14.904   1.658   0.791 -0.0526  0.3059  0.0755
30789W        W46683  16.998   7.654  14.235 -0.1389  0.1350  0.2986
30790W        W46684   8.176  17.368  13.356 -0.1243  0.2641  0.0240
30791W        W46685   0.793  17.735  12.959  0.2259 -0.0423  0.0342
30792W        W46686  17.768  11.292  13.575 -0.4041  0.0556 -0.1739
30793W        W46687  16.891   6.590   4.798 -0.1760 -0.3821 -0.1818
30794W        W46688   2.381   3.755   1.791  0.2193  0.0325 -0.0313
30795W        W46689  16.263   8.029  13.152  0.3839  0.3429  0.1171
30796W        W46690  15.318  13.414   0.098 -0.2573  0.3504 -0.0799
30797W        W46691   1.741   8.066   0.336 -0.0533  0.2340  0.0195
30798W        W46692  16.737   1.135   1.737 -0.3171 -0.0334 -0.2241
30799W        W46693  15.922  10.557  11.726 -0.1207 -0.4049 -0.1605
30800W        W46694  10.950   3.868   1.732 -0.3018 -0.1489 -0.1432
30801W        W46695   2.067  12.802  15.371 -0.4316  0.4909 -0.2775
30802W        W46696   2.067   8.650   5.353  0.0307  0.2353  0.2451
30803W        W46697  11.687   6.625   2.997  0.1680  0.0013  0.0362
30804W        W46698  12.150   3.868   4.928  0.0508  0.2745  0.2947
30805W        W46699  17.014   6.055  14.101 -0.1052 -0.0006 -0.1191
30806W        W46700  17.533  12.822   1.186  0.0895 -0.1833 -0.0874
30807W        W46701   5.584   1.898  13.868  0.1941 -0.1314 -0.0269
30808W        W46702   9.091  12.073  11.980 -0.0269 -0.0693  0.0685
30809W        W46703   7.606   1.257  11.070  0.0671 -0.1398 -0.2090
30810W        W46704   5.516   4.155   3.805 -0.3383 -0.0684  0.0724
30811W        W46705  10.021   0.792   2.758 -0.0679 -0.1087  0.1325
30812W        W46706   1.764  14.807  14.064  0.0809  0.3642  0.1888
30813W        W46707   0.281   7.274   0.137 -0.1880 -0.3052  0.3605
30814W        W46708   8.892   0.633  15.241  0.2231  0.0990 -0.1437
30815W        W46709   1.621  16.543  13.962  0.1098  0.2217 -0.4666
30816W        W46710  13.349   2.161   5.333 -0.6919  0.0304 -0.1935
30817W        W46711  11.489  14.776  13.609 -0.1641  0.1763  0.3190
30818W        W46712   4.167  13.085   4.476  0.2385 -0.0338 -0.0192
30819W        W46713  11.070   7.688   1.702  0.1266 -0.0982  0.2213
30820W        W46714   1.675  15.289   3.163  0.3872  0.0541  0.1359
30821W        W46715  14.896   9.667   5.510 -0.2290  0.1087  0.0522
30822W        W46716  11.537  11.535  12.990  0.1824  0.0497 -0.1505
30823W        W46717   3.260   6.337   3.939  0.1635 -0.1077 -0.0143
30824W        W46718  14.979  13.362  13.429  0.2841 -0.0355 -0.1182
30825W        W46719   3.010   5.299   4.897 -0.1944  0.3162 -0.0318
30826W        W46720   8.614   4.374  11.910 -0.1917 -0.1914  0.1529
30827W        W46721   6.815  13.567  13.539 -0.1413  0.0723 -0.2797
30828W        W46722   0.676   8.672   0.306 -0.0051  0.1731  0.0453
30829W        W46723   5.171  10.166  12.133  0.1442  0.1254  0.2009
30830W        W46724  16.038  13.736  14.057 -0.0463 -0.2016  0.0090
30831W        W46725   9.730   1.102   0.196  0.4067 -0.0737  0.3501
30832W        W46726  13.998  16.358  12.050  0.0117 -0.1546 -0.2279
30833W        W46727  11.884  18.403  11.809 -0.1085  0.2629 -0.1672
30834W        W46728  12.712   5.646  15.274 -0.2742 -0.1312  0.1562
30835W        W46729  18.439   4.174  15.644  0.1113  0.2244  0.3348
30836W        W46730   4.177   1.831   6.081  0.0024  0.1679  0.2213
30837W        W46731   0.812   6.068  13.591 -0.0116 -0.1684  0.1104
30838W        W46732   1.520  12.213  12.271 -0.3666  0.1826  0.0274
30839W        W46733   8.073  17.261  11.765  0.1039 -0.2615  0.0193
30840W        W46734   6.679   2.790  11.453  0.1235  0.0922 -0.1910
30841W        W46735  13.340  17.899   2.644 -0.0970  0.3753 -0.1290
30842W        W46736  16.265   4.337  14.015  0.2436 -0.0889  0.3304
30843W        W46737  12.595   9.510   0.765 -0.0843 -0.6640 -0.3458
30844W        W46738   6.294   8.619  12.734  0.2452 -0.1126 -0.3630
30845W        W46739   2.210   5.440   4.111  0.0424  0.1689  0.2810
30846W        W46740   9.715   6.200  12.731  0.2462  0.1681 -0.0353
30847W        W46741  13.966   3.303   0.702 -0.0462  0.0110  0.4056
30848W        W46742   3.063  14.383   5.615 -0.0706  0.0552  0.0023
30849W        W46743  16.669  11.376   4.612 -0.0946  0.2665 -0.1199
30850W        W46744   0.620  10.183  15.142 -0.2811 -0.1595  0.1506
30851W        W46745   9.404  16.917  15.830 -0.1684  0.1518  0.1496
30852W        W46746   3.346  12.321   5.366  0.1550  0.1142 -0.0734
30853W        W46747  18.259   2.840  11.630  0.2218  0.0120 -0.1948
30854W        W46748   5.475  11.001  11.633  0.0871 -0.1142 -0.0170
30855W        W46749   5.191  17.208   3.863  0.0369 -0.0456  0.1838
30856W        W46750  15.786  11.979  11.700  0.0403  0.2063  0.2026
30857W        W46751  11.067  14.242  11.468  0.0611 -0.3202 -0.1491
30858W        W46752  15.408  11.600   5.554  0.2887 -0.0252  0.0151
30859W        W46753   4.748  18.256   1.443  0.1725 -0.0690  0.0010
30860W        W46754   0.291   4.857  15.031 -0.0318 -0.1723  0.0781
30861W        W46755   9.241  13.092  15.852 -0.0136  0.2289 -0.1724
30862W        W46756   6.137   0.008  14.289 -0.0756  0.0844 -0.3961
30863W        W46757   4.839  11.838   2.114 -0.0152 -0.1191 -0.2778
30864W        W46758   2.580  10.369  12.063 -0.0422  0.0314  0.0763
30865W        W46759   6.275   6.883   2.721  0.3188 -0.2884  0.2175
30866W        W46760  14.855   7.948   4.503  0.4352 -0.0938  0.4063
30867W        W46761  11.416  11.273  12.205 -0.1588 -0.1390  0.1352
30868W        W46762   1.733  18.450   2.117  0.1704 -0.0428  0.0453
30869W        W46763   3.139   5.429  10.516 -0.1070  0.2249  0.1065
30870W        W46764  15.429  13.555  13.241  0.2007 -0.0891 -0.0165
30871W        W46765   3.516  15.807  13.825  0.1654 -0.1975 -0.1226
30872W        W46766   2.035  11.040  13.864  0.0390 -0.0493 -0.0118
30873W        W46767   7.294   2.715  12.024  0.0575 -0.1464  0.1401
30874W        W46768   9.311   2.857   2.221 -0.1756 -0.0669  0.3594
30875W        W46769   7.915   3.162   0.792  0.1340  0.1831 -0.0575
30876W        W46770  12.549  11.915   3.099  0.2051  0.3222  0.0684
30877W        W46771   0.927  15.482  12.291 -0.1513 -0.2475  0.3322
30878W        W46772   6.200  13.354   4.177  0.1226  0.1464  0.0913
30879W        W46773   3.206   3.079   4.782  0.1256  0.2947  0.0756
30880W        W46774   3.979   0.073  10.894  0.1531  0.3086 -0.2304
30881W        W46775  11.057   9.425  13.436 -0.4678  0.0049  0.0450
30882W        W46776   9.518  18.263   0.954  0.2874 -0.0758 -0.2343
30883W        W46777  15.735  17.306   5.709  0.0038  0.3909 -0.4471
30884W        W46778   1.613   7.686  11.960 -0.1370  0.2827 -0.0080
30885W        W46779  11.168  11.233  15.282 -0.0283 -0.0123  0.1304
30886W        W46780  15.387   2.056  15.937 -0.1306 -0.1815 -0.1081
30887W        W46781  17.147   7.317  15.471  0.0073 -0.0163 -0.0240
30888W        W46782   4.636  15.493   4.330  0.0934  0.0491  0.0905
30889W        W46783   4.434   2.086  15.471 -0.0120  0.0419 -0.2661
30890W        W46784  13.546  11.905  11.686  0.3365 -0.0685 -0.0851
30891W        W46785   2.256   9.276   3.253 -0.0639 -0.1078 -0.0335
30892W        W46786  13.101  10.871  15.431 -0.1233  0.2526  0.1991
30893W        W46787   3.009  10.538  13.992 -0.5068 -0.2543 -0.1664
30894W        W46788  10.006   7.990   6.089  0.0995 -0.2959 -0.0855
30895W        W46789   0.994   0.111   3.353  0.0089  0.2223  0.1314
30896W        W46790   8.524  16.735  11.172  0.3934 -0.1083 -0.1190
30897W        W46791  10.757  13.949  12.902 -0.1912  0.0148  0.2546
30898W        W46792  15.416  18.350   1.620  0.2109  0.0762  0.1610
30899W        W46793   5.219   9.802  14.251 -0.1265 -0.1354 -0.3896
30900W        W46794   7.185  18.115  15.700 -0.0355 -0.0473 -0.0367
30901W        W46795   2.867   1.856   0.896  0.0503 -0.2351  0.1215
30902W        W46796   0.361   0.017  12.028 -0.3822 -0.1400  0.0669
30903W        W46797  10.809  12.365  13.911 -0.0697  0.2749  0.2207
30904W        W46798   9.936   5.971   3.907  0.0601 -0.0337  0.0516
30905W        W46799   4.357   0.980   3.094  0.0691 -0.2216 -0.1037
30906W        W46800   1.399   4.775   5.498  0.1599  0.3370  0.1008
30907W        W46801  14.125  17.644   3.104 -0.2853 -0.1262  0.3244
30908W        W46802  14.343   4.096   4.948 -0.0542 -0.0927  0.1265
30909W        W46803   9.136   0.222   5.683  0.0024 -0.0968  0.1458
30910W        W46804   7.404  13.553   0.095 -0.3144 -0.3530 -0.1693
30911W        W46805   6.845   3.212   2.935  0.1932 -0.1848 -0.2921
30912W        W46806   3.421   4.622  14.876  0.0605 -0.3357  0.0743
30913W        W46807   6.064   9.574  15.312  0.1140 -0.0621  0.0599
30914W        W46808  12.031  14.111  14.402  0.2059  0.3196 -0.3074
30915W        W46809   3.371  13.758  14.049 -0.0814  0.2122 -0.1365
30916W        W46810  10.892  13.149   4.951  0.1120  0.2131  0.0507
30917W        W46811   3.846   7.254  13.312 -0.0080 -0.1105 -0.1014
30918W        W46812   8.442  15.020   4.090 -0.4350  0.0839 -0.1645
30919W        W46813   1.478  18.045   4.646  0.1624 -0.0597 -0.0582
30920W        W46814   2.107   2.776   4.648  0.0468  0.1626  0.1688
30921W        W46815  13.221  10.146   3.243  0.1057  0.4295  0.0657
30922W        W46816   6.972   0.639   1.875  0.0646 -0.2860  0.2038
30923W        W46817   7.437   0.839  13.994 -0.0750  0.0467  0.1544
30924W        W46818   1.474   4.417  14.301  0.0218  0.0987 -0.3641
30925W        W46819  11.511   7.066  13.152  0.1495  0.0077 -0.2601
30926W        W46820   4.259  11.593   4.066 -0.0166  0.2186  0.0514
30927W        W46821   9.553  15.228   4.966 -0.0910 -0.1586 -0.4499
30928W        W46822  17.651   4.472   4.948  0.1529  0.3515  0.2482
30929W        W46823  16.191   5.735   1.158  0.2806 -0.1970 -0.2086
30930W        W46824  14.907   8.722   5.627 -0.1011 -0.0364  0.0939
30931W        W46825   3.702  10.731   3.394  0.0305  0.0199  0.3409
30932W        W46826   2.629  15.015  11.534  0.3158  0.2872  0.1025
30933W        W46827  16.320  14.990   0.241 -0.3596 -0.0889 -0.0708
30934W        W46828  16.122   3.277   3.690 -0.1850 -0.1650  0.0670
30935W        W46829  13.301   0.812   3.697  0.0174  0.1461 -0.0870
30936W        W46830   7.824   1.803   0.716 -0.2107  0.0850 -0.4883
30937W        W46831   6.861  11.720  13.158 -0.0551 -0.0944 -0.1011
30938W        W46832   2.560   8.582   2.384 -0.2330  0.1163  0.2430
30939W        W46833  13.113  12.595   2.029 -0.0052 -0.1324 -0.0761
30940W        W46834   9.435   0.541   2.402  0.2196 -0.3522  0.1803
30941W        W46835   5.389  13.797  14.869 -0.0225  0.0415 -0.2159
30942W        W46836  13.904   5.166   5.419 -0.1146 -0.0805  0.3198
30943W        W46837  16.648   3.229  12.866  0.0416  0.3219  0.3389
30944W        W46838  10.787  10.065  12.705  0.2874 -0.1429 -0.1588
30945W        W46839   0.238   0.241  14.114  0.2483 -0.3267 -0.2046
30946W        W46840   7.626   1.899  14.899 -0.2979 -0.1470 -0.2439
30947W        W46841   5.411   3.069  14.992 -0.2034 -0.3829 -0.2351
30948W        W46842   3.354  13.598  12.343  0.1992 -0.1082  0.1589
30949W        W46843  16.625   4.922   1.155 -0.1125 -0.0072 -0.0780
30950W        W46844   2.897   1.822  11.620  0.0615 -0.1349 -0.0201
30951W        W46845   8.430   7.527   2.643 -0.1463 -0.0449  0.1152
30952W        W46846  16.403  11.768  15.669 -0.2694 -0.3314  0.0005
30953W        W46847   1.218  16.819  13.403  0.0633 -0.3256  0.3830
30954W        W46848  15.648   0.752   2.027 -0.0458  0.1256  0.0447
30955W        W46849  16.877  16.723  12.785  0.4592  0.0782 -0.1158
30956W        W46850  16.812  15.556  12.346 -0.3539  0.4159 -0.3075
30957W        W46851  15.147  10.936   3.841 -0.0687 -0.1321 -0.0583
30958W        W46852  15.821  15.589  11.395  0.0221 -0.1676  0.3122
30959W        W46853  15.867   6.652   4.435 -0.0012 -0.0146  0.1636
30960W        W46854   3.208   7.024   3.273  0.3240  0.0656 -0.0403
30961W        W46855   3.555   7.853   0.091 -0.2363  0.1584  0.0129
30962W        W46856  18.374  13.851  15.993 -0.0667 -0.1760  0.1264
30963W        W46857  10.991   2.268  16.150 -0.0151  0.1684  0.0223
30964W        W46858   2.146  10.264  12.304 -0.2651  0.0168  0.0269
30965W        W46859   8.705  15.934  11.618  0.1641  0.2816  0.1735
30966W        W46860   1.141   3.913  14.312 -0.3589  0.4030 -0.0664
30967W        W46861  14.233   8.308   0.666  0.1156 -0.0201 -0.0725
30968W        W46862   7.520   4.631   3.996  0.0323  0.4766  0.1060
30969W        W46863  13.854   1.786   3.895 -0.1179  0.0845  0.1924
30970W        W46864   1.776   7.321  15.465 -0.0975 -0.1106 -0.2142
30971W        W46865  17.564  11.856   4.977 -0.0748  0.1101 -0.1195
30972W        W46866   6.483   4.201  14.665 -0.0986 -0.0855 -0.1878
30973W        W46867   1.432  16.836   1.239 -0.2209 -0.1212  0.0566
30974W        W46868   0.218   7.044   4.284 -0.0681  0.0365 -0.3166
30975W        W46869   9.712   5.888  15.026 -0.5439  0.2541  0.2869
30976W        W46870   1.796   4.383   0.506  0.1041 -0.1118  0.0869
30977W        W46871  11.572  15.536  15.372  0.1460 -0.3065  0.1082
30978W        W46872   3.777   5.007   1.917  0.1642 -0.2253  0.2536
30979W        W46873  14.263  15.338   3.396 -0.0998 -0.1421 -0.0078
30980W        W46874   0.102   8.689   3.124 -0.1572 -0.0067 -0.0403
30981W        W46875  17.253  10.159   1.619  0.2210  0.1706  0.0793
30982W        W46876   6.201  10.041  12.917  0.3071 -0.2126  0.2324
30983W        W46877  14.190  14.892  12.137 -0.3166 -0.1730 -0.1986
30984W        W46878  15.418  17.820   0.438 -0.0985 -0.1262 -0.0336
30985W        W46879  14.730   3.513  15.774  0.2432 -0.3450  0.3149
30986W        W46880  17.374  11.952  11.317 -0.1128  0.2628  0.2522
30987W        W46881  12.944  15.477   2.952  0.1198  0.0426  0.2847
30988W        W46882   5.802   7.625   2.895  0.0562  0.1843 -0.0185
30989W        W46883  17.763   4.104   1.064 -0.0007  0.0374 -0.1115
30990W        W46884  15.352   5.408  14.861  0.0028  0.0299  0.2385
30991W        W46885   9.958   8.507  12.219  0.0422  0.0606  0.1699
30992W        W46886   2.454  16.423  15.556  0.4643 -0.1003 -0.1491
30993W        W46887   0.852  11.628  13.380  0.0498  0.1678 -0.1631
30994W        W46888  14.397  18.251   0.380  0.0407 -0.2392  0.2587
30995W        W46889  15.672   2.585   2.082 -0.0051  0.2339  0.0798
30996W        W46890   8.371   0.484  13.067  0.0759 -0.2983 -0.0201
30997W        W46891  10.862  11.694   1.331 -0.1931 -0.1927 -0.1348
30998W        W46892  14.957   1.231   1.730 -0.0332 -0.2465 -0.3371
30999W        W46893  12.635  14.310  13.217  0.1091  0.2953 -0.2439
31000W        W46894   2.342   2.268  13.650 -0.1034  0.0559 -0.0472
31001W        W46895   0.961   2.239  14.039  0.0702  0.3658  0.1355
31002W        W46896  10.199  11.535  14.387 -0.1298 -0.2647 -0.0500
31003W        W46897   6.092   5.343  15.473  0.3332 -0.0322  0.1292
31004W        W46898   1.275   5.481   6.331  0.0453 -0.0989 -0.0389
31005W        W46899   5.658   7.534  15.368 -0.2899 -0.0418  0.0947
31006W        W46900   9.235   6.780  11.518  0.2201  0.2100 -0.1399
31007W        W46901   2.799  17.257  13.532 -0.0338 -0.0420 -0.0557
31008W        W46902   8.765  11.922  11.215  0.0605  0.1061  0.4947
31009W        W46903   7.279   5.167  14.659  0.1863 -0.3677 -0.1404
31010W        W46904  14.231  11.802  11.074  0.1890  0.0505  0.0893
31011W        W46905  10.177  12.249  16.091  0.1341 -0.2536  0.5022
31012W        W46906  13.070  13.687  13.424  0.0070 -0.0316  0.2746
31013W        W46907   1.713  14.833   2.011  0.0647 -0.3857 -0.0584
31014W        W46908  17.998   3.189   4.138 -0.3406 -0.0394 -0.1551
31015W        W46909   3.044  15.203   1.144  0.1258 -0.2019  0.0123
31016W        W46910  17.020   5.080   1.586 -0.1584  0.0686 -0.0441
31017W        W46911  15.106  18.422   0.858 -0.2207 -0.1476 -0.0006
31018W        W46912  10.479  16.744  12.887 -0.1370  0.3375  0.2099
31019W        W46913   0.907   4.051  13.887  0.0934  0.0409  0.1475
31020W        W46914   1.239  10.881  15.261  0.1336  0.2170 -0.2492
31021W        W46915   7.870   8.786   0.649  0.1068  0.1684  0.1152
31022W        W46916  17.055   6.917   5.311 -0.0255  0.1788  0.2605
31023W        W46917  11.690   6.863   2.515  0.0131  0.0435 -0.1075
31024W        W46918   3.496  15.237  14.195 -0.1626  0.1809 -0.1657
31025W        W46919  13.048  15.105  13.641  0.3667  0.2277  0.0623
31026W        W46920   2.971   4.785   0.633 -0.3405 -0.0316  0.0003
31027W        W46921  18.223  15.940   4.620  0.0052  0.0660  0.0950
31028W        W46922   9.499   3.186   3.752  0.0354 -0.1434 -0.1335
31029W        W46923   7.155  11.869   1.613 -0.0694  0.0071  0.6009
31030W        W46924   0.858   1.839  12.549  0.0784  0.1875  0.0839
31031W        W46925  15.165   2.372   4.239 -0.5153 -0.2560 -0.0980
31032W        W46926   1.452   5.929   1.326  0.1863 -0.3322 -0.2755
31033W        W46927   7.999  16.537   4.628 -0.0896 -0.0173 -0.2509
31034W        W46928  15.895  18.440   4.501 -0.1884  0.0125 -0.0732
31035W        W46929  10.172  12.681   5.567  0.1107 -0.0156 -0.2969
31036W        W46930   1.942  15.304  12.056  0.1540 -0.0531  0.0628
31037W        W46931  12.620  11.377   3.246 -0.1329 -0.0509 -0.1294
31038W        W46932   0.216  10.907   0.069 -0.0525 -0.3101  0.0227
31039W        W46933  15.187   0.666   5.139 -0.2710 -0.0286  0.2744
31040W        W46934  18.272  11.441  13.740 -0.3167 -0.2212  0.0842
31041W        W46935  11.499   9.334  10.409 -0.0745 -0.2486  0.2112
31042W        W46936   9.794  16.742  11.573  0.2494 -0.2058 -0.2784
31043W        W46937  10.644  10.514   6.082 -0.0131  0.0203 -0.1454
31044W        W46938  16.617   5.968   2.104  0.1289 -0.3137  0.2327
31045W        W46939   8.734   3.296  14.383  0.0936 -0.0233 -0.0342
31046W        W46940  14.009   6.483   2.354 -0.2033 -0.0494  0.0262
31047W        W46941  10.595   7.416  14.114 -0.1566 -0.0677 -0.1215
31048W        W46942   1.741  14.277   4.520  0.0429 -0.1616  0.4641
31049W        W46943  14.879   4.167   5.794 -0.0622 -0.0568  0.1388
31050W        W46944  16.605  12.246  12.332  0.1601  0.2289  0.1869
31051W        W46945   4.453  11.866   1.200 -0.0747 -0.1639 -0.0736
31052W        W46946   3.464   8.349  11.836  0.0091 -0.2610  0.0031
31053W        W46947  11.462  17.436   0.239  0.1884  0.1468 -0.0192
31054W        W46948   8.808   5.775  13.855  0.0783 -0.0500 -0.3096
31055W        W46949   6.653   9.173  11.383  0.4945 -0.2671  0.3124
31056W        W46950   5.315   4.541  12.005  0.0272 -0.0806 -0.0563
31057W        W46951  12.904   5.444   6.214 -0.2168  0.3928  0.0389
31058W        W46952   2.804  15.263   5.759  0.1298 -0.0909  0.0635
31059W        W46953   9.033   8.946   3.188 -0.1002  0.2270  0.0162
31060W        W46954   5.039   6.196  15.212  0.4424  0.0968  0.1785
31061W        W46955   3.736   1.889   5.026 -0.1602 -0.2476 -0.0032
31062W        W46956   8.203   9.297  15.457 -0.2525  0.1136 -0.1451
31063W        W46957   2.187   7.947   3.897  0.2975 -0.1725  0.0298
31064W        W46958   2.991   3.336  12.055  0.0395  0.0323  0.1333
31065W        W46959  18.427  10.139   4.188  0.1388 -0.1450  0.0421
31066W        W46960   3.211  11.694  14.163 -0.2088  0.0331 -0.0954
31067W        W46961  16.323   7.881   4.589  0.0093 -0.2385  0.1107
31068W        W46962   3.272   2.346  14.304  0.1552 -0.0705  0.2372
31069W        W46963  18.018  15.819  11.572  0.0940 -0.0333  0.0106
31070W        W46964   1.067   7.514   4.151 -0.0643  0.3501  0.0936
31071W        W46965  12.435   8.095   1.299 -0.1438 -0.0184 -0.0566
31072W        W46966  17.710   1.533  15.639 -0.1111 -0.1160  0.1614
31073W        W46967  13.159   3.285   5.751  0.1071 -0.2382  0.1336
31074W        W46968  14.847   8.778  15.558 -0.1696  0.2928 -0.1602
31075W        W46969  14.261   2.410  12.690 -0.1122  0.1182 -0.2186
31076W        W46970  11.973   3.609   0.577 -0.2631  0.2691 -0.0809
31077W        W46971   9.702   3.245   2.314  0.2519 -0.0905  0.0866
31078W        W46972  16.708   3.019  13.930  0.1940  0.1077  0.1408
31079W        W46973   9.089  11.302   0.945  0.2946  0.1467  0.0232
31080W        W46974  18.214  18.037   1.961  0.1471 -0.2690 -0.1836
31081W        W46975  11.876   2.739   1.052  0.0116 -0.1090  0.1591
31082W        W46976   4.691   9.226  12.345 -0.0665 -0.2580 -0.3887
31083W        W46977  14.051   5.944  15.974  0.1110  0.1009 -0.2614
31084W        W46978   8.188   1.098  10.842 -0.0888  0.0927  0.1003
31085W        W46979   6.802   8.228  13.445 -0.1296  0.1607 -0.2334
31086W        W46980   2.782   3.744   4.895 -0.0233 -0.2901 -0.1484
31087W        W46981  15.990   7.518   4.422 -0.0211  0.0662 -0.0679
31088W        W46982   0.607   8.685  14.388 -0.0955  0.0315 -0.0748
31089W        W46983  17.539   8.840   1.690  0.0651 -0.1605 -0.1232
31090W        W46984   2.997  17.609  11.630  0.3013  0.1403 -0.1433
31091W        W46985   4.934  11.378   0.499 -0.1972  0.0083 -0.1143
31092W        W46986  12.414   1.481  13.943  0.0543 -0.1206  0.0737
31093W        W46987  10.957   6.527   2.164 -0.0052  0.0088 -0.0523
31094W        W46988  10.306   1.616  13.693 -0.1805  0.1071  0.1590
31095W        W46989  11.735  14.922   0.282  0.0056  0.1576 -0.1396
31096W        W46990  11.820   6.672  11.699 -0.0081 -0.0430 -0.0233
31097W        W46991  15.492  15.022  15.563  0.1453 -0.1707 -0.1024
31098W        W46992   4.669  18.127   2.789 -0.0280 -0.0602 -0.2212
31099W        W46993  17.750   5.791  16.119 -0.1870  0.1453 -0.0645
31100W        W46994   0.149  14.781  12.756 -0.0649  0.1079 -0.2570
31101W        W46995   5.872   4.018  15.248 -0.0858  0.0456  0.1450
31102W        W46996  10.183   6.193  15.137  0.2112 -0.0434  0.2558
31103W        W46997  15.984  10.616  13.325 -0.2642 -0.1742 -0.0203
31104W        W46998   9.849  11.413   4.458 -0.2149 -0.1328  0.1199
31105W        W46999  13.826   8.662   4.692  0.0670  0.0156 -0.2356
31106W        W47000  12.246  11.988   1.106  0.1980 -0.0059 -0.0754
31107W        W47001  14.069   5.380   3.083  0.2048 -0.1422  0.0996
31108W        W47002  17.635  13.377   6.223 -0.0863  0.2252  0.0878
31109W        W47003   3.406  13.243   3.367 -0.0167  0.5479  0.1166
31110W        W47004  13.026   4.536  10.988 -0.1272 -0.2255 -0.3342
31111W        W47005  17.331  13.415  15.053 -0.0703 -0.1409 -0.0096
31112W        W47006   0.930  14.708   1.387  0.2711  0.0901 -0.3958
31113W        W47007   1.178  16.638  12.399 -0.2114 -0.1966  0.1313
31114W        W47008  17.888  11.059   0.700 -0.0537 -0.0322  0.0803
31115W        W47009  11.423  15.144   0.764  0.2930  0.1066  0.0650
31116W        W47010  12.299   4.542   1.532  0.1470 -0.0668 -0.1574
31117W        W47011   8.255  10.312  12.341  0.1411  0.0638  0.2242
31118W        W47012  17.185  16.648   2.235  0.0448  0.1084 -0.0142
31119W        W47013   1.294   8.209   2.007  0.1979  0.1299 -0.0636
31120W        W47014   6.972   9.273  10.962 -0.0216  0.2194  0.0748
31121W        W47015   6.578   6.357   3.399  0.2362  0.0838  0.1413
31122W        W47016   9.177   4.314  13.188  0.3018 -0.0352 -0.1248
31123W        W47017  13.339   4.109   3.478  0.2151  0.0891 -0.2789
31124W        W47018  12.393   4.667   1.997 -0.3270  0.0378  0.0417
31125W        W47019   9.716  17.120  12.960 -0.2055  0.0478  0.3859
31126W        W47020  14.991   5.979  10.622  0.2882  0.0174  0.3642
31127W        W47021   0.678   3.420   1.567 -0.1110 -0.1711 -0.1259
31128W        W47022  16.601  16.699   1.959 -0.1787 -0.1418 -0.1096
31129W        W47023   6.465  18.252   2.337 -0.2250  0.0600 -0.1706
31130W        W47024  14.275  10.718   5.581  0.1828 -0.1716 -0.0626
31131W        W47025   3.217   9.590   5.566  0.1878 -0.1986  0.1206
31132W        W47026  17.238  11.530  14.470  0.2545  0.2960 -0.1409
31133W        W47027   0.469   2.945   3.475  0.1040  0.1837  0.6044
31134W        W47028  15.528  10.704  14.240  0.3404  0.0893 -0.0202
31135W        W47029  18.211  14.929   3.923 -0.0152  0.0651  0.1704
31136W        W47030  12.604   9.732  14.684  0.1257  0.2445 -0.1528
31137W        W47031  15.971  12.000  15.423  0.1460 -0.2157 -0.1719
31138W        W47032   0.014  10.102  12.770  0.0135 -0.0203 -0.2568
31139W        W47033   1.571  14.740  12.950 -0.0874  0.3283 -0.1720
31140W        W47034   3.438   2.649   4.786  0.2713  0.1480 -0.3273
31141W        W47035  12.732   2.108  14.487 -0.1616 -0.4514 -0.0245
31142W        W47036   5.867  12.576  15.726  0.0189  0.0225 -0.0879
31143W        W47037  16.603  17.460  13.518  0.3945  0.0686  0.3412
31144W        W47038   9.726   8.309   5.791  0.0002  0.0673 -0.0730
31145W        W47039  11.564   6.260  11.487  0.2382 -0.2684 -0.1307
31146W        W47040  18.445  10.702  15.825  0.0254 -0.0268  0.2361
31147W        W47041  10.471   0.233   4.372  0.1021 -0.4237  0.2011
31148W        W47042  16.825   1.088   4.849 -0.0605  0.1924 -0.1305
31149W        W47043   8.522   7.232  15.995 -0.0025  0.2311 -0.2507
31150W        W47044  14.692  16.624   3.061  0.0696 -0.1332  0.2603
31151W        W47045  11.895   9.774   3.956  0.1024 -0.0051 -0.1145
31152W        W47046  16.959  15.731  10.304  0.0233  0.1283 -0.1907
31153W        W47047   4.987  16.063   4.761 -0.3010 -0.1004 -0.0049
31154W        W47048   1.697   7.466  13.252 -0.0070  0.2104  0.1516
31155W        W47049  14.709  17.052  11.846  0.1012 -0.1144  0.0806
31156W        W47050  10.859   2.339   1.584 -0.0086  0.0114  0.1228
31157W        W47051  17.721   1.764  11.379  0.1192  0.0491  0.3275
31158W        W47052   7.508  13.175   1.299 -0.3348  0.0797 -0.1310
31159W        W47053  16.117  10.546  15.776 -0.0127  0.0254 -0.3928
31160W        W47054   2.122   0.875   1.684 -0.0664 -0.0932 -0.1398
31161W        W47055   7.646  16.557   3.598  0.1387  0.0311  0.2147
31162W        W47056  14.333  17.983   4.414  0.2927 -0.2044 -0.0732
31163W        W47057   8.487   3.435   5.658 -0.1391 -0.3039 -0.0770
31164W        W47058  14.750  14.739  14.598 -0.1501  0.1417  0.2087
31165W        W47059   1.712  10.151   4.785  0.1919  0.2762 -0.0025
31166W        W47060  15.395  16.984   1.024  0.0539 -0.0136 -0.0010
31167W        W47061  10.804  10.614  14.891  0.1862  0.0204  0.2305
31168W        W47062   1.618   7.050   4.621 -0.0745 -0.1066  0.1398
31169W        W47063   6.052   7.342  14.628 -0.0909 -0.1245 -0.4369
31170W        W47064  12.606   7.661  14.926  0.1004  0.0480 -0.0679
31171W        W47065  11.570   5.342  12.233 -0.0367 -0.2716 -0.0504
31172W        W47066   4.338   1.025  11.917  0.1837  0.1869  0.1111
31173W        W47067  12.587  11.469  12.787 -0.1913 -0.0031 -0.4144
31174W        W47068  10.683   3.783   4.053 -0.4138 -0.2661 -0.0397
31175W        W47069   9.826   2.540   1.440 -0.1068  0.0532  0.4415
31176W        W47070  10.720   8.473  15.879 -0.0452  0.1254 -0.3327
31177W        W47071   9.869  13.311  13.136  0.1720 -0.3121 -0.1555
31178W        W47072  15.019   4.923  14.065 -0.1169  0.2292 -0.0108
31179W        W47073   2.039  17.783   0.601  0.1566  0.5046 -0.2831
31180W        W47074   8.983  11.064   0.420 -0.1883  0.0091 -0.1972
31181W        W47075  15.835   0.723   4.923  0.2471 -0.0107  0.1184
31182W        W47076  10.034  14.134  13.590 -0.1745 -0.1653  0.1958
31183W        W47077   7.035   3.578   1.423 -0.2132  0.1135  0.1563
31184W        W47078   2.151  11.438   4.458 -0.1567  0.4474 -0.0598
31185W        W47079   1.086  18.048   2.503 -0.1946 -0.1475  0.4660
31186W        W47080   1.870  10.980  13.367 -0.1879  0.3105 -0.0494
31187W        W47081  18.347   6.836   1.310 -0.2988 -0.4521  0.2794
31188W        W47082  13.455   3.477  15.313 -0.3194 -0.0031  0.0123
31189W        W47083   6.540  14.184   4.304 -0.1268  0.2420 -0.0527
31190W        W47084   6.536  16.416   2.731 -0.0203 -0.2890 -0.0286
31191W        W47085  15.884   6.684   5.143  0.0086 -0.0063  0.1165
31192W        W47086   7.194   0.318   2.949 -0.0300  0.1895 -0.1784
31193W        W47087  16.334  17.681   4.545  0.0915 -0.2380  0.1550
31194W        W47088  10.804   7.269   1.773 -0.0041  0.1124  0.3238
31195W        W47089  11.443   3.883   5.586 -0.2849 -0.0695 -0.1201
31196W        W47090  18.381  16.621   0.352 -0.0032 -0.0838 -0.0203
31197W        W47091  12.362  11.162  11.843 -0.3650  0.0270  0.2224
31198W        W47092  12.663  13.785   0.265  0.0187  0.3895  0.2200
31199W        W47093   9.510  15.522  10.947  0.0480  0.0827  0.0925
31200W        W47094   1.937  15.663   2.865  0.2001  0.0154 -0.1027
31201W        W47095   7.965  17.712   4.487  0.1219 -0.2268  0.0030
31202W        W47096   9.303   8.024  15.955  0.0057  0.0984 -0.0410
31203W        W47097   1.258  14.955  16.093  0.2631 -0.0369  0.1463
31204W        W47098  10.801  11.278   3.351  0.2454 -0.0378 -0.0141
31205W        W47099   4.017   1.940   4.604  0.1478 -0.2010  0.1011
31206W        W47100   6.863   2.481   4.555 -0.1142  0.1494  0.1557
31207W        W47101   3.039   4.321   0.900  0.0254 -0.1086  0.0329
31208W        W47102   4.377  13.061  13.191  0.1018 -0.0591  0.1441
31209W        W47103   2.923  16.153  15.147  0.1858 -0.0119  0.2312
31210W        W47104  15.657   5.085  12.600 -0.2601  0.3417 -0.2111
31211W        W47105   5.707  16.152  11.388 -0.1037  0.0744  0.1297
31212W        W47106   8.545  15.646   2.856 -0.0826 -0.2007  0.0680
31213W        W47107   5.222   3.145   5.227 -0.2057  0.0558  0.1448
31214W        W47108   6.066   5.948  12.134 -0.0571  0.0652  0.0462
31215W        W47109   6.077   1.797  13.049 -0.0286  0.5204 -0.1784
31216W        W47110   7.396   4.660  14.698 -0.1299 -0.0418  0.0886
31217W        W47111   8.284  11.633   1.776  0.2612 -0.1359 -0.1863
31218W        W47112   4.216   7.886   0.857  0.1582 -0.0982 -0.0114
31219W        W47113  12.204  17.943  14.677  0.1993  0.1128  0.1126
31220W        W47114  17.282  17.522   5.084 -0.2806  0.1236  0.3053
31221W        W47115   4.305  10.677   3.975  0.0334 -0.1719  0.2508
31222W        W47116   1.452  13.176   1.775  0.0242  0.1765 -0.2017
31223W        W47117  10.144   2.791   1.699  0.2501  0.1196  0.0317
31224W        W47118   3.027   0.013  14.163 -0.1518  0.1139 -0.4187
31225W        W47119   8.373   1.726   5.403  0.2471 -0.0797 -0.2241
31226W        W47120   1.676   5.477   0.629 -0.1135 -0.1041 -0.3034
31227W        W47121  11.516   9.275  12.514 -0.0426 -0.0518 -0.0093
31228W        W47122   1.162   3.856  15.645 -0.0620  0.0646 -0.0986
31229W        W47123   8.122   9.155   5.245 -0.1895 -0.0219 -0.2525
31230W        W47124   8.708   0.837   3.003 -0.2834  0.2036  0.0486
31231W        W47125   7.704   0.062   6.135  0.0526 -0.1503 -0.2042
31232W        W47126  11.276   1.338  13.404  0.0429  0.3554  0.0683
31233W        W47127   2.808  12.226  15.968 -0.0004 -0.0851  0.0928
31234W        W47128   4.207  10.373  11.806 -0.0332 -0.1633 -0.1478
31235W        W47129  14.273   6.678   4.695 -0.0252  0.0955 -0.3688
31236W        W47130  13.722   8.310  15.589  0.1337 -0.1342 -0.1822
31237W        W47131   5.971   3.557  15.054  0.0315  0.0740  0.1296
31238W        W47132  14.376   6.212   3.871 -0.1577 -0.0302 -0.0550
31239W        W47133   6.537   8.594   2.936  0.3454 -0.0459 -0.0692
31240W        W47134  10.126  15.967  11.045 -0.3303  0.2338 -0.1237
31241W        W47135  14.487   8.419  15.494  0.1940 -0.0409 -0.2609
31242W        W47136   7.192  11.389   1.564 -0.3827  0.2539 -0.0848
31243W        W47137   6.054   6.551   4.834  0.0085 -0.0248  0.0162
31244W        W47138   0.578   9.165  15.551  0.0874  0.0937 -0.2856
31245W        W47139  13.902  10.205  15.820  0.0311  0.1201  0.1135
31246W        W47140   1.554   1.765   2.706  0.3463 -0.0668  0.3754
31247W        W47141   0.223   9.567   0.326  0.1060 -0.4663 -0.0127
31248W        W47142  14.182  12.152  15.088 -0.0957  0.0992 -0.0892
31249W        W47143  11.465   3.467  12.516 -0.1411  0.1663 -0.3263
31250W        W47144   8.307   2.995  11.794 -0.1189  0.0044  0.1648
31251W        W47145   3.763  15.078   4.413  0.5872  0.1513  0.1035
31252W        W47146   3.524   2.811   0.295 -0.1272 -0.1123 -0.0396
31253W        W47147   2.300   8.301   1.987 -0.7298 -0.0041  0.0394
31254W        W47148   2.335   3.368   6.003 -0.0368  0.1651 -0.3041
31255W        W47149   7.557  14.519   1.067  0.1784  0.1643 -0.1505
31256W        W47150  18.192  12.851  13.106  0.0127 -0.0155 -0.1416
31257W        W47151  10.885  12.674   3.518  0.0086 -0.3474 -0.2996
31258W        W47152  13.885  13.904  15.689 -0.2560  0.1590  0.2583
31259W        W47153  13.327   6.886   2.625 -0.0640  0.0390 -0.2071
31260W        W47154  13.924   8.207   0.275 -0.0809  0.4256 -0.1157
31261W        W47155  15.802  17.564   0.259 -0.0723 -0.2071  0.1162
31262W        W47156  14.264   9.475  13.625  0.1326 -0.2048  0.0511
31263W        W47157  16.989   9.257   5.848  0.1582  0.2085 -0.3111
31264W        W47158   8.584  13.396  12.497 -0.3742  0.0912  0.0534
31265W        W47159   4.171   8.456   0.911  0.1686 -0.0920 -0.2619
31266W        W47160  13.027   1.623  12.993 -0.3344 -0.2195  0.1025
31267W        W47161   7.343  17.708   4.562 -0.0630  0.0361 -0.1360
31268W        W47162  15.264   9.128   4.774  0.0381 -0.0827 -0.0615
31269W        W47163   6.705  15.912   0.047  0.1131  0.2021  0.1763
31270W        W47164   4.172   2.737   3.880  0.1881  0.0644 -0.3433
31271W        W47165  16.539  11.730   2.157 -0.0334 -0.0052  0.1229
31272W        W47166  10.105   0.178  13.294  0.0269 -0.1729 -0.1632
31273W        W47167   8.565  16.892   0.154 -0.0305 -0.0352 -0.0399
31274W        W47168   5.956   5.005   5.903 -0.0359 -0.0899 -0.0118
31275W        W47169   0.763   2.668  15.282  0.1893 -0.0881  0.2805
31276W        W47170   5.701   3.608   1.189 -0.2775 -0.0785 -0.2146
31277W        W47171  12.852  13.053   4.350 -0.0838 -0.0540  0.2365
31278W        W47172   1.029   0.956   3.761  0.2353 -0.0893 -0.0052
31279W        W47173  10.376   9.213   5.301 -0.0586 -0.2264 -0.0477
31280W        W47174   0.571  13.721   2.095  0.5979 -0.0978 -0.0294
31281W        W47175  17.088   9.871   0.149  0.0461 -0.1258  0.1484
31282W        W47176   7.851  16.067   3.978  0.2982  0.2999 -0.1495
31283W        W47177  11.751   6.578  15.383  0.0452  0.2047 -0.1964
31284W        W47178   0.768   8.249   2.100  0.2001 -0.1208  0.2346
31285W        W47179  18.275  10.673   3.620  0.1508 -0.2250 -0.1007
31286W        W47180   2.391   1.425  15.134 -0.1770 -0.4271  0.1558
31287W        W47181   6.681   0.898   3.615  0.0586 -0.0669  0.1690
31288W        W47182  10.735   0.783   3.335  0.4341 -0.0703 -0.0541
31289W        W47183   3.955   6.570   4.806  0.2468 -0.2804 -0.0591
31290W        W47184   7.785  12.710  11.431  0.2166 -0.1750 -0.2242
31291W        W47185  10.210   5.186  12.007 -0.3292 -0.0299 -0.1826
31292W        W47186   2.679   6.614  15.391 -0.0507 -0.1062  0.2936
31293W        W47187   9.363  17.396   3.580 -0.2353 -0.0316  0.2347
31294W        W47188  10.663  14.511   5.457  0.2089  0.1149  0.2164
31295W        W47189   2.436   9.002   1.379  0.2223  0.1732  0.0792
31296W        W47190   8.122   9.767  14.694 -0.0356  0.1149  0.2615
31297W        W47191  13.267  15.079   3.167 -0.0791 -0.1833  0.0210
31298W        W47192   0.940   9.059   4.553 -0.0221  0.3121  0.2844
31299W        W47193  14.230  10.440   0.060  0.1300 -0.5324 -0.2075
31300W        W47194   6.365  16.567  11.803 -0.1350  0.0875  0.0543
31301W        W47195  14.209   7.197  13.759  0.0025 -0.2059 -0.2883
31302W        W47196   4.285   2.478  11.659 -0.2217  0.2977  0.0419
31303W        W47197  17.272  17.753  12.385  0.1701  0.2037  0.2833
31304W        W47198  18.118   4.498   2.420  0.0263 -0.1768 -0.1534
31305W        W47199  13.267  13.967   4.420 -0.2008 -0.4178  0.1158
31306W        W47200  12.946  14.460  11.747 -0.2106 -0.2699  0.1447
31307W        W47201   4.050  14.791   4.780 -0.1093 -0.1202 -0.1487
31308W        W47202   5.978   5.148  12.878  0.0223  0.0248  0.2077
31309W        W47203   4.376  13.603   1.695  0.1340  0.0467  0.0580
31310W        W47204   3.162   7.896   1.605 -0.0071 -0.1551  0.0759
31311W        W47205   1.700   4.258   2.111  0.0934  0.0031 -0.1124
31312W        W47206  10.985  16.770  10.668  0.0703  0.0964 -0.2005
31313W        W47207  16.084   7.709   0.224 -0.1808 -0.3570 -0.0818
31314W        W47208   8.195   3.267   3.126  0.2230  0.1163 -0.4139
31315W        W47209   8.487   5.171   1.646 -0.2023 -0.0959  0.1107
31316W        W47210  16.187   3.882  15.524  0.1288 -0.1085  0.0499
31317W        W47211   9.798  12.737   1.388 -0.2355  0.4645  0.0354
31318W        W47212   0.471  14.758   5.054  0.2252  0.1606  0.1077
31319W        W47213   2.045   4.086  15.882  0.2665  0.1589  0.0126
31320W        W47214   3.359   3.469  11.598  0.4074 -0.0662 -0.2073
31321W        W47215  15.790   2.327   5.446  0.0445  0.3399 -0.1839
31322W        W47216   1.411   8.380   2.847 -0.1525  0.2511 -0.0331
31323W        W47217   1.274  12.148  13.110  0.1227 -0.3495  0.1431
31324W        W47218   6.586  13.863   2.567  0.1652 -0.0395 -0.1511
31325W        W47219   6.632   8.798   1.060 -0.0301  0.2952  0.0629
31326W        W47220  14.685   1.172   6.419 -0.1714 -0.0284 -0.0661
31327W        W47221   0.734  16.318  15.936  0.0964  0.0855  0.1512
31328W        W47222   7.562  10.915   1.736  0.0993 -0.0750  0.0566
31329W        W47223  13.517  11.150  15.694 -0.0978  0.0080  0.0791
31330W        W47224  14.976  10.561   3.149 -0.3497  0.1547  0.2503
31331W        W47225   5.295   0.733   1.560 -0.1297 -0.0016 -0.0227
31332W        W47226  14.302   9.183   0.998  0.3439  0.2370 -0.2081
31333W        W47227   9.237   0.992  13.529  0.0727 -0.0669  0.0886
31334W        W47228   5.240   0.423  14.539 -0.0864  0.0941  0.2307
31335W        W47229   8.600  15.378  12.540 -0.0021  0.3706 -0.1222
31336W        W47230  10.523   5.087   2.471  0.0402  0.3187  0.0071
31337W        W47231   9.840   5.173  11.581  0.1551  0.1109 -0.4024
31338W        W47232   2.550  18.240  11.328  0.1658  0.0191  0.1679
31339W        W47233   3.437   4.439   5.011 -0.3946 -0.1497 -0.1080
31340W        W47234   7.044   0.898  13.510 -0.1488 -0.1032 -0.0854
31341W        W47235  11.998   2.759   1.748  0.2959 -0.1364 -0.0989
31342W        W47236   9.558   1.239   1.179  0.0271 -0.1430  0.1184
31343W        W47237   2.465  12.407   0.528 -0.3284 -0.2126  0.0179
31344W        W47238   2.077   4.304  15.353  0.1653  0.0811 -0.2413
31345W        W47239   0.750   4.467  11.568  0.4531  0.1851  0.1686
31346W        W47240   7.517   1.558   0.318 -0.1754 -0.0287 -0.0905
31347W        W47241   3.790   6.683  12.729  0.4542 -0.0648 -0.1351
31348W        W47242   0.381  11.636   1.198  0.2931  0.2294  0.0652
31349W        W47243  15.301  12.077   0.355 -0.1497 -0.1319  0.1151
31350W        W47244   6.620  11.930   3.479 -0.2130  0.1670 -0.0043
31351W        W47245  12.069   5.277   4.467 -0.3056  0.4715 -0.1133
31352W        W47246  13.695   1.239  11.750 -0.2842 -0.1225 -0.3138
31353W        W47247   0.324   2.022   3.789  0.1389 -0.0525  0.3071
31354W        W47248  13.865  18.063   2.910  0.4730  0.2744  0.1285
31355W        W47249   6.620  18.287  11.738  0.3504 -0.3216  0.1491
31356W        W47250   1.560   7.710  11.464 -0.0817  0.0268  0.0196
31357W        W47251   4.555   7.478  11.102 -0.1947 -0.0381 -0.2234
31358W        W47252   9.976   0.528  12.288  0.1654  0.1170  0.1633
31359W        W47253  16.329  14.408  13.293 -0.2012 -0.0716  0.0445
31360W        W47254  12.893   8.539  14.073  0.1368  0.0385  0.0864
31361W        W47255   9.511  17.630   4.006  0.1251  0.1913 -0.2947
31362W        W47256  11.633  17.788  13.819  0.0488 -0.3540  0.2793
31363W        W47257   5.201   0.749   2.067 -0.4785 -0.1160 -0.1769
31364W        W47258  12.956   8.197   4.059 -0.4196 -0.1962  0.0541
31365W        W47259  17.706   0.399   3.447  0.0665  0.2553 -0.0202
31366W        W47260   3.057  10.324  13.355  0.0741 -0.0289 -0.0095
31367W        W47261   3.161   9.399  12.133 -0.1859  0.0875 -0.2014
31368W        W47262   7.625   3.417   0.475 -0.0684  0.0159 -0.0984
31369W        W47263  16.150  12.450  12.636 -0.0489 -0.1281  0.1120
31370W        W47264  14.603  11.527   0.844  0.0964 -0.1974 -0.2172
31371W        W47265  17.734  15.195   6.216 -0.1004 -0.0133  0.0168
31372W        W47266   6.233   6.972  13.714  0.0684 -0.1250  0.0082
31373W        W47267   2.793  10.422   3.962  0.0791  0.2004  0.0525
31374W        W47268  11.103   7.390   5.542  0.1925 -0.0744 -0.1426
31375W        W47269   9.015   2.385  11.834  0.1741 -0.2113 -0.1133
31376W        W47270  17.928  16.387   0.191 -0.1469 -0.2067 -0.1072
31377W        W47271  18.176  16.920  12.872  0.2094  0.1371  0.2145
31378W        W47272  11.219  15.100  15.276  0.1736  0.1373 -0.3254
31379W        W47273   2.969   5.749  13.113  0.1010 -0.0986  0.3169
31380W        W47274   9.037  10.697  13.267  0.0382  0.1374 -0.4028
31381W        W47275  15.558  14.715  12.581  0.0469  0.0846  0.1285
31382W        W47276  12.442  13.669   1.977 -0.1377 -0.1816  0.0477
31383W        W47277  14.177   2.217  13.778 -0.2347 -0.2986 -0.2330
31384W        W47278   6.591  11.998   1.372  0.1728 -0.0605 -0.0425
31385W        W47279  16.082   1.867  15.254  0.2819 -0.2621  0.1654
31386W        W47280  16.355   1.465   3.682 -0.1519 -0.1145 -0.0969
31387W        W47281   4.303   1.450  14.750 -0.2294  0.0678 -0.1328
31388W        W47282  18.105   5.371  13.543  0.4488  0.0279 -0.0869
31389W        W47283   8.067   8.234  11.539 -0.1434 -0.0616 -0.1194
31390W        W47284   0.479   8.911   4.977 -0.1426 -0.1748  0.1517
31391W        W47285   5.264   3.584   4.485  0.1837 -0.3522 -0.1615
31392W        W47286   5.299  16.602  13.215  0.2104  0.0669 -0.2208
31393W        W47287  13.865   2.616   0.288  0.0490 -0.0386  0.0558
31394W        W47288  16.701  11.205  13.744 -0.4866  0.0982  0.0196
31395W        W47289   1.658   1.595  16.010 -0.0927 -0.0606  0.0645
31396W        W47290   6.079   1.003  14.833  0.3089 -0.1315 -0.0887
31397W        W47291  14.246   0.684  15.398 -0.0550  0.0046 -0.0187
31398W        W47292  18.216  13.413   0.854 -0.0883  0.1442 -0.1893
31399W        W47293   6.503   7.776  12.068  0.0794  0.1368  0.0001
31400W        W47294  14.976  18.223   1.375 -0.0147  0.4953 -0.1140
31401W        W47295  10.731   3.583  13.048 -0.2515  0.1136  0.2958
31402W        W47296  17.901  14.361  13.028 -0.3189  0.2695 -0.1576
31403W        W47297  16.005   7.613  14.615 -0.0205  0.2881  0.1454
31404W        W47298  17.516   5.796  11.968 -0.1437  0.0727 -0.1802
31405W        W47299   5.129   8.246   2.793  0.2807  0.1423  0.2643
31406W        W47300   5.642   1.559   4.601 -0.1647  0.2209  0.0433
31407W        W47301  17.345   3.575  14.943  0.2114  0.0479 -0.1545
31408W        W47302  13.181   3.729   3.916 -0.0981 -0.0161  0.0972
31409W        W47303   7.352   5.686   4.240 -0.1434 -0.3394  0.1523
31410W        W47304  11.039  11.071  14.831  0.2003 -0.0218 -0.0049
31411W        W47305   1.123   5.229   5.882 -0.0816  0.1002 -0.0773
31412W        W47306   8.130   7.578   4.118 -0.3707  0.0779 -0.0524
31413W        W47307   9.928  12.329   4.022 -0.1457 -0.1571 -0.1247
31414W        W47308  16.801  16.316   1.048 -0.1218  0.0444  0.1357
31415W        W47309  15.357   5.049   3.960 -0.2611  0.0621  0.0797
31416W        W47310   9.040   4.862   3.580 -0.0441 -0.1519 -0.1351
31417W        W47311   3.750  13.750  13.444 -0.1744 -0.1049 -0.2225
31418W        W47312  12.499  14.283   0.513 -0.1220 -0.0143 -0.1666
31419W        W47313  11.921  10.469   1.821 -0.2289 -0.0132  0.0158
31420W        W47314  14.730   5.598  15.575  0.3038 -0.0854 -0.1551
31421W        W47315  15.112  16.981  14.612 -0.1810 -0.0518  0.0204
31422W        W47316   2.871   3.890  13.209 -0.2205  0.2678  0.1085
31423W        W47317   5.483   2.152   0.426 -0.2006  0.2154  0.2441
31424W        W47318  16.033  10.368  15.311 -0.2607  0.0595  0.1580
31425W        W47319   9.531   7.213  15.035  0.0420 -0.2143 -0.0954
31426W        W47320   7.031  14.915  14.638  0.2364 -0.3512  0.0018
31427W        W47321   4.989   8.643  13.655 -0.1426 -0.1421 -0.0092
31428W        W47322   2.566   6.096  13.010 -0.0391  0.1609 -0.3868
31429W        W47323   5.455   5.425  11.793  0.0411  0.2132  0.1220
31430W        W47324   8.071  13.738   3.839  0.2303 -0.0984  0.5713
31431W        W47325   4.111  12.892   1.018  0.0941  0.2649 -0.1695
31432W        W47326  15.788  14.215  11.593  0.1427 -0.1757 -0.2563
31433W        W47327  11.559  10.066  13.184  0.2970 -0.1260 -0.1718
31434W        W47328   9.038   6.588  15.012  0.0461 -0.0924  0.0847
31435W        W47329   7.528  15.776   1.196 -0.1107 -0.0907  0.0367
31436W        W47330   1.421   1.764  11.109 -0.0982 -0.1561 -0.2217
31437W        W47331   2.532   5.491   2.034 -0.0787  0.0233  0.1087
31438W        W47332  11.077  14.425  12.789  0.4019 -0.3120 -0.0452
31439W        W47333  16.049   9.946   0.186  0.3386  0.2736 -0.2272
31440W        W47334   7.618  11.811  15.677 -0.0257  0.0935 -0.2246
31441W        W47335   3.919  11.802   2.494 -0.1924 -0.1264  0.1154
31442W        W47336  16.674   4.405   2.298  0.1148  0.0044 -0.3119
31443W        W47337  15.613  15.510   3.172  0.2793 -0.6111 -0.1061
31444W        W47338   8.964   6.874  14.358  0.0455 -0.1579  0.1611
31445W        W47339  14.687  11.665   2.899  0.0645 -0.2475  0.1161
31446W        W47340  15.219   2.186   3.095  0.1707 -0.1062 -0.0018
31447W        W47341   8.127   8.019  12.391 -0.0260  0.2581  0.0422
31448W        W47342   3.211   7.473   0.181  0.0134 -0.3103 -0.0911
31449W        W47343  13.882   4.408   4.851 -0.0955 -0.1305  0.1173
31450W        W47344  15.807   8.917  12.462 -0.1107  0.4582  0.0751
31451W        W47345   1.761   4.177  15.010 -0.0256 -0.3409 -0.0766
31452W        W47346  15.294   6.390   4.472  0.1062  0.2410  0.1054
31453W        W47347   3.888   5.538   4.883 -0.1676 -0.1583  0.1457
31454W        W47348   6.650   5.111   2.918 -0.3050 -0.0476  0.1663
31455W        W47349   2.293   8.499  13.665  0.4246  0.0489 -0.2296
31456W        W47350   4.431   2.412  12.589 -0.0896 -0.1374  0.0213
31457W        W47351  15.945  15.586   2.145 -0.2804 -0.1458 -0.2099
31458W        W47352  14.097   3.386   0.111 -0.1229 -0.0281 -0.2114
31459W        W47353  18.254  16.059   6.115 -0.1939 -0.0417 -0.2280
31460W        W47354  10.770  17.371  11.795  0.0166 -0.0708  0.0337
31461W        W47355   7.305  13.478   2.828 -0.1399 -0.2451  0.4463
31462W        W47356  15.818  13.875   0.802  0.0283  0.2108  0.0395
31463W        W47357  17.714   9.139   2.899 -0.0086 -0.0824 -0.1490
31464W        W47358  12.121   6.912  10.908 -0.1388 -0.2038 -0.1379
31465W        W47359   3.971   6.018  15.124 -0.0201 -0.2006 -0.0323
31466W        W47360   9.343   6.739  14.031 -0.3790 -0.2141 -0.4153
31467W        W47361  10.317  17.874  14.665 -0.0895  0.2492  0.1621
31468W        W47362   3.163  10.946   0.245  0.0845 -0.1212 -0.2770
31469W        W47363   6.112   4.975   1.178 -0.0535  0.2798  0.2326
31470W        W47364  15.159  13.164   3.659  0.0422 -0.0896 -0.3943
31471W        W47365   6.896   8.487  13.837 -0.0568 -0.0264 -0.1592
31472W        W47366   2.862   0.721  12.587  0.0441 -0.1000  0.1564
31473W        W47367   5.535  13.025   3.086  0.0114  0.5144  0.0971
31474W        W47368   6.488   4.781   5.161 -0.2807  0.0837 -0.1580
31475W        W47369  16.077   7.917  12.667  0.3751 -0.0313 -0.4192
31476W        W47370  16.865   5.948  12.466  0.1618 -0.1019 -0.3503
31477W        W47371   0.600   9.611  13.655  0.0256 -0.0987 -0.2031
31478W        W47372  12.283   6.054   4.617 -0.3271  0.7320  0.0642
31479W        W47373   6.532  15.347   5.712  0.3701  0.1460  0.0250
31480W        W47374  12.445  17.259   0.960  0.0086 -0.0443 -0.0060
31481W        W47375   4.745  12.112   3.694 -0.3718 -0.0590  0.4471
31482W        W47376  11.724  17.017  13.000  0.2107  0.0611 -0.1915
31483W        W47377   5.484  11.644   1.131 -0.0224 -0.1973 -0.1109
31484W        W47378   0.964  16.333   2.345 -0.2417 -0.2329  0.2803
31485W        W47379  12.043   7.777   1.204  0.4508  0.0332  0.1383
31486W        W47380  15.926   6.836  11.651 -0.1030  0.0012 -0.1360
31487W        W47381  11.248   7.361   2.030 -0.1433  0.0851  0.0646
31488W        W47382   0.493  11.717   2.005  0.1736 -0.1135  0.2399
31489W        W47383  17.970   4.143  14.003  0.2573  0.2447  0.0034
31490W        W47384   0.296  13.305   2.217  0.1169  0.0524  0.1617
31491W        W47385   6.115   8.122   2.107  0.3898 -0.0070 -0.1978
31492W        W47386  14.731  17.582   2.172 -0.0492 -0.0694  0.0558
31493W        W47387   2.892  15.155  14.941  0.0367 -0.1660  0.0950
31494W        W47388  17.539  17.923   3.133 -0.0288 -0.2848 -0.0294
31495W        W47389   9.134  11.751  11.581  0.0067  0.1765  0.0473
31496W        W47390  10.204   0.122   3.949  0.0139 -0.2340  0.2907
31497W        W47391   3.753  16.121  14.270 -0.0921  0.1490 -0.1340
31498W        W47392  16.090   4.378   0.858  0.1216  0.4707 -0.1118
31499W        W47393   7.188   7.368   2.754  0.4120 -0.0545 -0.3120
31500W        W47394  11.486  11.443   0.032  0.0474  0.2816 -0.0791
31501W        W47395  14.910  14.958   3.819  0.1988  0.2214  0.0355
31502W        W47396   1.846   7.368   1.342  0.0890  0.0990 -0.2010
31503W        W47397   7.036   6.973  14.155  0.1886  0.0650  0.0091
31504W        W47398   2.641   0.210  15.217 -0.2564 -0.3858  0.1046
31505W        W47399   5.088   1.666  13.740  0.0526  0.3389  0.1386
31506W        W47400   1.446  17.251  13.568 -0.0349 -0.1898  0.2131
31507W        W47401   5.079   3.641  10.850 -0.0644  0.1120 -0.1822
31508W        W47402   9.561   0.372  13.578  0.1702  0.1355 -0.0735
31509W        W47403  12.513  13.521   2.427 -0.0371  0.0012  0.3170
31510W        W47404  16.763   5.933   1.159  0.0490 -0.2713  0.3281
31511W        W47405  18.369  12.395   4.733  0.2235 -0.0840  0.1422
31512W        W47406   7.638  15.882  11.173 -0.2594  0.0740  0.2279
31513W        W47407  10.506   7.302   2.746  0.4134  0.4022 -0.2688
31514W        W47408  12.823   0.546   0.902 -0.3155  0.0248 -0.5609
31515W        W47409   8.235  15.581   1.619 -0.3080 -0.1375  0.2660
31516W        W47410   4.997   0.716   4.811  0.1045  0.0036  0.0768
31517W        W47411   2.682  16.596  13.925  0.2592 -0.0101 -0.1645
31518W        W47412  16.357   2.576   4.616 -0.2588  0.3008 -0.2025
31519W        W47413   7.511   9.270  15.878 -0.1312  0.2301  0.0632
31520W        W47414   9.632  16.105  11.044 -0.2824 -0.0266 -0.0373
31521W        W47415  17.939  12.466  12.977 -0.2025  0.0447  0.0417
31522W        W47416   7.940  14.736  12.548 -0.1214  0.1759 -0.0451
31523W        W47417   8.581  11.270   4.213 -0.1083  0.2903  0.1572
31524W        W47418   8.863  16.722  14.982 -0.0158 -0.0465 -0.2414
31525W        W47419  16.930  11.760  15.797  0.1885  0.1001  0.5318
31526W        W47420  15.519   0.446   4.635 -0.0419 -0.2155 -0.1312
31527W        W47421   8.780  17.247  15.014 -0.1545 -0.2291 -0.1764
31528W        W47422  12.031   4.305  13.280  0.0686  0.1877 -0.1663
31529W        W47423  13.877  16.069  14.422 -0.0749 -0.0219 -0.1104
31530W        W47424  13.820  16.887  12.141 -0.4706  0.0611  0.2042
31531W        W47425  16.275  10.055   5.062  0.2829  0.1405  0.1044
31532W        W47426   5.057   4.464  14.175  0.0162  0.0484 -0.0397
31533W        W47427  10.536  15.949   0.498  0.2023 -0.1291 -0.0193
31534W        W47428  15.507  14.269   0.086  0.0463 -0.0474 -0.0165
31535W        W47429   7.915  18.298   3.362  0.1283  0.0698  0.0156
31536W        W47430  13.732   6.043   5.244 -0.2453  0.0145 -0.1440
31537W        W47431   7.637  11.735   3.176 -0.3003  0.1503 -0.1405
31538W        W47432   7.363   5.023  15.108  0.1740  0.1354 -0.2004
31539W        W47433   8.106  12.063  14.177 -0.0484  0.4145 -0.0252
31540W        W47434   6.741  14.496  11.852  0.0476  0.1054 -0.2107
31541W        W47435   4.327  10.113   0.491 -0.1962 -0.0268  0.0188
31542W        W47436  15.946   5.227  13.480  0.1706  0.0463  0.1074
31543W        W47437  16.854   0.454   0.796 -0.1132  0.1349  0.2159
31544W        W47438   2.969   1.975  15.589 -0.0845 -0.0766  0.0196
31545W        W47439   8.788   8.428  13.963  0.1638  0.1014 -0.0656
31546W        W47440   2.393   7.777  13.835 -0.1712 -0.0093  0.2076
31547W        W47441   1.770   9.250   1.668  0.0318 -0.0220  0.0053
31548W        W47442   2.823  14.848   4.325  0.1978  0.0918 -0.0391
31549W        W47443  12.147   9.916  15.713 -0.0382 -0.0981  0.0791
31550W        W47444   1.553  13.440   0.769  0.0508 -0.0205  0.0027
31551W        W47445  14.292  12.861  12.505 -0.0440  0.3867 -0.0150
31552W        W47446   7.603   0.932  15.330 -0.2008  0.0333 -0.0705
31553W        W47447  15.064   9.280   6.299 -0.5248  0.0944 -0.2968
31554W        W47448   4.442   2.514  15.723  0.1901  0.2001 -0.1483
31555W        W47449  16.633   3.371   1.568  0.2840  0.2051 -0.1099
31556W        W47450  13.844  16.305   2.856 -0.1759 -0.1155 -0.1515
31557W        W47451   9.309   9.381   0.197 -0.0815 -0.3371  0.0932
31558W        W47452  13.228   3.252   2.583  0.5005 -0.1109  0.2120
31559W        W47453   6.437  10.580  14.416 -0.0762 -0.0802  0.2112
31560W        W47454   3.760  18.300  13.686 -0.1192  0.1705  0.0188
31561W        W47455  17.155  13.059   1.967  0.0682 -0.0732  0.0561
31562W        W47456  10.140   4.656   1.498 -0.2588 -0.2446 -0.0167
31563W        W47457   3.006  17.744  12.153  0.1715  0.0246  0.6543
31564W        W47458   2.319  14.841   5.074 -0.0164  0.4085 -0.1611
31565W        W47459   4.798   3.206  10.816 -0.3522  0.2013  0.2423
31566W        W47460   9.375  15.653   4.785 -0.0473 -0.0253 -0.1911
31567W        W47461   1.523  18.342   5.538 -0.1943  0.3117 -0.2503
31568W        W47462   2.269  16.087   0.659  0.0357  0.1460 -0.1637
31569W        W47463  16.101   1.878   3.376 -0.0442 -0.1707  0.2394
31570W        W47464   3.808   0.204   0.573  0.3472  0.3011  0.0263
31571W        W47465  12.215   5.323  15.215  0.0019  0.1054 -0.1712
31572W        W47466   1.919  16.334   4.346 -0.0074  0.1005 -0.3041
31573W        W47467   5.555   7.186  14.939 -0.1714  0.2895  0.0887
31574W        W47468   5.718   9.722   2.779  0.0861 -0.0333  0.1110
31575W        W47469   6.705   7.324  11.616 -0.0831  0.2437 -0.2337
31576W        W47470   1.288  16.431   3.762 -0.3393 -0.0400 -0.0102
31577W        W47471   6.460   6.778   2.246 -0.3764 -0.3097 -0.2921
31578W        W47472   8.310  16.840  10.341  0.1839  0.0581 -0.0171
31579W        W47473   2.748   0.389   6.024 -0.0269 -0.2314  0.1708
31580W        W47474  16.981   1.804   0.895  0.0112  0.0135  0.4871
31581W        W47475  15.210  11.576   0.427 -0.4947 -0.1831 -0.1145
31582W        W47476   1.329  12.502  12.721  0.2389 -0.1054  0.2665
31583W        W47477   7.156   7.199   1.704  0.1643  0.0129  0.0740
31584W        W47478  16.888   4.610  15.105  0.1308  0.0369  0.3079
31585W        W47479  12.033   0.263   5.657  0.1681 -0.0172  0.0601
31586W        W47480   6.346   4.924   2.421 -0.3449  0.1907 -0.4439
31587W        W47481   1.749   4.682   1.281 -0.1120 -0.2768  0.1341
31588W        W47482   6.106   2.513   9.713  0.1001 -0.3801  0.1074
31589W        W47483   8.734  12.462   2.635  0.0536 -0.0931  0.1361
31590W        W47484   2.343  15.653  14.076 -0.0437 -0.0989  0.0203
31591W        W47485   9.267  13.672   4.096  0.2570 -0.1512 -0.1036
31592W        W47486  15.930   0.673   1.566 -0.2581  0.0577 -0.0135
31593W        W47487  15.700  16.247  12.029  0.0259 -0.0890 -0.0899
31594W        W47488  17.120   9.117  12.472 -0.2600 -0.4056 -0.1329
31595W        W47489  12.611  17.507   2.737  0.0344  0.1701  0.1601
31596W        W47490  18.347  15.786  12.518  0.0504 -0.0794  0.0029
31597W        W47491  12.691   8.147   0.685 -0.2756 -0.2027 -0.3346
31598W        W47492   3.665  12.778   1.326 -0.0214  0.2282  0.0124
31599W        W47493   5.023  14.182  15.263 -0.5876 -0.1441 -0.1271
31600W        W47494   0.654   6.530   4.979  0.1672 -0.0271 -0.1969
31601W        W47495   7.334   5.063  13.021 -0.2027  0.1836 -0.1809
31602W        W47496  12.140  11.060  14.238  0.1975  0.0047 -0.1934
31603W        W47497   5.812  16.988  11.295  0.3941  0.1475  0.1063
31604W        W47498   1.721  13.798   1.358 -0.0391  0.1310 -0.0950
31605W        W47499   0.091   0.443   1.396 -0.0676 -0.1643  0.0322
31606W        W47500  14.618  18.458  13.618  0.2088  0.1629  0.2692
31607W        W47501   3.780  15.869   4.846 -0.0442 -0.1096 -0.2684
31608W        W47502   0.684   7.067   2.944  0.0587  0.3927 -0.0045
31609W        W47503  11.599  10.187   3.157 -0.0988 -0.2948  0.0697
31610W        W47504   7.146  13.820  12.422 -0.0361 -0.4106  0.1607
31611W        W47505  11.330  16.638  15.240 -0.1968 -0.1790 -0.0554
31612W        W47506   7.490   2.363  12.975  0.0651 -0.1099 -0.4222
31613W        W47507  15.037   1.078  13.504  0.2524  0.0327 -0.0137
31614W        W47508   2.356  11.802  14.324 -0.1172  0.0430  0.1169
31615W        W47509   3.432   1.588   4.690 -0.2754  0.1691 -0.2243
31616W        W47510   6.448  13.382  14.775  0.0593 -0.0084  0.1656
31617W        W47511   7.421  12.392   1.752  0.1474 -0.3505 -0.0686
31618W        W47512   1.248  12.502  11.966 -0.0124  0.3384  0.2558
31619W        W47513   2.570   5.485  13.934  0.2417  0.1387  0.1321
31620W        W47514  14.573  17.025   1.064  0.0374  0.0314 -0.0588
31621W        W47515  17.160   7.836   2.946 -0.0564  0.1097  0.2885
31622W        W47516   7.914   5.493   4.385 -0.0870  0.0895 -0.0660
31623W        W47517  14.547   5.462   3.678  0.2357  0.1418 -0.0051
31624W        W47518   7.837   6.698  15.323 -0.2406  0.0726 -0.1240
31625W        W47519  14.426   7.258   5.059  0.0394  0.1514 -0.1894
31626W        W47520  15.172   2.805   2.182 -0.1155 -0.1455  0.1983
31627W        W47521   4.217   3.640  12.050  0.0482  0.0805  0.0154
31628W        W47522  16.190   3.333   2.834 -0.0960 -0.1032  0.1310
31629W        W47523  16.911   1.157  15.024 -0.1822 -0.1744  0.2708
31630W        W47524   3.760   1.592  12.310 -0.0294  0.2026  0.1107
31631W        W47525   5.070  14.190  12.359 -0.0720 -0.0305  0.0100
31632W        W47526   3.369  14.226   1.910  0.1130 -0.0688  0.0798
31633W        W47527  14.919  16.095  13.900 -0.1000 -0.1591 -0.2685
31634W        W47528   8.982  11.877   0.771 -0.0315  0.0242  0.1706
31635W        W47529  13.881   9.460  11.821 -0.2782  0.2775 -0.0447
31636W        W47530   9.859  10.959   0.421 -0.0627 -0.1610 -0.0211
31637W        W47531  11.671   4.631   2.981 -0.0551  0.0899  0.0176
31638W        W47532   4.382  17.659   1.991 -0.0604 -0.2245 -0.0754
31639W        W47533   0.366   7.954   0.746 -0.2472 -0.4629 -0.0070
31640W        W47534   9.872  12.906   5.890  0.5297 -0.1784 -0.0796
31641W        W47535  13.966   8.433  14.409 -0.1325  0.0124 -0.1690
31642W        W47536   3.999   7.681   5.068 -0.0664  0.1318  0.0843
31643W        W47537  11.117  11.126   2.166  0.1333 -0.1127 -0.0758
31644W        W47538   7.275  13.061  12.840  0.0503  0.2730  0.0461
31645W        W47539   2.764  11.274   0.179  0.3077  0.0400 -0.0072
31646W        W47540   8.590   2.542  10.897 -0.0122  0.1761 -0.0868
31647W        W47541  15.400   5.843   3.624 -0.0465  0.2685  0.0168
31648W        W47542   6.506  11.867   4.406 -0.0409 -0.2904  0.2016
31649W        W47543   9.047   0.322  11.293 -0.2714 -0.0828 -0.1161
31650W        W47544  13.523  10.075   2.348 -0.2729  0.0893  0.1292
31651W        W47545  12.348  11.892   4.626 -0.2959 -0.0991  0.0625
31652W        W47546  18.250  10.439   0.601  0.1002 -0.1968 -0.2051
31653W        W47547  16.369   1.718  11.458 -0.3480 -0.0440  0.1327
31654W        W47548   5.200  10.566   3.367  0.1862 -0.2220 -0.1492
31655W        W47549   9.402  15.781  15.065  0.1416  0.1237  0.2650
31656W        W47550   7.695   7.955  13.813  0.1647  0.0159  0.1526
31657W        W47551  17.494   5.697  15.612  0.3104 -0.1731 -0.0644
31658W        W47552   7.204  17.349  13.586  0.1571  0.0350  0.0010
31659W        W47553  10.920  14.321  15.719  0.0158 -0.0774  0.0594
31660W        W47554  12.722   2.523  14.185  0.2727  0.1862  0.0218
31661W        W47555  15.860   8.334   2.025 -0.0828 -0.0071  0.2675
31662W        W47556   9.171  16.720   5.420 -0.2799  0.1351  0.0047
31663W        W47557  12.087   7.541  14.768 -0.0417 -0.1267 -0.0441
31664W        W47558  11.059   8.417   3.053 -0.0981 -0.2356 -0.0984
31665W        W47559  13.705   7.900  11.856 -0.0007 -0.1306  0.2557
31666W        W47560  16.263   8.346  14.101  0.1313 -0.0324 -0.0008
31667W        W47561   5.753   4.884   0.051 -0.4340  0.1230 -0.0123
31668W        W47562  18.344  13.021  12.549 -0.0406 -0.1987  0.1519
31669W        W47563   4.474   1.120  13.452  0.3192 -0.0631 -0.0931
31670W        W47564  17.445  13.869  13.703 -0.2292  0.1088 -0.1990
31671W        W47565  11.481  10.378  15.542 -0.0212  0.2092  0.0930
31672W        W47566   1.785  16.294   2.088  0.1051 -0.2734  0.0924
31673W        W47567  13.641   8.430   3.507 -0.0143  0.2131  0.0713
31674W        W47568  13.183   0.362  15.253  0.4853  0.3083 -0.1373
31675W        W47569   3.893   9.051  15.906  0.2814  0.0879  0.2173
31676W        W47570  10.665  17.051   3.483  0.1141 -0.0486 -0.1833
31677W        W47571  13.857  14.846  12.692 -0.2051  0.1945 -0.3040
31678W        W47572  16.787   1.645  14.250 -0.3171 -0.0445  0.0381
31679W        W47573   8.943  17.798  15.781 -0.1417  0.0370 -0.2272
31680W        W47574   5.613   3.762   5.553  0.2834 -0.0346 -0.0992
31681W        W47575   2.031   5.065   2.782  0.1400  0.3150  0.0278
31682W        W47576   2.466   2.135  14.580  0.1279  0.2839 -0.1959
31683W        W47577  13.538   5.217   2.955  0.2100  0.0032 -0.0790
31684W        W47578   9.080   6.954  13.596  0.1090 -0.0043  0.2304
31685W        W47579   5.290   8.216   3.361 -0.2284 -0.3010 -0.2170
31686W        W47580   5.512  14.784   4.552 -0.1265  0.0287  0.0832
31687W        W47581   7.804   5.916  14.715 -0.2603 -0.0998 -0.1014
31688W        W47582   5.562  17.313   5.185  0.1522 -0.1080 -0.4150
31689W        W47583  10.582   1.885  10.852 -0.0623  0.1278 -0.2360
31690W        W47584  13.027  11.980  12.539 -0.1646  0.2626  0.0878
31691W        W47585  17.422   2.070   0.966  0.0005  0.4742  0.0864
31692W        W47586  12.883  17.378   0.236 -0.1686  0.3038 -0.0339
31693W        W47587   2.692   9.183   3.475 -0.0796 -0.0806 -0.0600
31694W        W47588  14.136  13.320  14.577  0.4126 -0.1834 -0.2367
31695W        W47589  12.983  14.095   9.675  0.0555  0.0281  0.0637
31696W        W47590  17.443   8.944  12.933  0.1629  0.0582  0.2314
31697W        W47591   4.955   8.054  14.848 -0.0886 -0.4687  0.1833
31698W        W47592   7.946   1.252   2.584  0.0766 -0.1384  0.0816
31699W        W47593  14.579   5.926   5.786 -0.1396 -0.2066  0.1428
31700W        W47594  12.905  12.690   5.805 -0.1216 -0.1532 -0.0628
31701W        W47595   9.320  16.736   2.275 -0.2226 -0.2180  0.1521
31702W        W47596   4.332   5.913  14.732  0.0847  0.0020 -0.2782
31703W        W47597  17.233   7.242   4.000 -0.3346  0.0579 -0.2780
31704W        W47598   0.682  11.629   4.277 -0.1396  0.0842 -0.0062
31705W        W47599   6.547  17.570  14.720 -0.0216 -0.3601 -0.1535
31706W        W47600  11.908   5.918   1.322 -0.0119  0.1920  0.1234
31707W        W47601  14.764  14.431  11.365  0.1045 -0.4163  0.0945
31708W        W47602   5.034  14.653  15.617  0.2838  0.1539  0.3030
31709W        W47603   7.492  13.104  16.010 -0.2941  0.2439 -0.0889
31710W        W47604   6.391  12.047   4.845 -0.1700 -0.0028  0.1502
31711W        W47605   9.485   8.789   4.321 -0.0393 -0.2281 -0.1079
31712W        W47606  14.286   6.222  14.681 -0.1135  0.1799 -0.2605
31713W        W47607   1.456  12.146   2.028 -0.1119  0.3855 -0.1306
31714W        W47608   5.725  16.484   5.303  0.2916  0.1472 -0.0486
31715W        W47609  16.128  12.944   0.216  0.2443 -0.1518 -0.0961
31716W        W47610   1.789  10.058  10.899 -0.1554 -0.0665  0.0003
31717W        W47611  13.095  12.910  11.896  0.1607  0.1332  0.0707
31718W        W47612   0.503  14.415  15.951  0.1120 -0.2060  0.1086
31719W        W47613   8.769   9.095   1.996  0.1622  0.0036 -0.2800
31720W        W47614  16.993   9.725   5.331 -0.1365  0.0174  0.1296
31721W        W47615  16.768  17.374  12.200  0.3237  0.2534  0.0374
31722W        W47616  16.876   5.730   2.893  0.0793  0.0144 -0.0385
31723W        W47617   4.817   2.691  14.709 -0.0436 -0.1147 -0.1647
31724W        W47618   4.892  17.372  11.674 -0.3113  0.0119 -0.2262
31725W        W47619  18.446  17.417   2.127  0.1394 -0.3218  0.0114
31726W        W47620  14.792   6.255   1.330 -0.0478 -0.3969  0.1324
31727W        W47621   5.816   4.762  11.168  0.4139  0.0253 -0.0557
31728W        W47622   6.347   8.800   3.642  0.4794 -0.0167 -0.0512
31729W        W47623  10.435   6.668   4.113 -0.2232  0.2618 -0.2903
31730W        W47624   8.495  13.943   2.351  0.0608  0.1991  0.2592
31731W        W47625   8.258  16.182  15.466  0.0860 -0.0543  0.1715
31732W        W47626   4.955   3.912   4.795  0.3094  0.3754 -0.3073
31733W        W47627   0.721   5.153  15.123 -0.1518 -0.0063 -0.5326
31734W        W47628   7.278  11.414   3.306  0.1960  0.1759 -0.0731
31735W        W47629  12.560  17.623   4.908  0.1333 -0.1011  0.0705
31736W        W47630  15.964  14.627   0.224  0.2673 -0.1154 -0.0631
31737W        W47631  11.432  15.516  15.982 -0.0731 -0.1151  0.1063
31738W        W47632   3.031  10.248   1.986  0.0107 -0.0853 -0.2749
31739W        W47633   9.627   6.035   2.952 -0.3199  0.0416  0.3030
31740W        W47634   3.364  13.069  14.154 -0.3029 -0.0844 -0.0076
31741W        W47635   0.231   5.818   4.743 -0.0918 -0.0270  0.2719
31742W        W47636  12.403   4.853   5.494  0.1108  0.0034 -0.0574
31743W        W47637  16.645  14.801   1.945 -0.0237  0.3181  0.1863
31744W        W47638  15.968  18.070  13.014  0.2581 -0.1517 -0.0442
31745W        W47639  12.212   1.054  12.533 -0.2321  0.0892  0.0619
31746W        W47640  16.671   2.242  14.045  0.0363  0.0627 -0.1436
31747W        W47641  12.702  17.457  15.936  0.1575  0.1185  0.0124
31748W        W47642   1.786  14.925   1.302 -0.2685  0.2740 -0.2707
31749W        W47643   2.326   3.434   4.457 -0.1532 -0.1812  0.0220
31750W        W47644   5.876  16.325  11.834 -0.1542 -0.0519  0.0513
31751W        W47645  17.539   6.068  15.272 -0.1298  0.3230  0.1145
31752W        W47646  18.209   2.449   1.022 -0.2403  0.4014 -0.4000
31753W        W47647  13.955   4.012   1.348 -0.2727  0.1544  0.0584
31754W        W47648  13.316   1.764   3.769  0.1571 -0.2462  0.0170
31755W        W47649   9.251   5.781   0.341 -0.1914  0.0330  0.3440
31756W        W47650   6.452   2.905   1.561 -0.1207 -0.1443 -0.3885
31757W        W47651  17.295  12.884   5.384 -0.1178 -0.0022 -0.0914
31758W        W47652  12.658  18.078   2.041  0.1905 -0.4370 -0.0492
31759W        W47653   6.380   6.444   4.198 -0.0756  0.1273 -0.5379
31760W        W47654   6.279  11.739  13.670 -0.1355 -0.2265 -0.0431
31761W        W47655   3.744  12.490  13.115 -0.3440 -0.0267  0.0105
31762W        W47656   5.211  12.241   5.824  0.2969 -0.3499  0.0506
31763W        W47657  15.083  13.252  12.926 -0.0101  0.3187 -0.1694
31764W        W47658   4.073   9.646   0.420  0.0582  0.1596  0.0684
31765W        W47659  17.970   8.358  14.914  0.3185  0.1426 -0.0102
31766W        W47660   1.099   3.630   2.496  0.4645  0.0634  0.0525
31767W        W47661  13.412   8.016   4.150  0.2419  0.0695 -0.0666
31768W        W47662   7.589  11.129   1.265  0.0118 -0.0747 -0.1334
31769W        W47663  10.849   6.641   3.122 -0.0812 -0.1522  0.2411
31770W        W47664   7.826  13.661   0.863 -0.1788  0.1096  0.2751
31771W        W47665  14.811  13.934   5.203  0.1229 -0.1313  0.0063
31772W        W47666   1.147   0.525   0.561 -0.2032  0.1045  0.1653
31773W        W47667   8.697   9.324  12.119 -0.3870 -0.0620 -0.1396
31774W        W47668   1.051   0.951   0.327  0.1229  0.0498 -0.1262
31775W        W47669   0.371  16.330   0.196 -0.3426 -0.0735  0.0489
31776W        W47670   7.728  11.029  10.953  0.0623  0.0915  0.1148
31777W        W47671   3.309  13.047   5.014  0.2279  0.0635  0.3605
31778W        W47672  13.836   3.898   4.932  0.0061  0.2549 -0.0028
31779W        W47673   5.741  13.385   2.080 -0.1103 -0.0273  0.1570
31780W        W47674   7.142   2.100  14.708 -0.1515  0.0322  0.1276
31781W        W47675  13.089   9.339   5.005 -0.1919 -0.1140  0.4297
31782W        W47676  15.620   0.787  13.452 -0.0193  0.1364 -0.2048
31783W        W47677  18.072   6.708  13.953  0.0586  0.0741  0.1340
31784W        W47678   2.925   4.400  15.676  0.0128 -0.0971 -0.0175
31785W        W47679   0.550  13.842  12.726  0.1257 -0.1746 -0.1029
31786W        W47680  15.489   1.975   2.233 -0.0315 -0.0953 -0.1654
31787W        W47681   6.880  12.366   1.082  0.2414 -0.1402 -0.1669
31788W        W47682   5.554  13.732  14.399  0.0568  0.0040 -0.0547
31789W        W47683   7.487   4.378   2.013  0.2940 -0.0087 -0.1457
31790W        W47684  17.066  17.020   1.752  0.0250 -0.1094 -0.1368
31791W        W47685   3.125  14.534  12.621  0.2206  0.1834 -0.1122
31792W        W47686   1.049   8.549   0.658  0.0043 -0.0703  0.1848
31793W        W47687  14.129  16.612  12.480  0.3060  0.1041  0.1527
31794W        W47688  10.072  16.115  13.761 -0.2176  0.1248 -0.0280
31795W        W47689   8.646   3.760   4.561  0.0386 -0.1403  0.0423
31796W        W47690   1.977   6.041  15.276 -0.4154 -0.1312 -0.0273
31797W        W47691  10.885  16.292  11.449 -0.0391 -0.2462 -0.1671
31798W        W47692   8.168  10.189  15.494 -0.2220 -0.0218  0.1049
31799W        W47693   4.515   8.851  10.014  0.0838 -0.1179 -0.1831
31800W        W47694  13.429   6.586   0.606  0.1424 -0.0080 -0.1816
31801W        W47695  11.897  11.572  11.549  0.2513 -0.0183  0.1746
31802W        W47696  16.977  16.852   5.987  0.0641  0.2566 -0.0676
31803W        W47697   0.337   0.799   3.029  0.0421 -0.0645  0.0800
31804W        W47698  11.313  15.402   4.096  0.1389 -0.1844  0.1453
31805W        W47699  16.538   8.515  14.473  0.0019  0.0288  0.0402
31806W        W47700   0.856  13.933  14.014 -0.2623  0.2453  0.0167
31807W        W47701   4.300   7.724  14.073 -0.0276 -0.3497 -0.1528
31808W        W47702   6.858  12.739   4.402 -0.5045 -0.2175  0.3760
31809W        W47703  14.727   5.409  12.952 -0.1620  0.3105 -0.3016
31810W        W47704   5.894  18.273  12.052  0.1769  0.2567 -0.3427
31811W        W47705   2.289  14.883   1.428  0.0690  0.3239 -0.0939
31812W        W47706   3.097   8.595   5.361 -0.1588 -0.1451  0.3238
31813W        W47707  12.672   3.801   4.029 -0.0697 -0.3501 -0.0618
31814W        W47708   3.649   6.042   4.082  0.1425 -0.3415  0.2290
31815W        W47709  16.814   7.671   4.831 -0.1048 -0.3279 -0.0093
31816W        W47710  11.286   1.244  12.065 -0.0382  0.2718 -0.3537
31817W        W47711   7.901   4.728   3.410 -0.0538  0.3279 -0.0733
31818W        W47712  15.269   9.093   0.752  0.0537  0.2664  0.0414
31819W        W47713   4.186  14.400   3.486 -0.0234 -0.3190 -0.5598
31820W        W47714  17.127  17.486  13.531 -0.0723 -0.1007  0.2289
31821W        W47715   1.447  14.633  11.702  0.0913 -0.1330 -0.0213
31822W        W47716  18.150   5.658   5.594 -0.3479 -0.1251  0.1022
31823W        W47717  15.856  16.119   1.539 -0.1007 -0.2988 -0.0200
31824W        W47718   2.967   3.438   5.414 -0.2017 -0.0220 -0.2537
31825W        W47719   4.970  11.285   0.032 -0.0962 -0.3038  0.0905
31826W        W47720  11.512  14.764  11.809  0.3658 -0.2682 -0.0626
31827W        W47721   9.728   0.055  15.365 -0.0563 -0.2559  0.2502
31828W        W47722   6.034   6.933   0.058 -0.1450 -0.2106  0.1474
31829W        W47723   6.028  12.837   1.109 -0.0579 -0.1587  0.1916
31830W        W47724   1.036  14.792  13.000  0.0405  0.2315  0.0953
31831W        W47725   8.785  15.210  13.004  0.0822 -0.1121  0.1224
31832W        W47726   1.952   3.559   0.425  0.0383  0.0579  0.0411
31833W        W47727   7.099   3.325   5.887 -0.0294  0.0672 -0.2181
31834W        W47728   2.265  11.044  15.691 -0.0525 -0.2477  0.0399
31835W        W47729   9.203  15.798   3.872 -0.1513  0.0179  0.2742
31836W        W47730  15.697   3.212  16.046  0.1093  0.1182  0.0038
31837W        W47731  14.244  11.568  12.002  0.0133 -0.0271  0.0668
31838W        W47732   0.529  16.257  11.780  0.2198 -0.0397  0.0284
31839W        W47733   2.889   7.757  14.530 -0.1909 -0.1006  0.0278
31840W        W47734   8.625   2.633  15.499 -0.0688 -0.0790 -0.1217
31841W        W47735   0.088  14.796   2.576 -0.1002  0.0002 -0.1442
31842W        W47736  14.615  18.451   1.742 -0.1053 -0.1195  0.1781
31843W        W47737   2.795  14.694   5.133  0.0185 -0.2226 -0.2022
31844W        W47738   8.424   4.811  12.793  0.1237 -0.0264  0.0752
31845W        W47739   9.068   6.955   4.042  0.0295 -0.0675 -0.0444
31846W        W47740  10.143  11.832   4.127 -0.1557  0.4332 -0.0667
31847W        W47741  18.292   0.971  10.920  0.2240 -0.1939  0.1944
31848W        W47742   4.689  11.271  15.744  0.0909  0.1817  0.2989
31849W        W47743  17.616  16.283   4.928 -0.0176 -0.1886 -0.0116
31850W        W47744   9.758  13.142  10.808  0.4020 -0.1308 -0.3587
31851W        W47745   5.044   6.564  14.757 -0.1262  0.1991  0.1371
31852W        W47746  12.350  15.858  13.517 -0.2486 -0.1069  0.1105
31853W        W47747  17.088   8.465   4.445 -0.2032  0.1795  0.0214
31854W        W47748   9.076   3.286  12.731  0.0011 -0.0222  0.3740
31855W        W47749   9.215   8.134  13.881  0.0989 -0.1398 -0.1196
31856W        W47750  15.578   3.812  11.896  0.0799  0.0075 -0.1126
31857W        W47751   7.011  13.297   4.586 -0.0531  0.1911 -0.0369
31858W        W47752   1.200   3.724   3.427 -0.2748  0.1497 -0.1361
31859W        W47753   3.574   4.102  12.122  0.1146  0.1962  0.3315
31860W        W47754   0.796  11.121  13.438 -0.0183  0.0564 -0.4669
31861W        W47755   5.960  14.744   2.161 -0.2955 -0.2080 -0.1425
31862W        W47756  14.838  12.261  12.124 -0.1138 -0.0674 -0.1271
31863W        W47757  11.435  16.332   0.274 -0.1475 -0.1306 -0.2500
31864W        W47758  12.391   9.585  12.400  0.3141  0.0301 -0.3149
31865W        W47759   3.100   3.523   3.896 -0.0796 -0.0667  0.2183
31866W        W47760   7.838   9.377   0.726  0.1653  0.0162  0.1720
31867W        W47761  14.144   8.236  15.891 -0.0568 -0.1415  0.2182
31868W        W47762   5.461  15.640   4.610  0.2022 -0.0409  0.1222
31869W        W47763  15.342   7.859   4.925  0.1321  0.0165 -0.0121
31870W        W47764  11.566  10.974  15.002 -0.1556  0.3221  0.3223
31871W        W47765   8.000  11.153   1.830 -0.2493 -0.0770 -0.0755
31872W        W47766   5.079  16.960   2.012  0.2667  0.1912  0.1333
31873W        W47767   3.763  10.795  13.527  0.2228 -0.1259  0.0148
31874W        W47768  15.855  16.001   3.538  0.1206  0.1673  0.0325
31875W        W47769   9.798  13.469  11.507  0.0226  0.3023 -0.0544
31876W        W47770   2.807   5.496   2.520 -0.0623  0.1032  0.2054
31877W        W47771   6.553  10.126   1.514  0.2020  0.0069 -0.2561
31878W        W47772  14.674  12.306  15.820 -0.3987  0.0203 -0.0991
31879W        W47773   2.858   1.005  11.897  0.1054 -0.0272 -0.1449
31880W        W47774  17.273   4.113  11.960  0.0506 -0.2385  0.4910
31881W        W47775   5.242   1.871   2.858  0.0866 -0.2594 -0.2896
31882W        W47776  11.469  10.964  14.515  0.0666  0.0404  0.1078
31883W        W47777   0.620   3.235  15.421  0.1732 -0.0715 -0.2706
31884W        W47778  12.403   9.347  15.977  0.0122  0.1240 -0.1520
31885W        W47779   3.141  11.816  12.784  0.1392  0.0672 -0.0108
31886W        W47780   1.851   3.893  12.916 -0.0449  0.0069  0.0410
31887W        W47781  17.606   6.580  11.913 -0.1014 -0.1184 -0.1972
31888W        W47782   5.608  16.639  14.477 -0.0490  0.2233  0.5246
31889W        W47783   8.101   9.098  13.630 -0.1618 -0.3189 -0.1644
31890W        W47784   1.308   8.436   6.302  0.0944  0.0841 -0.2883
31891W        W47785   0.420   6.465  12.900 -0.0581 -0.1046 -0.1261
31892W        W47786  12.930  16.747  12.515 -0.2314 -0.2791  0.0246
31893W        W47787   7.908   5.947  12.022 -0.0814  0.0901 -0.0399
31894W        W47788   7.418   9.647   1.927 -0.0987  0.2962 -0.2839
31895W        W47789  10.590  13.991  11.470 -0.0438 -0.1892 -0.1693
31896W        W47790   7.687   9.046  12.793 -0.3687  0.0964  0.0490
31897W        W47791  11.170   5.155   2.529  0.1453 -0.0143 -0.3285
31898W        W47792   8.610   0.767  11.138  0.1664  0.2811 -0.3946
31899W        W47793   8.459  15.701   1.007 -0.2299  0.2148  0.3364
31900W        W47794   9.250   1.356   5.203 -0.0146  0.1473  0.2741
31901W        W47795   0.889  13.624  12.469  0.3712 -0.1999  0.0239
31902W        W47796  16.605  16.356  16.031  0.0236  0.3170  0.2338
31903W        W47797  11.385  10.413   6.415  0.0840  0.2310  0.1563
31904W        W47798   2.560  15.610   2.174 -0.1367 -0.1951 -0.1665
31905W        W47799  11.822  17.438   3.303 -0.1486 -0.1204  0.4439
31906W        W47800   2.819   2.175  13.704 -0.2571  0.2554  0.0587
31907W        W47801  17.512   7.777   3.270  0.1921  0.1584 -0.1474
31908W        W47802   1.189   8.021  14.585  0.1511  0.1475 -0.0935
31909W        W47803   0.026   8.900   1.767  0.1439  0.0184 -0.0242
31910W        W47804  10.032  12.328   1.796  0.1289  0.2940  0.0564
31911W        W47805   9.846  11.122  14.272 -0.3405 -0.2091  0.1541
31912W        W47806   4.838   1.828  15.808  0.0756  0.2588  0.0299
31913W        W47807  12.844   5.493   4.505 -0.0318 -0.1049 -0.1605
31914W        W47808  10.626   1.311  12.600 -0.2795 -0.1079  0.0140
31915W        W47809  16.162  12.004   1.947 -0.0821 -0.1042  0.0912
31916W        W47810   2.732  12.080  12.881  0.1178  0.1226  0.0667
31917W        W47811   4.832   0.897   3.901 -0.0292 -0.0010  0.1749
31918W        W47812   3.640  16.874  12.643  0.0358 -0.0129 -0.2035
31919W        W47813  18.409   3.617   4.132  0.1634 -0.0571  0.0562
31920W        W47814  11.368   8.964   4.926 -0.3547  0.2150  0.1288
31921W        W47815  14.229   3.903  11.657  0.0949  0.1642 -0.0720
31922W        W47816  15.574  16.592  10.726  0.1193  0.2219  0.1713
31923W        W47817  18.126   7.582   1.331  0.0604  0.0206  0.0361
31924W        W47818  13.702  14.244  15.361 -0.1685 -0.0513  0.3864
31925W        W47819   2.777  14.369   0.083  0.4942  0.1958  0.1873
31926W        W47820  12.211   9.466   1.161  0.0740  0.2162 -0.0046
31927W        W47821  12.717  13.965   5.148 -0.0785 -0.0066  0.0974
31928W        W47822   2.361  17.737   0.244  0.0712  0.1060 -0.3193
31929W        W47823  11.275  17.827  12.068 -0.1825  0.0861  0.1210
31930W        W47824   3.377  10.409   4.378  0.1959  0.3166 -0.1936
31931W        W47825   1.956   3.998   0.230 -0.0937 -0.1728 -0.0665
31932W        W47826   0.987  15.292  13.176  0.0713 -0.2074  0.1265
31933W        W47827   5.268   2.515  13.771 -0.0207  0.2723  0.0195
31934W        W47828   8.912  13.191   3.842 -0.2610  0.1008 -0.2345
31935W        W47829   5.995  10.987   2.549 -0.0040  0.3901  0.0737
31936W        W47830   6.412  11.305   2.774  0.0549 -0.1118 -0.2024
31937W        W47831  17.599   9.549  15.044  0.3436  0.3103  0.1970
31938W        W47832  13.652  10.485  11.896  0.1404  0.1456  0.0469
31939W        W47833   3.683   7.739  10.176 -0.1399 -0.1719  0.0877
31940W        W47834  12.091   2.470   5.705  0.3279  0.0903 -0.1053
31941W        W47835  12.033  12.145   2.324  0.1557  0.1189  0.2917
31942W        W47836   8.852  12.561  12.436 -0.1085  0.2921  0.2450
31943W        W47837   1.380   5.837  12.879 -0.0669  0.0837  0.2292
31944W        W47838  12.960   3.736   5.591  0.1664  0.0287 -0.2803
31945W        W47839  15.672  16.813  14.272  0.2433 -0.1746  0.0268
31946W        W47840  17.211  11.998   1.569  0.0289  0.0648 -0.0098
31947W        W47841   6.070  10.331   3.284  0.2710  0.2022 -0.3654
31948W        W47842   0.895   1.415  12.320  0.2897  0.1214  0.0676
31949W        W47843   6.631  17.250   3.649 -0.0634  0.1628  0.2233
31950W        W47844  12.533   4.018  13.210 -0.1288 -0.0774  0.0512
31951W        W47845   2.066   4.855   5.102 -0.1782  0.1793 -0.1744
31952W        W47846   5.513   1.046   4.317  0.3026 -0.2332  0.0367
31953W        W47847   4.749   1.269  14.938 -0.2051  0.1505 -0.2405
31954W        W47848   5.594  14.092   0.077  0.0439  0.1948  0.3888
31955W        W47849   8.725   0.136  14.504 -0.1555  0.1331 -0.0525
31956W        W47850  12.441  17.715  14.259  0.1666 -0.0528 -0.1049
31957W        W47851  11.543   3.779   4.725  0.0776 -0.0619 -0.0086
31958W        W47852   7.741  17.153  12.552 -0.1498 -0.0803 -0.5048
31959W        W47853   4.515   6.086   4.390  0.2351  0.3583 -0.3234
31960W        W47854   9.070   1.994  11.460  0.1477  0.0681 -0.2320
31961W        W47855   2.243   6.388  16.107 -0.0246  0.0585 -0.3782
31962W        W47856  11.652  11.357   1.454 -0.2436  0.4991 -0.1810
31963W        W47857   1.868   7.582  13.731 -0.0375  0.4293  0.0865
31964W        W47858  17.156  11.235   6.387  0.1570 -0.1848 -0.1540
31965W        W47859   6.486  17.000   2.354 -0.1240  0.0685  0.0758
31966W        W47860   0.110  14.144   4.043  0.0790 -0.0810 -0.2783
31967W        W47861  15.273  14.586   2.501  0.1962  0.1345 -0.0743
31968W        W47862  10.699  15.401  14.334  0.3633 -0.0352 -0.0052
31969W        W47863  18.414   2.323   5.115  0.2674 -0.1195 -0.0787
31970W        W47864   2.349   3.053   2.942 -0.0073 -0.0747 -0.0580
31971W        W47865  17.294  15.387   5.445 -0.5337 -0.1145 -0.0994
31972W        W47866  14.397   4.120   0.190  0.1701 -0.3096 -0.3494
31973W        W47867  11.538   9.602  13.437  0.0086 -0.2360 -0.1528
31974W        W47868  14.455   7.336  11.936  0.0604  0.2462 -0.2044
31975W        W47869  10.421   5.657  13.013  0.0635 -0.0227  0.2715
31976W        W47870   2.434  10.318  15.393 -0.2349  0.0421  0.0860
31977W        W47871  18.252  12.363   1.621 -0.1463 -0.0799 -0.1600
31978W        W47872   1.673   8.352   2.352 -0.2608 -0.0661  0.3675
31979W        W47873   8.529  16.886   1.384 -0.0924  0.0425  0.2096
31980W        W47874  13.263  11.066   3.804  0.0479  0.3327 -0.2625
31981W        W47875   9.170  10.952  15.087  0.1916  0.0448 -0.1664
31982W        W47876   9.705  12.204  11.156 -0.0970  0.1544  0.0242
31983W        W47877  15.206   0.600  15.572  0.1320  0.1102  0.1540
31984W        W47878   3.756  17.104  14.625  0.3250 -0.1016 -0.0506
31985W        W47879  10.344   7.937  11.475  0.2876 -0.3448 -0.0964
31986W        W47880   1.038   2.204  15.440  0.1863  0.0904  0.0127
31987W        W47881   6.460   8.221  13.035  0.0622  0.0621  0.0160
31988W        W47882   3.161  12.893   0.459 -0.0049 -0.1783  0.3435
31989W        W47883   3.265  15.328   1.692  0.2152 -0.2634  0.0100
31990W        W47884  15.644   9.498   2.211  0.2790 -0.0165 -0.0403
31991W        W47885   1.511  16.570   3.302 -0.2882 -0.0468  0.1661
31992W        W47886  16.978   5.656  15.549  0.0753 -0.1254 -0.2460
31993W        W47887  13.986   9.607   0.008 -0.0711  0.2179 -0.1786
31994W        W47888   5.762  16.581   3.093  0.3272 -0.1011 -0.0083
31995W        W47889   4.205  17.131  12.860  0.1901 -0.1151  0.0782
31996W        W47890  15.506   1.143   3.996  0.2914  0.0934  0.2364
31997W        W47891  10.304  17.297  14.904  0.4794 -0.0464  0.0184
31998W        W47892  17.860   6.072  15.711  0.0211 -0.0445 -0.0061
31999W        W47893  13.243   5.748   4.583 -0.0598 -0.0070  0.0327
32000W        W47894   3.845   2.742  13.644 -0.3716  0.0677 -0.2219
32001W        W47895  10.607   2.884   4.465  0.1020 -0.1281  0.0276
32002W        W47896   1.101  13.590   4.943 -0.3834 -0.0210  0.0573
32003W        W47897  13.390  18.145  11.893  0.1316 -0.0437  0.2521
32004W        W47898   5.654   3.388   3.409 -0.0294  0.0243  0.0811
32005W        W47899   4.875  10.867  12.703  0.0365 -0.0546  0.1139
32006W        W47900  16.626  14.670   2.935  0.4491 -0.0463  0.2396
32007W        W47901   4.161  11.430  14.618 -0.1202 -0.0308 -0.1635
32008W        W47902   3.554  10.872   5.273  0.0550  0.3783  0.1127
32009W        W47903   6.796  12.398   0.529 -0.0432 -0.0274  0.3419
32010W        W47904   7.238  10.936  15.880  0.2999 -0.0810 -0.1391
32011W        W47905  18.107  10.955   4.600  0.3952  0.3309 -0.3716
32012W        W47906  12.221  17.860  13.777 -0.1446  0.2372  0.0756
32013W        W47907  16.728  11.658   4.173  0.1236  0.3062  0.0428
32014W        W47908  10.511  11.162  14.487 -0.0564 -0.0844 -0.2171
32015W        W47909  15.355  11.487   2.116 -0.0024 -0.0373 -0.0856
32016W        W47910   1.845   9.707  12.939  0.0894  0.0166 -0.2664
32017W        W47911  16.584   2.143   0.902 -0.1826  0.3712 -0.1548
32018W        W47912  13.874   2.486  13.424 -0.1197  0.0283  0.1276
32019W        W47913  12.775   4.142   0.243  0.1509  0.0808 -0.3030
32020W        W47914  15.869   0.530  14.591 -0.0375 -0.1829 -0.2781
32021W        W47915   3.502  15.366  15.144  0.1574 -0.1778  0.0249
32022W        W47916   2.781   0.697  16.012 -0.1597  0.2511  0.1245
32023W        W47917  16.057   8.565   0.698 -0.0472  0.2154 -0.1305
32024W        W47918   7.395   8.468  12.188  0.0742  0.3263 -0.2963
32025W        W47919   8.122   9.078   4.239  0.0778  0.0219 -0.0038
32026W        W47920  17.902  14.677   1.157 -0.1266 -0.3085  0.0096
32027W        W47921   7.211   0.435   3.858  0.1509 -0.0117  0.2885
32028W        W47922  17.709  10.118   1.293  0.2026 -0.0950 -0.0460
32029W        W47923  10.998  17.229   0.307 -0.1311  0.4534  0.0038
32030W        W47924  17.164   2.323   0.657 -0.1627  0.1094  0.2881
32031W        W47925   4.413   6.558   3.706 -0.0821  0.0342 -0.1272
32032W        W47926  16.677  15.133  15.134  0.2177 -0.0688  0.1798
32033W        W47927  16.657  10.797   3.348  0.0598  0.2528  0.0503
32034W        W47928  16.847   4.796   3.286 -0.0735  0.0300 -0.3420
32035W        W47929  10.439  10.061   5.703 -0.1586  0.3510 -0.1761
32036W        W47930  12.283  17.631  11.314  0.1465 -0.3017  0.1516
32037W        W47931  15.319  11.386  11.931  0.1436 -0.2858 -0.0172
32038W        W47932   5.752   9.175  15.018 -0.0001  0.0649  0.0008
32039W        W47933  16.989  10.984   1.627  0.3959 -0.0383  0.0310
32040W        W47934  17.818  14.030   3.762  0.0875  0.1567  0.2127
32041W        W47935  18.371   0.122   0.492 -0.1968  0.0074  0.0029
32042W        W47936   5.413   9.129   1.749  0.0856 -0.2917  0.2860
32043W        W47937  16.948   5.945   4.994 -0.0015 -0.1389 -0.1156
32044W        W47938  11.690   4.860   1.214 -0.2109  0.0450 -0.0366
32045W        W47939  11.980  14.283  12.023  0.0162 -0.1147  0.1369
32046W        W47940   9.831  10.327  10.979  0.1791  0.2758 -0.0986
32047W        W47941   6.266   8.350   3.886 -0.1678 -0.1176  0.0822
32048W        W47942  11.141  10.994  11.489 -0.1353  0.3131 -0.0610
32049W        W47943   1.524   0.114   5.002 -0.0772  0.0524  0.0493
32050W        W47944  17.606  14.776  12.996 -0.1924 -0.2129 -0.0408
32051W        W47945   5.499   3.113   4.573  0.0181 -0.1942 -0.1383
32052W        W47946  15.636   3.785  12.829 -0.1333  0.1220  0.2438
32053W        W47947  13.786   0.433  13.537  0.1924 -0.2359 -0.0482
32054W        W47948   9.023  18.102  11.316  0.2279 -0.2749 -0.3415
32055W        W47949  15.525   2.884   2.547 -0.1377  0.0938  0.2336
32056W        W47950   4.729  10.839  13.719  0.0878 -0.0997 -0.0596
32057W        W47951  17.182  11.271  12.520  0.1557 -0.0819  0.1079
32058W        W47952  17.771   9.260   5.241  0.2901 -0.2161  0.0397
32059W        W47953   3.436  16.653   2.731 -0.0325  0.1982  0.0352
32060W        W47954  11.336  10.324   4.787 -0.1271  0.3243 -0.2415
32061W        W47955  14.437   6.339   2.871 -0.3722  0.0676  0.0983
32062W        W47956  17.221  11.162  13.835  0.1147  0.1265  0.1845
32063W        W47957   6.295   1.820   0.141 -0.0052  0.0969 -0.0674
32064W        W47958   9.933  14.248   1.831  0.1934 -0.1512  0.2072
32065W        W47959   5.247  17.855   2.488 -0.3466  0.1363 -0.0985
32066W        W47960  10.173  13.665  12.279 -0.1918 -0.1112  0.1283
32067W        W47961   1.614  10.389   3.509 -0.0341  0.1009 -0.2800
32068W        W47962   4.452   9.163   3.851  0.3356  0.1400 -0.0741
32069W        W47963   4.450   1.391  11.372  0.1266 -0.1616  0.0204
32070W        W47964  11.605  14.815   4.045  0.1901 -0.1600  0.0904
32071W        W47965   6.694   2.741   2.609  0.1524 -0.1135  0.2447
32072W        W47966   6.867   6.090   4.893  0.1223  0.1523  0.1274
32073W        W47967   5.362   3.401  15.437 -0.3749 -0.3080 -0.2190
32074W        W47968   6.661  16.847  16.032 -0.3120 -0.4505 -0.0831
32075W        W47969   9.225  13.441  12.785 -0.1986  0.1884  0.0157
32076W        W47970   4.631   3.009   3.541 -0.0094  0.0940  0.1692
32077W        W47971   2.619  12.166  14.582 -0.1500  0.1614 -0.1400
32078W        W47972  13.679  12.377  11.482  0.0400  0.2032  0.0804
32079W        W47973   6.745  14.369  13.385  0.1579 -0.2535  0.1801
32080W        W47974   9.366  10.721   3.700  0.0937  0.0099  0.3521
32081W        W47975   5.242   8.900   2.740 -0.0287  0.2794 -0.0427
32082W        W47976  17.550   3.929  14.172 -0.3448  0.3119  0.1022
32083W        W47977   0.570   4.605  10.545  0.3514  0.2435  0.1555
32084W        W47978   3.273  17.614   3.962 -0.1822 -0.2236  0.1397
32085W        W47979   3.893   0.305   1.738  0.1718  0.1068  0.0651
32086W        W47980  13.149  16.109   2.290 -0.0804 -0.2702  0.2172
32087W        W47981   2.753  15.826   2.720  0.1558  0.1287 -0.1703
32088W        W47982  10.797   1.087  14.069  0.4428 -0.1978 -0.0778
32089W        W47983   0.134   5.441  13.819 -0.0907  0.1502  0.0781
32090W        W47984   9.674   7.280  12.843  0.0145  0.2003 -0.0756
32091W        W47985  13.968  14.624  11.276 -0.1284  0.3856  0.0345
32092W        W47986  17.434   2.938   2.287 -0.2602 -0.0829  0.2887
32093W        W47987   9.463  15.255  15.106 -0.1755 -0.1184 -0.0497
32094W        W47988   6.357   5.211   5.474 -0.0454 -0.0454  0.0225
32095W        W47989   5.468  15.842  11.099 -0.0782  0.0837  0.1015
32096W        W47990   2.938  14.154   2.726  0.0148 -0.0806  0.3831
32097W        W47991   8.094  15.595  14.579  0.1193 -0.2872 -0.0992
32098W        W47992   9.776  18.334  13.515 -0.2790 -0.0913  0.1115
32099W        W47993   2.243   8.102   0.245  0.0799 -0.1191 -0.2502
32100W        W47994  12.808  10.285   1.706 -0.0589 -0.0008  0.1916
32101W        W47995  12.561  12.318   2.721  0.1250 -0.1025 -0.0466
32102W        W47996  16.790  15.321   0.072  0.3546 -0.0515 -0.0172
32103W        W47997  16.471  17.610   1.623 -0.0484 -0.1334  0.1204
32104W        W47998   1.622  12.256   5.336  0.4975 -0.1328  0.0854
32105W        W47999  17.874   9.712   0.553  0.0220 -0.3212  0.1142
32106W        W48000   2.416  18.307   0.074 -0.0553 -0.0962 -0.1453
32107W        W48001   1.731   3.339  13.067 -0.0964 -0.0090  0.1063
32108W        W48002  11.248  12.769   2.567  0.1076 -0.2894 -0.2837
32109W        W48003   0.901  13.630  15.911 -0.2337  0.0741  0.1077
32110W        W48004   7.149  14.048   3.480 -0.3152 -0.0002  0.0756
32111W        W48005   5.629   8.713  12.092 -0.4286  0.1339  0.0223
32112W        W48006   7.334   5.332   0.195  0.0526  0.1519  0.1218
32113W        W48007   8.577   4.999   4.233 -0.2297  0.1982  0.0476
32114W        W48008   7.622   8.930  12.075 -0.0303 -0.1433 -0.0703
32115W        W48009  11.864  18.144   5.033  0.2797 -0.3163 -0.0084
32116W        W48010  15.173   1.670   1.990  0.1512 -0.0531 -0.0661
32117W        W48011   7.323  14.542  11.717  0.2102  0.0694 -0.2349
32118W        W48012  18.257   3.846  13.631 -0.0664  0.2015  0.1259
32119W        W48013  17.549   8.340   5.308  0.1151 -0.1129 -0.1076
32120W        W48014   2.959  12.402  13.680 -0.3130 -0.1453 -0.2004
32121W        W48015   4.853  12.332  11.698 -0.3483 -0.2830  0.4671
32122W        W48016  14.756   9.891  12.009 -0.1225  0.0910 -0.4541
32123W        W48017   6.403  16.762  13.725  0.0682  0.1854  0.0927
32124W        W48018  16.655   8.226   3.201  0.0764 -0.0143 -0.1866
32125W        W48019  13.937   0.268   1.705  0.1110 -0.3382 -0.2293
32126W        W48020   2.383  12.006  15.804 -0.0962  0.0842 -0.0097
32127W        W48021  10.293   5.214   4.252 -0.1029  0.1354 -0.0514
32128W        W48022  14.879   5.628  14.931  0.1452 -0.0396 -0.1496
32129W        W48023   6.619   3.288   5.989 -0.0186  0.2140  0.0669
32130W        W48024  13.195  16.017  10.996  0.0209  0.1493 -0.1619
32131W        W48025   8.273   1.239  15.632  0.0277 -0.0315 -0.1373
32132W        W48026  13.254   7.346  13.253  0.0025 -0.0220  0.3261
32133W        W48027  12.051  11.731   2.620  0.2072  0.1600 -0.1001
32134W        W48028   6.700  12.362   1.690  0.0281  0.3514 -0.0674
32135W        W48029   5.916   6.717   5.689 -0.0147  0.1035  0.0892
32136W        W48030   1.620  12.059   1.298  0.1291  0.1279 -0.1258
32137W        W48031  13.197  13.924   5.563 -0.0047  0.2199 -0.1811
32138W        W48032   9.594  17.346  15.860  0.0197 -0.3010 -0.2360
32139W        W48033   0.719   9.097  13.627 -0.0034  0.0044 -0.2414
32140W        W48034  11.562  15.042  12.238 -0.3910 -0.3644 -0.0592
32141W        W48035   5.899  16.543  15.532 -0.0209  0.4132  0.2271
32142W        W48036   8.474  16.542  15.952 -0.0527  0.0907 -0.3141
32143W        W48037  11.239  18.384   5.047  0.4623  0.0224  0.1144
32144W        W48038   7.290  15.830   3.031  0.0198 -0.0295 -0.1249
32145W        W48039  10.475   1.767   1.793  0.0326 -0.2408  0.0687
32146W        W48040   9.379  15.030   3.171 -0.0031  0.1841 -0.1741
32147W        W48041  14.431  17.541  15.931 -0.0007  0.1875 -0.0163
32148W        W48042   7.477   6.685  12.690 -0.0744  0.0662  0.0536
32149W        W48043   9.573  14.646  14.306  0.2015 -0.1754  0.0885
32150W        W48044   5.574   7.592   1.469  0.2530  0.3033 -0.0558
32151W        W48045   9.978  12.818   2.236  0.0930 -0.2059 -0.2662
32152W        W48046  10.792  16.315   2.404 -0.2138  0.0370  0.0387
32153W        W48047   5.787  10.344  11.187  0.0408 -0.0467 -0.1432
32154W        W48048  14.224   0.193  13.204  0.0499  0.2598  0.0458
32155W        W48049  14.578  17.832   0.181 -0.0777  0.2523  0.1816
32156W        W48050   0.994   8.378  12.354 -0.1935  0.1446 -0.0677
32157W        W48051   0.125  15.673  15.992 -0.1264  0.0455 -0.1436
32158W        W48052  17.735  14.509  12.554  0.1608 -0.0618 -0.0100
32159W        W48053   2.357   0.695   4.249 -0.2436  0.3109 -0.0274
32160W        W48054   9.787   2.627   0.323 -0.0118 -0.1553  0.2673
32161W        W48055   3.936  12.165  12.269  0.1347  0.3550 -0.2090
32162W        W48056   2.582   1.943   2.348  0.0123 -0.3211 -0.0984
32163W        W48057   7.304  17.958  12.118  0.0064 -0.0087 -0.0988
32164W        W48058  12.819  15.261   3.371 -0.3008  0.0374  0.2679
32165W        W48059  14.916   2.030  14.651  0.1370  0.2622 -0.2877
32166W        W48060  14.553   9.604   4.933 -0.2793  0.0100  0.2424
32167W        W48061   3.589   0.205   2.342 -0.2063 -0.3064 -0.1294
32168W        W48062  12.830   5.369  13.434  0.0233 -0.1935  0.0067
32169W        W48063  15.375   6.508   0.179  0.1502  0.1980 -0.0526
32170W        W48064  12.951  10.367  15.685 -0.0147  0.1085 -0.2704
32171W        W48065   3.163   6.016   5.768 -0.0826 -0.4464 -0.2079
32172W        W48066   8.462   6.785   3.985 -0.0899  0.0448  0.1584
32173W        W48067   8.992   1.354  13.756 -0.0086  0.0558  0.1116
32174W        W48068   4.377   2.866  13.449  0.2203 -0.0227 -0.0418
32175W        W48069   8.724   1.665   5.988  0.0887 -0.2578 -0.0442
32176W        W48070  17.620   8.082   3.739 -0.0584  0.1761  0.1621
32177W        W48071  16.469  10.890   5.329  0.0127 -0.1743  0.0602
32178W        W48072   6.577  10.421   0.564 -0.0967  0.1152  0.0645
32179W        W48073   2.080   5.222   0.711 -0.3293 -0.1987  0.1981
32180W        W48074  14.237   7.778  11.634  0.1372 -0.0388 -0.1867
32181W        W48075  14.211  17.323  14.227 -0.2137  0.3540  0.0077
32182W        W48076   7.175   7.852  16.094 -0.1145 -0.1231  0.3776
32183W        W48077   6.776  10.036   5.922  0.1248 -0.3333 -0.1525
32184W        W48078  10.417  10.559   1.970 -0.2542  0.0381 -0.4453
32185W        W48079  10.860  10.743   1.891  0.2397 -0.1823 -0.4297
32186W        W48080   3.903   6.943  15.778 -0.0557 -0.0816 -0.1061
32187W        W48081   1.251   1.685   1.423 -0.3859 -0.4300  0.0812
32188W        W48082  15.978  18.205   1.062 -0.2849  0.2086 -0.2761
32189W        W48083   8.177   2.399   2.607  0.0965  0.0068 -0.1058
32190W        W48084   7.956  12.270  13.502 -0.0240 -0.1264 -0.0670
32191W        W48085   5.015  13.256   1.794  0.1780 -0.0990 -0.3190
32192W        W48086  15.884  15.219  11.010 -0.4363  0.1247 -0.1993
32193W        W48087  11.620  14.614   5.143 -0.0113 -0.1689  0.3527
32194W        W48088  11.679  13.816   3.665 -0.0922 -0.0648  0.0920
32195W        W48089  17.789   7.885  15.630  0.1742  0.2178  0.1768
32196W        W48090   6.441  15.150  13.938 -0.1058 -0.0413  0.0589
32197W        W48091   6.000   5.494   4.614 -0.0095 -0.0923 -0.2602
32198W        W48092   1.277   4.964   1.162 -0.0545  0.1245  0.0030
32199W        W48093  14.205  11.247  11.585 -0.2183  0.2533 -0.1080
32200W        W48094   3.983  14.037  11.887  0.3303 -0.1412 -0.2456
32201W        W48095  13.495   8.829   0.893 -0.0408 -0.0884 -0.1559
32202W        W48096   9.561   4.097   3.521 -0.0394 -0.2234 -0.3019
32203W        W48097   0.614  12.920   4.123  0.3210  0.1246 -0.1966
32204W        W48098   6.817  15.511  10.882  0.1098  0.3604  0.5078
32205W        W48099  16.216  13.037  12.079  0.1456  0.0213 -0.5716
32206W        W48100  15.542  17.394  14.972  0.1475  0.1953 -0.3531
32207W        W48101   6.886   7.984   4.607 -0.3422  0.2051 -0.1069
32208W        W48102   4.949  15.368   5.138 -0.2117 -0.1116 -0.1756
32209W        W48103   9.060   3.797  14.924  0.1213  0.1403 -0.0871
32210W        W48104  17.756  15.073   5.567 -0.0281 -0.1088  0.1805
32211W        W48105  17.702  17.947   0.120 -0.1794  0.1005  0.0843
32212W        W48106  12.288   3.536  11.366  0.1331 -0.0496 -0.1368
32213W        W48107  12.959  10.606  14.555  0.2028  0.4011 -0.0316
32214W        W48108   0.353  10.922  12.706 -0.1737  0.1444  0.4203
32215W        W48109   9.043   0.333   2.193 -0.0128  0.4338 -0.0288
32216W        W48110   7.233  12.378  12.213 -0.0438 -0.0449 -0.0334
32217W        W48111  12.839   1.404  15.451 -0.0262 -0.2605 -0.0452
32218W        W48112  17.783  16.772  13.331  0.1493  0.2765  0.2926
32219W        W48113  12.984  16.834   0.479 -0.0892 -0.1111  0.3139
32220W        W48114  16.821   1.390   1.246  0.0087  0.5047 -0.1179
32221W        W48115   9.442   0.784   4.052  0.2996  0.1772  0.1262
32222W        W48116   2.519   3.523   0.837 -0.0165 -0.2039 -0.0684
32223W        W48117  16.049  17.662  14.835 -0.1901 -0.0068 -0.0103
32224W        W48118  16.304   4.849  13.405 -0.0743 -0.1436 -0.3468
32225W        W48119   2.671   0.218   4.502  0.1199  0.0528 -0.0120
32226W        W48120   1.838  14.987  14.562  0.1920  0.0900  0.1165
32227W        W48121  11.997   9.365  12.589  0.0468  0.0004 -0.2550
32228W        W48122  17.372  14.867  13.522  0.2133  0.1379 -0.0109
32229W        W48123  17.013   7.640  11.147  0.1587  0.1121 -0.1277
32230W        W48124  13.789  12.604   3.643 -0.1168 -0.1976 -0.1797
32231W        W48125  13.183  17.378   3.756 -0.3165 -0.1560 -0.1896
32232W        W48126  14.334  10.555  14.263  0.1207 -0.4516  0.1728
32233W        W48127   4.651   1.388   5.104  0.2081  0.0975 -0.1967
32234W        W48128  12.888   7.899   1.054  0.1262 -0.1932 -0.3289
32235W        W48129   6.517   2.904  14.729 -0.0205 -0.2088 -0.0216
32236W        W48130  18.290  15.687   3.508  0.0998  0.0716  0.4028
32237W        W48131  13.780  13.855   0.257 -0.0367 -0.0127  0.2753
32238W        W48132  17.108  18.132   5.428  0.0490 -0.1560 -0.4160
32239W        W48133  10.854  10.252   4.786  0.0913  0.0957  0.0494
32240W        W48134   4.791   3.166   5.587  0.1694 -0.1397  0.0798
32241W        W48135   4.665  10.326   4.279  0.0043 -0.1594  0.1243
32242W        W48136   3.143   2.775   3.969  0.2079  0.0528 -0.1437
32243W        W48137   4.412   5.926   2.050 -0.0473  0.0784  0.3301
32244W        W48138   1.302  16.004  13.189  0.0991  0.2155  0.0488
32245W        W48139   2.828  14.055   4.593  0.1713 -0.1644 -0.2781
32246W        W48140  10.360  15.323  12.904  0.1615 -0.0548  0.0663
32247W        W48141  10.857   1.159   0.810  0.2117 -0.2913 -0.0528
32248W        W48142   8.634   6.932   3.492 -0.3612 -0.3391  0.0750
32249W        W48143  11.874   4.702   5.298 -0.1219  0.0030 -0.1984
32250W        W48144   6.476   6.050   1.281  0.2183 -0.0374  0.1572
32251W        W48145  14.008  14.185  16.080 -0.0889 -0.2203 -0.0464
32252W        W48146   0.460  11.568  15.996  0.1917 -0.0854 -0.1629
32253W        W48147  16.731   0.583  15.130 -0.0108  0.3931 -0.0341
32254W        W48148  16.373   4.237   1.943  0.1647 -0.4465 -0.0185
32255W        W48149  13.233   6.639   1.824 -0.0112  0.4920  0.1028
32256W        W48150  14.888  18.132   4.187  0.1361  0.1290  0.1399
32257W        W48151   2.487   0.504  11.996 -0.4229  0.3430 -0.1450
32258W        W48152   0.720  17.631   4.381 -0.2244  0.1418 -0.0119
32259W        W48153   3.149  12.409  12.854  0.1340  0.0815  0.1531
32260W        W48154  15.109   1.125  12.068  0.0413 -0.2409  0.1197
32261W        W48155   8.941  11.315  13.296  0.0717  0.3127  0.0850
32262W        W48156  10.356   6.843   2.953  0.0409 -0.1925  0.3259
32263W        W48157  10.838   1.187  13.564 -0.0888 -0.0509  0.3586
32264W        W48158   8.094  10.613  13.371 -0.0241 -0.2848 -0.1534
32265W        W48159   2.157  10.276   1.541 -0.0753  0.1135 -0.2810
32266W        W48160   6.973   8.980  13.833 -0.3413 -0.0283  0.0336
32267W        W48161  17.656  17.248   2.328  0.0190 -0.0494  0.0789
32268W        W48162  11.093  17.955   0.136 -0.0350  0.0009  0.1463
32269W        W48163   0.258   7.820  14.929  0.2106 -0.1982  0.0311
32270W        W48164   1.298  17.509  12.776 -0.3231 -0.0994  0.0035
32271W        W48165   2.341  14.001  11.300  0.0187  0.2693  0.2538
32272W        W48166  10.455  11.909  11.109 -0.4003  0.2206  0.0973
32273W        W48167   6.902   7.209  13.130  0.2374  0.1010 -0.5794
32274W        W48168   2.096  12.766  11.754  0.1373 -0.1870 -0.1534
32275W        W48169  10.616   2.163   2.703 -0.2056 -0.1555 -0.0352
32276W        W48170   4.578  14.418   1.674 -0.2058  0.0481 -0.3475
32277W        W48171  17.778   1.962   1.790 -0.0627  0.0379  0.0322
32278W        W48172  13.803  16.142   1.428 -0.1195 -0.2424 -0.3804
32279W        W48173   1.354   9.657  11.518  0.1744  0.2024  0.0021
32280W        W48174   8.634  18.062  15.335 -0.4490 -0.0111  0.3448
32281W        W48175  14.576   4.250  12.457  0.0701 -0.3901 -0.0464
32282W        W48176   9.511  10.213  12.359 -0.1448  0.1291 -0.0489
32283W        W48177  15.996   6.045  14.489  0.1284 -0.2258 -0.3063
32284W        W48178  17.489  15.470  15.692 -0.0578  0.1459 -0.1418
32285W        W48179  14.339   8.444  12.848  0.2780  0.2165 -0.2951
32286W        W48180   5.082   8.524   6.456  0.0395  0.0348  0.0160
32287W        W48181   2.660  10.018  13.250  0.0618  0.0998  0.3240
32288W        W48182   4.013   4.638  11.032 -0.0765 -0.1203  0.1887
32289W        W48183  11.364  12.179   4.460 -0.3143  0.1890  0.0737
32290W        W48184  16.660   5.671   5.318  0.0606 -0.0012 -0.2249
32291W        W48185   3.671   2.492  15.347 -0.1489  0.0925 -0.0510
32292W        W48186   1.445   5.731   4.345 -0.0175  0.1848  0.1827
32293W        W48187   4.117   5.538   2.060  0.1557  0.0987  0.1370
32294W        W48188   0.886  12.322   0.252  0.0054 -0.0790 -0.0982
32295W        W48189  10.986  15.869   3.279 -0.1527  0.0995 -0.1776
32296W        W48190   1.030  15.331  14.741 -0.0501 -0.1739 -0.1961
32297W        W48191   6.389   6.498  12.861  0.3131 -0.2330  0.2637
32298W        W48192   7.333   4.236   4.283 -0.1045  0.0842  0.0454
32299W        W48193  17.217   2.159   2.481 -0.1503 -0.1692  0.2246
32300W        W48194  11.986  16.818   3.122  0.2664 -0.1371 -0.1464
32301W        W48195  17.197  17.171  12.661  0.0736  0.2045 -0.1112
32302W        W48196   7.202   8.017  11.236  0.0740  0.2770 -0.1192
32303W        W48197  15.348  16.714  13.169  0.1804 -0.2219  0.0652
32304W        W48198  13.105  12.479   4.356 -0.3191  0.1088 -0.2108
32305W        W48199   1.245   4.455   1.211 -0.0139 -0.0349  0.1549
32306W        W48200   7.927   2.307  13.310  0.1462 -0.2171 -0.2325
32307W        W48201   5.076   7.815   0.523 -0.1074  0.0680 -0.1552
32308W        W48202   5.174  16.352  15.086 -0.2442 -0.2191  0.0206
32309W        W48203  15.332   3.396   4.082 -0.0169 -0.1101  0.0420
32310W        W48204   8.534   5.848  11.183  0.0884 -0.1156 -0.0832
32311W        W48205  12.498   8.713   5.822 -0.3539  0.2321  0.1771
32312W        W48206  10.423   5.152  13.385 -0.0850  0.1594 -0.0749
32313W        W48207  10.192  14.324  11.599 -0.0057 -0.1787 -0.0043
32314W        W48208   3.808   3.672   1.344 -0.0031  0.1024 -0.1416
32315W        W48209  13.654   4.954  15.182  0.3323  0.0337 -0.0778
32316W        W48210   1.720   2.628   6.067 -0.2006  0.0449 -0.1953
32317W        W48211   2.954  12.860  12.908  0.3704 -0.0374 -0.0642
32318W        W48212  18.036   4.562  12.188  0.0317 -0.2094 -0.0432
32319W        W48213  16.716  13.365  15.165 -0.0452  0.1881 -0.2733
32320W        W48214   5.910  12.752   0.526  0.2873 -0.1378 -0.1202
32321W        W48215   8.524   2.535   2.955  0.0662  0.1153  0.2797
32322W        W48216  16.023  14.842   4.534 -0.0227 -0.1047 -0.2376
32323W        W48217   9.828   3.062   5.737  0.3398 -0.0427 -0.4237
32324W        W48218  15.580   3.594   1.035  0.0672  0.2911 -0.0538
32325W        W48219  12.799   6.538  13.219  0.3360  0.2106 -0.0170
32326W        W48220  11.284  16.328   3.696  0.0095  0.0736  0.0009
32327W        W48221  10.616   2.617   0.267  0.2969  0.0271 -0.1905
32328W        W48222   7.779   1.233   0.025  0.2947  0.0788  0.4639
32329W        W48223  17.834   0.937   4.996  0.0386 -0.2448 -0.0324
32330W        W48224  10.752  10.627  11.476 -0.0263 -0.2556 -0.2208
32331W        W48225   1.068  12.283   5.477  0.2253  0.3766  0.4326
32332W        W48226   1.631  10.132   4.040  0.0212 -0.0272  0.0045
32333W        W48227  15.652  10.103   3.519  0.2722  0.2127  0.2797
32334W        W48228   7.916  14.327   4.056 -0.0475 -0.1306  0.1866
32335W        W48229   8.508  15.239   1.200  0.2612  0.2074  0.0152
32336W        W48230   6.126   6.173  14.264 -0.5016 -0.2164  0.3179
32337W        W48231   6.650   9.284   1.186 -0.3680 -0.2551 -0.1242
32338W        W48232  11.974   0.742   3.542 -0.3315  0.1986  0.2046
32339W        W48233  12.154  13.159  11.555 -0.0897 -0.3036  0.1501
32340W        W48234   6.118  10.491   2.366 -0.0800  0.3089  0.2600
32341W        W48235  10.386   9.723   0.333 -0.0021  0.0460  0.0345
32342W        W48236   3.243  11.886   3.373 -0.0760 -0.2867  0.1146
32343W        W48237  16.875  14.494   2.238 -0.2041 -0.0740 -0.2576
32344W        W48238  10.421  12.610  11.556 -0.0553 -0.1209  0.0121
32345W        W48239   5.001   1.350   0.060  0.1213 -0.1139  0.1910
32346W        W48240  12.197   1.772   5.301  0.0746 -0.2109 -0.3284
32347W        W48241  16.509  10.789  12.278 -0.2829  0.0390 -0.0301
32348W        W48242   2.692   4.669  14.860  0.1059  0.0182 -0.0890
32349W        W48243  18.412  12.709   0.110 -0.1238  0.0154 -0.2409
32350W        W48244  17.951  17.674   2.145 -0.2750  0.0781 -0.0476
32351W        W48245  10.448  16.749   3.134 -0.1136 -0.1187  0.3944
32352W        W48246  12.168   4.291   5.114  0.3071 -0.0728 -0.0465
32353W        W48247   9.470   9.217  12.403 -0.1228 -0.1673 -0.2787
32354W        W48248  12.242   9.130   1.511  0.0516  0.0512  0.0068
32355W        W48249   4.816   9.924  15.886 -0.2030  0.2594 -0.0713
32356W        W48250   1.028   5.606  15.084 -0.1764  0.1344  0.1669
32357W        W48251  18.368   0.711   0.478 -0.3131 -0.0875 -0.1469
32358W        W48252   0.990  12.767   5.488 -0.1731 -0.2815  0.3534
32359W        W48253   8.085  10.966   2.848 -0.2027 -0.1989 -0.0398
32360W        W48254  11.534   3.329   4.495 -0.1704  0.0044  0.0702
32361W        W48255   6.127   6.902   0.971 -0.0404 -0.1737  0.1791
32362W        W48256   5.285   8.503  14.537 -0.1563  0.2229  0.0697
32363W        W48257  11.264  17.707  14.191 -0.0722  0.4096 -0.0209
32364W        W48258   6.718  18.228  15.450  0.0219  0.1158  0.0823
32365W        W48259  10.692   3.723  15.128 -0.0085  0.2036  0.0723
32366W        W48260  10.121   6.828  13.189 -0.0304  0.4451 -0.0705
32367W        W48261   4.566  17.472   2.483 -0.4479 -0.0839 -0.0600
32368W        W48262   3.768  15.025  10.534 -0.1620 -0.1207  0.0467
32369W        W48263  12.842   2.171  13.645 -0.0593  0.1807 -0.0855
32370W        W48264   0.301  16.114  12.714  0.1395  0.0497 -0.3389
32371W        W48265   5.949  14.340   0.859  0.0525 -0.2726  0.2169
32372W        W48266   8.830   8.132   0.053 -0.0363 -0.0710 -0.0066
32373W        W48267   0.947  14.672  11.945 -0.3848  0.1184  0.1900
32374W        W48268  12.821   6.128  16.112 -0.2039 -0.0910  0.0377
32375W        W48269  11.979   2.854  14.641 -0.0957  0.3288  0.1168
32376W        W48270   0.126  10.356   5.952 -0.2055  0.0515 -0.0566
32377W        W48271  17.025  16.354  12.494  0.0419 -0.1283 -0.3476
32378W        W48272  17.961  10.039  14.162  0.2611  0.2396 -0.1608
32379W        W48273  13.868   5.833  12.591  0.1473  0.0676 -0.3103
32380W        W48274  10.909   2.768  11.044  0.4258  0.0357  0.3136
32381W        W48275   5.649  13.402   1.008  0.3654 -0.1258  0.2139
32382W        W48276  12.754  10.067   3.008 -0.1272 -0.1148 -0.1661
32383W        W48277   6.325  17.861  13.409  0.1959  0.1288  0.0577
32384W        W48278   2.916   9.011  12.347  0.2756  0.4611  0.0307
32385W        W48279   2.332   9.920  13.674 -0.2400 -0.1782  0.3251
32386W        W48280   3.420  17.540   1.268 -0.1780  0.0530  0.0370
32387W        W48281  15.415  17.181   2.641  0.4184  0.0196  0.1451
32388W        W48282   3.840   8.508   5.800  0.3152  0.3784  0.0499
32389W        W48283   6.852  15.855   3.484 -0.1312  0.0308  0.2560
32390W        W48284   8.267   7.619   1.200  0.1428 -0.1683  0.5566
32391W        W48285   6.439  12.203   3.035 -0.2572 -0.0958  0.2624
32392W        W48286   0.789   0.410  13.899  0.0333  0.1047 -0.0570
32393W        W48287   8.286   6.472  15.409  0.2988 -0.1081 -0.4499
32394W        W48288   5.730  11.268  12.559  0.0101  0.0686  0.1138
32395W        W48289  13.293   7.934  12.351  0.0990  0.3142 -0.0059
32396W        W48290   4.002   8.893  12.995  0.3434  0.2553 -0.3872
32397W        W48291   5.444   1.934   4.914  0.2217 -0.2929  0.1186
32398W        W48292   7.943   6.359  14.556 -0.0971 -0.0386  0.0087
32399W        W48293   7.112   9.428  13.905  0.2707 -0.3141 -0.2640
32400W        W48294   5.408   7.645   3.315 -0.1946 -0.0381 -0.0891
32401W        W48295   6.756   3.407   2.126  0.1462  0.0948 -0.1101
32402W        W48296   3.741  12.628  14.447 -0.2837  0.0624  0.3650
32403W        W48297  14.561  12.658   1.701 -0.2257 -0.0575  0.0597
32404W        W48298  13.652   8.806  15.662 -0.1548  0.1760  0.1856
32405W        W48299   2.056  11.955   4.203  0.0168 -0.0295 -0.4718
32406W        W48300   5.186  15.613  11.585 -0.0887  0.1060 -0.2557
32407ION     NA48301   1.754  16.669   3.865 -0.2073  0.0092 -0.0493
32408ION     NA48302   1.785  12.906   4.988 -0.1445 -0.0837 -0.1503
32409ION     NA48303  10.554  12.006   4.905  0.0428 -0.3625 -0.2098
32410ION     NA48304   9.279  10.853  10.250  0.0496 -0.1149  0.2353
32411ION     NA48305  14.919   3.268  10.798  0.0046  0.0846  0.0228
32412ION     NA48306   0.939  14.249  10.354  0.3134  0.4164 -0.2093
32413ION     NA48307   8.912  18.156  10.614 -0.0016  0.0987 -0.1436
32414ION     NA48308   9.804   1.404  15.885  0.0445 -0.1088 -0.2944
32415ION     NA48309  13.926  17.414  11.550 -0.1527  0.0803  0.2115
32416ION     NA48310   4.537  16.726  10.395 -0.0623  0.1521 -0.1497
32417ION     NA48311   5.705   8.564   5.379  0.1832  0.2896 -0.1841
32418ION     NA48312  17.762   6.567  10.910  0.1143 -0.0224  0.1356
32419ION     NA48313  15.915  11.558  10.499  0.1107  0.0900  0.0558
32420ION     NA48314   4.051  15.101  10.176 -0.0499 -0.4152  0.0557
32421ION     NA48315   1.517   4.493   6.060 -0.0028 -0.1169 -0.0969
32422ION     NA48316   7.728  14.458  12.002  0.0791  0.0158  0.1467
32423ION     NA48317  16.718   9.403   2.806  0.0684 -0.0754  0.0371
32424ION     NA48318   7.108  11.709   5.593  0.0256 -0.1526  0.0024
32425ION     NA48319   6.112  14.441   5.829  0.0857 -0.1304  0.0291
32426ION     NA48320  15.325   3.361  11.065 -0.3036 -0.0546  0.2077
32427ION     NA48321  10.467  15.164   5.492 -0.2114  0.1630 -0.1126
32428ION     NA48322   3.519  10.386   1.027 -0.1695  0.0996  0.0015
32429ION     NA48323   3.418   9.479  14.567  0.0804 -0.1054 -0.1031
32430ION     NA48324  17.294   2.512  12.546  0.1053 -0.2681  0.1262
32431ION     NA48325  10.777  17.497  10.034 -0.3716  0.2729  0.2254
32432ION     NA48326  13.383   1.365  10.706 -0.1661  0.0157  0.0276
32433ION     NA48327  15.925  13.789   5.443 -0.0040  0.2740 -0.0637
32434ION     NA48328   9.395   6.488  10.373  0.2255  0.1036  0.0071
32435ION     NA48329   8.985  17.468  10.119  0.0197 -0.0922 -0.0899
32436ION     NA48330  15.449   7.486   5.722  0.1973  0.2086  0.2756
32437ION     NA48331   1.689  10.887  14.884 -0.0696  0.2537  0.0412
32438ION     NA48332   8.847  13.765   9.842  0.0627  0.1938  0.3668
32439ION     NA48333  17.215  13.771  10.589  0.1185  0.3747 -0.1333
32440ION     NA48334  13.722  13.060  10.133 -0.3173 -0.3542 -0.0448
32441ION     NA48335  11.140  13.622   9.928  0.1492 -0.0139 -0.2942
32442ION     NA48336   4.266   9.320  10.185  0.1421 -0.2464 -0.1219
32443ION     NA48337  13.379   5.399  10.758  0.1301  0.0266  0.2358
32444ION     NA48338  12.367   9.942  10.231  0.2064  0.1411  0.0922
32445ION     NA48339   2.603   3.745  10.289 -0.1577 -0.0052 -0.0750
32446ION     NA48340   8.174   3.438   1.833 -0.1085  0.1628  0.0827
32447ION     NA48341   4.634  16.429  12.550 -0.0133 -0.1851  0.0428
32448ION     NA48342  16.191   4.440  14.567 -0.2711 -0.0789  0.3041
32449ION     NA48343   9.057   7.147  10.252  0.0648  0.0901 -0.3233
32450ION     NA48344  10.694   5.872   0.177  0.2640  0.1085  0.2635
32451ION     NA48345   2.125   1.391  10.195 -0.1026  0.1376 -0.3478
32452ION     NA48346  10.690   2.513   3.988 -0.0865  0.2087  0.0352
32453ION     NA48347  16.817  11.029  11.140  0.0091 -0.1261 -0.0005
32454ION     NA48348   7.993  10.971   5.734 -0.1231 -0.3945  0.0872
32455ION     NA48349   6.727   0.687  10.334 -0.1056  0.0224 -0.1707
32456ION     NA48350  18.023  14.396   5.207 -0.1003  0.2450 -0.2198
32457ION     NA48351  10.784   3.232   5.643  0.0498 -0.2076  0.0428
32458ION     NA48352   5.076  17.913  10.485 -0.0131  0.1329 -0.0042
32459ION     NA48353  13.923   5.265   6.339 -0.1368 -0.0684 -0.0047
32460ION     NA48354  14.804  15.797   4.319  0.0297  0.0743  0.1951
32461ION     NA48355  15.788   4.730  11.015  0.1042 -0.1701 -0.0513
32462ION     NA48356   3.740  16.029  10.225  0.0337 -0.4544 -0.0866
32463ION     NA48357  12.521   0.042  15.654 -0.1170 -0.0293 -0.0524
32464ION     NA48358  18.161  17.790  10.440  0.1077  0.2322  0.1471
32465ION     NA48359   1.583   8.936  10.669 -0.4169  0.1152  0.0098
32466ION     NA48360  11.502   2.390  12.369  0.0222  0.0043 -0.1028
32467ION     NA48361  17.085  18.081  11.473 -0.1633  0.1104 -0.0820
32468ION     NA48362  10.219   9.321  10.281 -0.1374  0.1152  0.0110
32469ION     NA48363   6.377  14.198  10.028  0.2720  0.1904 -0.1760
32470ION     NA48364   1.976   7.625  10.605 -0.4149  0.0396 -0.1504
32471ION     NA48365  18.449   4.039  10.487  0.0650  0.1249 -0.0162
32472ION     NA48366  10.077  10.057  10.093  0.0596  0.0800  0.0660
32473ION     NA48367  12.272  17.050   5.569  0.1268 -0.3680 -0.1335
32474ION     NA48368  10.382  17.452   2.715 -0.1080  0.3148  0.0815
32475ION     NA48369  13.171  11.416  10.108 -0.1460 -0.0632 -0.1683
32476ION     NA48370   2.383   1.695  13.725 -0.0604  0.1218 -0.2480
32477ION     NA48371   2.342   2.253   9.983  0.0225  0.2851 -0.1548
32478ION     NA48372   1.085  16.533  13.833 -0.1771 -0.0978  0.0645
32479ION     NA48373   8.846   1.234   9.956 -0.0373 -0.0294  0.1991
32480ION     NA48374   5.732  11.396  15.279  0.2786 -0.0038 -0.0742
32481ION     NA48375   3.150   9.843  12.467  0.0324 -0.2355  0.0408
32482ION     NA48376   2.683   1.192   5.690 -0.1370 -0.1341  0.1233
32483ION     NA48377  16.303   6.506   6.464  0.4646 -0.1039  0.3665
32484ION     NA48378  16.242   8.589  10.998  0.4037  0.7116 -0.1673
32485ION     NA48379  18.038  18.397  10.591 -0.2389  0.0965  0.0963
32486ION     NA48380  10.290   3.520  15.368  0.1055 -0.0599  0.0594
32487ION     NA48381  17.020   8.798   6.061 -0.0829  0.1724  0.1456
32488ION     NA48382   0.425  11.698   6.144 -0.0845 -0.1282  0.3135
32489ION     NA48383   2.948   8.739   3.562 -0.0917  0.1365 -0.1558
32490ION     NA48384   5.958   0.935  10.106  0.2398  0.1661  0.0345
32491ION     NA48385   2.318  11.255  10.320  0.1333 -0.1074 -0.1869
32492ION     NA48386   2.380   0.378   1.658 -0.1726  0.1304  0.1511
32493ION     NA48387  13.110  18.234  10.192  0.1196  0.0044 -0.3009
32494ION     NA48388  15.729   4.915   4.734 -0.1613 -0.0303 -0.3559
32495ION     NA48389  17.399   8.380  10.851  0.0231 -0.2202  0.0447
32496ION     NA48390   3.006  13.907   3.171 -0.2148 -0.1037  0.0120
32497ION     NA48391  14.051   2.929   5.694  0.0801 -0.1624  0.1417
32498ION     NA48392   5.082  16.136  11.454 -0.0423  0.1256  0.0841
32499ION     NA48393   7.392  11.682   2.375 -0.3170  0.1029  0.2602
32500ION     NA48394   4.193   5.768   2.833 -0.1982 -0.0015  0.1214
32501ION     NA48395  14.533   1.657  11.009  0.2903 -0.2089 -0.1125
32502ION     NA48396  15.747   7.810  10.808  0.0638  0.3929 -0.2252
32503ION     NA48397   4.198   7.898  10.299  0.3500  0.0397  0.4297
32504ION     NA48398  17.010   3.767  11.038  0.0757  0.0555  0.1473
32505ION     NA48399  15.853   9.583  10.635  0.0919 -0.0329  0.0069
32506ION     NA48400  12.132   0.648  12.183 -0.1398 -0.1477 -0.2581
32507ION     NA48401   0.147   8.853  10.889 -0.3150 -0.0719 -0.0140
32508ION     NA48402   3.136  11.453   5.907  0.3489  0.0738  0.2261
32509ION     NA48403   8.471   8.490  10.246  0.0012 -0.3185 -0.0536
32510ION     NA48404   7.300   3.331  12.720  0.1907 -0.3099  0.0939
32511ION     NA48405   5.994  17.305  10.950  0.1408  0.2483  0.2050
32512ION     NA48406   1.806  11.198   4.670  0.0148  0.5244 -0.1939
32513ION     NA48407   9.708   0.947   9.981  0.2501 -0.0138  0.0489
32514ION     NA48408   6.776   7.068  10.473 -0.0563  0.1542 -0.0018
32515ION     NA48409   4.995   0.639  15.468  0.2486  0.1565  0.1572
32516ION     NA48410   1.336   3.454   4.307 -0.2520  0.0097  0.1668
32517ION     NA48411  14.944   8.536   1.470 -0.2104 -0.0215 -0.3456
32518ION     NA48412  15.778  18.191  10.629  0.0503  0.0768  0.3673
32519ION     NA48413  16.560  13.064  10.591  0.0211  0.1845 -0.2339
32520ION     NA48414   0.947  12.308  10.602 -0.0222 -0.0876 -0.1294
32521ION     NA48415  16.086  13.210  10.863  0.1290  0.4760  0.1317
32522ION     NA48416   2.214  13.680  15.888 -0.1487  0.2405 -0.0535
32523ION     NA48417   3.356  14.380  10.230  0.1475  0.1707 -0.2789
32524ION     NA48418   1.636   5.085   1.557  0.4281  0.0747 -0.1008
32525ION     NA48419   8.406   7.613  10.313  0.0648  0.3344 -0.1155
32526ION     NA48420   2.162   8.718  12.299 -0.1177  0.1113  0.2473
32527ION     NA48421   1.398  11.651   2.011  0.1540 -0.0964 -0.0545
32528ION     NA48422   9.494   4.023  14.333 -0.2231 -0.2478 -0.2114
32529ION     NA48423  11.786   8.569   5.991  0.1646  0.2492 -0.2589
32530ION     NA48424  12.747   8.662  12.002  0.2070  0.1435  0.0565
32531ION     NA48425   1.289   7.359  12.303 -0.1190 -0.1591  0.0463
32532ION     NA48426  18.050   5.628  11.219 -0.0750 -0.0456 -0.3025
32533ION     NA48427   7.341   9.092  10.342  0.0815  0.2030  0.0352
32534ION     NA48428   9.783  15.363  15.507 -0.4556  0.1871  0.2287
32535ION     NA48429  17.920   1.317  13.336 -0.0472 -0.2934 -0.0509
32536ION     NA48430  13.897  17.603   5.838  0.2180 -0.3651  0.0308
32537ION     NA48431   2.284  10.021   0.606  0.1561 -0.1740  0.1789
32538ION     NA48432  16.912   6.374  10.976 -0.3789 -0.2970 -0.2211
32539ION     NA48433  14.979  13.048   9.941 -0.0465  0.3109 -0.0614
32540ION     NA48434   8.690   0.244   9.906 -0.4169  0.2428 -0.1180
32541ION     NA48435  16.058  11.096   5.190 -0.4289  0.1420 -0.0743
32542ION     NA48436  11.606   5.731  12.799  0.1806 -0.0242 -0.0709
32543ION     NA48437   7.033   9.341  15.150  0.0318  0.0311 -0.1246
32544ION     NA48438   1.532  10.648   5.788  0.1817  0.0056 -0.2461
32545ION     NA48439  17.839   5.166   5.886  0.1560 -0.1105  0.1873
32546ION     NA48440  10.716   2.980  13.360 -0.0090 -0.5150 -0.2477
32547ION     NA48441   7.332   5.894  10.360 -0.0770  0.3378 -0.4890
32548ION     NA48442  10.479  10.062   2.038 -0.3672  0.0185 -0.1537
32549ION     NA48443  13.946  15.268   4.318 -0.1532 -0.0756 -0.2469
32550ION     NA48444  14.044   7.736   6.063  0.0618  0.2700  0.2594
32551ION     NA48445   2.386   9.611  10.397  0.1809  0.0102  0.0478
32552ION     NA48446   2.385   4.389   6.045  0.0804 -0.0505  0.1847
32553ION     NA48447   3.529   7.257  10.950  0.6497  0.0061 -0.1496
32554ION     NA48448   0.661   3.051   5.260  0.0111 -0.0571  0.0627
32555ION     NA48449  14.329   2.583  10.679  0.2264  0.1436  0.0868
32556ION     NA48450   5.126   3.778  10.376  0.0269 -0.0354 -0.0832
32557ION     NA48451  14.057  17.836  10.144 -0.0077 -0.3353  0.2471
32558ION     NA48452   4.175  12.287  10.101  0.0180 -0.1808  0.0190
32559ION     NA48453   6.990   4.941  16.121 -0.0263 -0.1270  0.0468
32560ION     NA48454  11.695  15.430  12.652  0.0717 -0.1789 -0.1543
32561ION     NA48455  11.803  10.403  11.678 -0.2434 -0.1228  0.1678
32562ION     NA48456  12.701  15.894  10.087 -0.1024 -0.0432 -0.0831
32563ION     NA48457   1.911  13.295  10.361 -0.2511  0.0329 -0.1154
32564ION     NA48458   5.970  10.127   9.896 -0.0631  0.0584 -0.0815
32565ION     NA48459  17.189  18.157  10.564 -0.0983  0.0291 -0.0046
32566ION     NA48460  17.765  16.875  10.594  0.0933 -0.1529 -0.0993
32567ION     NA48461   4.525  10.399  13.506 -0.1694 -0.1642  0.2202
32568ION     NA48462   7.986  17.229  10.133 -0.0513 -0.0690  0.0954
32569ION     NA48463   6.175  14.317  12.121 -0.0200  0.2874  0.3080
32570ION     NA48464   4.047   2.173  15.826 -0.1972 -0.1969  0.3024
32571ION     NA48465  16.805   2.727   5.772  0.3802  0.0094  0.1003
32572ION     NA48466   0.476   6.354  14.445  0.0987 -0.3281  0.1483
32573ION     NA48467  18.304  13.205  10.524 -0.0448  0.0531  0.1819
32574ION     NA48468  12.242  12.654   9.741  0.2187 -0.2159  0.1656
32575ION     NA48469  15.644  13.562  10.285 -0.0980 -0.0589 -0.0542
32576ION     NA48470   5.409   0.293  10.345 -0.0543  0.1015 -0.0213
32577ION     NA48471  13.566   8.378  10.654 -0.1811 -0.0642  0.1631
32578ION     NA48472   7.830  11.407   9.923  0.1146  0.1952 -0.1737
32579ION     NA48473   2.264  15.686   0.973  0.1715 -0.1660  0.1103
32580ION     NA48474   2.472  13.995  10.165 -0.4691 -0.2849 -0.2427
32581ION     NA48475  12.142   2.421  10.211  0.2709 -0.0038  0.0681
32582ION     NA48476   8.140   9.231  10.002 -0.1159  0.0692  0.0702
32583ION     NA48477   8.773  12.478   5.264  0.2270  0.0649 -0.0299
32584ION     NA48478  17.251  13.427   4.051  0.0590  0.0292  0.2142
32585ION     NA48479   3.895  17.862   2.025 -0.0468  0.0105  0.1847
32586ION     NA48480   2.719  17.505  10.104  0.0430 -0.0010  0.3329
32587ION     NA48481   8.341  13.546   9.876  0.1627 -0.1083  0.2532
32588ION     NA48482   5.133   4.596  12.987  0.0895 -0.2464  0.0225
32589ION     NA48483   0.227   0.709   0.865 -0.3995 -0.1222 -0.1025
32590ION     NA48484  14.401   8.339  10.746 -0.0058 -0.0213 -0.1726
32591ION     NA48485  17.717  11.359  10.755  0.1359 -0.1716 -0.0642
32592ION     NA48486   9.751   2.210   0.525 -0.2789 -0.0983  0.0342
32593ION     NA48487  10.213  13.175   9.817 -0.0832  0.0096  0.4754
32594ION     NA48488  12.581  17.355  10.844 -0.0089  0.0040 -0.2785
32595ION     NA48489  10.382   6.688   5.778 -0.1972 -0.0562  0.0833
32596ION     NA48490  11.347  18.335  10.273 -0.0208 -0.0242  0.2015
32597ION     NA48491  12.848   7.298  10.710 -0.0225  0.0481 -0.1025
32598ION     NA48492   4.589  15.699  10.427  0.2357  0.1534  0.3675
32599ION     NA48493  12.263   3.889  10.845 -0.1199  0.0041  0.2666
32600ION     NA48494   4.796  12.516  14.942 -0.0795 -0.4180  0.1566
32601ION     NA48495   5.044  11.697  13.056  0.1258  0.0470  0.2245
32602ION     NA48496  12.292  11.801   9.961 -0.0150  0.2085 -0.0886
32603ION     NA48497   8.691  15.486   9.953  0.2791 -0.2154 -0.3293
32604ION     NA48498  11.368   1.450   5.268 -0.0637  0.1375 -0.1533
32605ION     NA48499  14.340  13.577   9.995  0.0070 -0.2496  0.0952
32606ION     NA48500   1.191   0.366  10.128 -0.0998  0.2069 -0.1356
32607ION     NA48501  14.457  16.352  13.010  0.0387 -0.3597  0.1512
32608ION     NA48502   9.040   3.447   9.764  0.2093  0.0225 -0.0432
32609ION     NA48503   9.624   1.312   4.217 -0.0319  0.0836 -0.1722
32610ION     NA48504  11.959   9.329  10.675  0.0664  0.0283 -0.1737
32611ION     NA48505  17.929   7.697  10.815  0.0661 -0.0003  0.2114
32612ION     NA48506   9.518   8.723  10.278  0.1636  0.0166 -0.2096
32613ION     NA48507   3.510  15.802  11.263  0.0447 -0.2760  0.1909
32614ION     NA48508   2.102   2.962  10.111  0.1111  0.0896  0.0432
32615ION     NA48509   5.068   5.996   0.021 -0.0877  0.3970 -0.0830
32616ION     NA48510  14.289   1.342   6.155  0.2087 -0.0841 -0.1110
32617ION     NA48511   8.712  10.570  11.037 -0.1138  0.0401  0.0727
32618ION     NA48512   8.265  16.477  10.011 -0.1221 -0.4238 -0.0753
32619ION     NA48513  16.351   0.784  10.750  0.1043  0.2536  0.0745
32620ION     NA48514  17.244   3.083  10.792 -0.0387 -0.3814  0.2150
32621ION     NA48515  11.929  13.786   4.127 -0.2060  0.0718  0.0575
32622ION     NA48516  16.133   9.930   3.468  0.2374 -0.0590 -0.3401
32623ION     NA48517  15.313  16.230   0.358 -0.1195 -0.0906  0.0392
32624ION     NA48518   1.387   1.011  14.704 -0.2828  0.1753  0.0523
32625ION     NA48519   4.087   1.591  10.003  0.3444  0.3785  0.0030
32626ION     NA48520   0.434   0.992   4.679  0.1296  0.0004 -0.1636
32627ION     NA48521  16.087  10.581  10.703 -0.3181 -0.0895  0.0310
32628ION     NA48522   3.483   7.420   3.357  0.0616 -0.1894  0.0965
32629ION     NA48523   4.575   4.503  10.105  0.3190  0.2712  0.0339
32630ION     NA48524  14.103  13.991   2.839  0.0028 -0.1930 -0.2345
32631ION     NA48525  10.243   7.581  15.843  0.5042  0.2062 -0.3504
32632ION     NA48526  18.162  15.108  14.697 -0.2086 -0.0938  0.0232
32633ION     NA48527  12.734   6.108  10.571 -0.2664  0.1208  0.2451
32634ION     NA48528   5.318   8.132  10.242  0.2326 -0.1516 -0.1968
32635ION     NA48529   3.133  12.653  10.260  0.3232 -0.2876 -0.0387
32636ION     NA48530   9.684  14.472   5.583  0.0034  0.3968  0.2076
32637ION     NA48531  11.424   7.873  10.530 -0.2714  0.1148 -0.1061
32638ION     NA48532  14.308   4.435  12.089 -0.0159  0.1369 -0.1331
32639ION     NA48533   9.023  10.629  13.961  0.4424  0.1077 -0.0110
32640ION     NA48534   4.911  18.427   5.407  0.1526 -0.0789 -0.1700
32641ION     NA48535   6.786  17.489   3.214  0.1954  0.2399  0.0122
32642ION     NA48536  15.374  11.667  10.390 -0.1555  0.0630 -0.0241
32643ION     NA48537   3.880   3.572  10.547 -0.2548 -0.2473 -0.0983
32644ION     NA48538   9.628  15.917   2.231  0.0029  0.2097 -0.0623
32645ION     NA48539   2.944  16.166  10.408  0.0543 -0.1995 -0.1994
32646ION     NA48540   1.875   0.946   5.234 -0.0001  0.0098  0.1136
32647ION     NA48541  10.393   4.408  10.045 -0.0508 -0.2185  0.2038
32648ION     NA48542  17.926  16.893   5.957 -0.2200  0.0345 -0.0182
32649ION     NA48543  14.685   0.286  15.415 -0.0710 -0.2032 -0.0779
32650ION     NA48544  14.055   3.517  10.676  0.1113  0.3251  0.0842
32651ION     NA48545  13.833   2.371  10.691 -0.1632  0.2514  0.0912
32652ION     NA48546  18.223   5.650   3.088  0.1206  0.0379  0.2348
32653ION     NA48547  17.126   2.850   6.254 -0.3257 -0.1284  0.0333
32654ION     NA48548   6.584  10.957  10.133 -0.2059  0.1804 -0.1709
32655ION     NA48549   0.427  10.486   2.890  0.0616  0.1069 -0.3579
32656ION     NA48550  17.235   7.293  10.863  0.3597 -0.0796 -0.1940
32657ION     NA48551   0.519   8.883   0.817 -0.4719  0.3896 -0.2451
32658ION     NA48552   5.365  14.396   1.748  0.0012  0.0292  0.1306
32659ION     NA48553  14.334   7.243  10.912  0.0182  0.1161 -0.0921
32660ION     NA48554  12.666   8.833  10.430 -0.2574 -0.0799  0.1621
32661ION     NA48555  17.761   9.678   6.068  0.2120  0.3618  0.3022
32662ION     NA48556   5.479  17.371   4.709  0.3046 -0.0346 -0.2719
32663ION     NA48557  14.328   9.967  10.597  0.2654  0.0643  0.2796
32664ION     NA48558   0.231   0.992  10.610  0.0002  0.2887 -0.2195
32665ION     NA48559  16.382  13.970  10.702  0.1077  0.5595 -0.1145
32666ION     NA48560   5.317  10.710   9.882  0.0155 -0.0375 -0.1407
32667ION     NA48561   7.750  15.686   3.137 -0.2064  0.4065  0.1510
32668ION     NA48562   8.031  10.765  15.696  0.0669  0.2798  0.0403
32669ION     NA48563  12.548   5.870  12.336  0.0254  0.2143  0.2556
32670ION     NA48564  16.003   2.788  10.983 -0.0430 -0.1280  0.0261
32671ION     NA48565  12.553  15.780   5.208 -0.1108  0.0719  0.1557
32672ION     NA48566  11.245   3.545  15.683 -0.1039  0.1644 -0.4548
32673ION     NA48567  12.895  10.606   9.958  0.1827 -0.1909  0.1907
32674ION     NA48568   6.924  14.484   5.656 -0.0175  0.0276 -0.1126
32675ION     NA48569  16.801  12.194   5.775  0.2080  0.1988  0.0138
32676ION     NA48570   1.636  17.409  12.096 -0.0622 -0.0254 -0.1133
32677ION     NA48571   5.343  12.029   9.986  0.0238 -0.2989 -0.0234
32678ION     NA48572   7.801  12.175   9.876  0.1670  0.0435 -0.1888
32679ION     NA48573   1.804  12.358  10.475  0.0058  0.0282 -0.2196
32680ION     NA48574  14.280   0.324  10.415  0.1673 -0.2509 -0.1626
32681ION     NA48575  18.358   6.395  12.617 -0.0323 -0.1130  0.0656
32682ION     NA48576  17.740  12.377  10.493 -0.0869 -0.2189 -0.2159
32683ION     NA48577  10.506  15.747  15.768 -0.0686 -0.1705 -0.4137
32684ION     NA48578   5.570   1.731   9.998 -0.0648  0.2051 -0.3043
32685ION     NA48579  15.038   7.866  10.915 -0.1876 -0.0307 -0.0432
32686ION     NA48580  12.422  11.712  15.786 -0.0087 -0.0810  0.1687
32687ION     NA48581  17.419  15.533  10.398  0.0144 -0.4704 -0.0227
32688ION     NA48582  10.871  16.276  10.067 -0.1063 -0.1600  0.0386
32689ION     NA48583  11.048   3.962   5.931  0.2593  0.1615  0.0305
32690ION     NA48584  17.157  14.630  10.594 -0.1576  0.0744  0.3110
32691ION     NA48585  15.161   2.272  10.922  0.1226 -0.2652  0.0420
32692ION     NA48586   1.476   7.930  10.669 -0.1123  0.2269 -0.0804
32693ION     NA48587   3.366   0.845  10.007  0.1057  0.1187 -0.0465
32694ION     NA48588  16.927   6.646   6.371  0.0849  0.2380 -0.2967
32695ION     NA48589   8.992   7.873  10.909  0.1014  0.0814 -0.0277
32696ION     NA48590   6.397  15.422  10.018 -0.1243 -0.6123  0.0271
32697ION     NA48591  15.502   0.216  10.591 -0.0300 -0.0014  0.0682
32698ION     NA48592   1.285   5.350  10.444  0.0395  0.0790  0.0140
32699ION     NA48593   2.330   5.685  11.139 -0.0249  0.2350  0.0775
32700ION     NA48594  13.636   5.215   5.860 -0.3188 -0.6560 -0.1934
32701ION     NA48595  14.357  15.164  10.042 -0.0343 -0.0910 -0.0708
32702ION     NA48596   6.752  17.961  10.455 -0.0229  0.3309 -0.3037
32703ION     NA48597   8.001  18.027  10.239  0.0683  0.3132  0.0259
32704ION     NA48598   1.759  15.435  10.205  0.1706 -0.1002 -0.1937
32705ION     NA48599   9.028  16.148   5.639  0.2761 -0.0233 -0.0524
32706ION     NA48600  11.850  11.545   5.705  0.0428 -0.2096  0.1647
32707ION     NA48601   4.242   2.977   5.598  0.1717 -0.0602 -0.0647
32708ION     NA48602   2.162   7.938   4.529  0.2551 -0.1081  0.0025
32709ION     NA48603   4.379   0.465  11.088  0.1701  0.0197 -0.1171
32710ION     NA48604   6.352  13.198   9.869 -0.1016 -0.1272  0.0436
32711ION     NA48605  10.845   1.517  10.006  0.1256 -0.3339  0.3258
32712ION     NA48606   1.326  13.180  10.312 -0.0686  0.0670 -0.0777
32713ION     NA48607  14.070  18.173  14.786 -0.3407  0.0554  0.0077
32714ION     NA48608  15.655   1.095  12.448 -0.0717 -0.0201 -0.1532
32715ION     NA48609  16.362   8.195   6.412 -0.0312  0.1953  0.0896
32716ION     NA48610  12.379   7.898  10.459 -0.0567  0.3718 -0.2020
32717ION     NA48611  13.427  13.820   9.994 -0.1539 -0.2354  0.2267
32718ION     NA48612   5.642  13.316   5.567 -0.0149 -0.1803 -0.2368
32719ION     NA48613   5.894  17.212   5.593  0.0080 -0.1863 -0.1803
32720ION     NA48614  13.755   3.597  14.903  0.1518  0.2620  0.1456
32721ION     NA48615   2.834   2.614   5.630 -0.0823  0.0371  0.1456
32722ION     NA48616   0.067  13.975  10.820  0.0651 -0.1804 -0.1904
32723ION     NA48617  12.105  16.721  12.950 -0.1618 -0.0944 -0.1373
32724ION     NA48618  12.873   2.212  10.484 -0.1732  0.0508 -0.0175
32725ION     NA48619   0.030  11.856  10.572  0.2425  0.2155 -0.5140
32726ION     NA48620  14.215   4.070  10.687  0.2142 -0.0929 -0.1420
32727ION     NA48621   0.495   7.734  10.631  0.1920 -0.0187 -0.1868
32728ION     NA48622   5.988  10.492  14.280  0.1856  0.1320 -0.1484
32729ION     NA48623   8.020  17.206   2.597  0.3448 -0.1543  0.0567
32730ION     NA48624   7.548  17.015   0.776  0.0281  0.4171  0.0383
32731ION     NA48625  16.870   5.553   1.567 -0.4088 -0.0886 -0.2387
32732ION     NA48626   8.937   3.098   0.606  0.0567 -0.0151  0.2379
32733ION     NA48627  17.630  12.553  11.948 -0.0117 -0.0251  0.0402
32734ION     NA48628  17.493   8.622  15.129  0.4198  0.0618  0.0947
32735ION     NA48629   0.159  12.575  10.728  0.0316 -0.0210 -0.2924
32736ION     NA48630   5.843  15.226   1.734  0.3100 -0.0874 -0.0289
32737ION     NA48631   3.350   9.553  10.379 -0.1048 -0.2473 -0.4352
32738ION     NA48632   4.630  13.985  10.050  0.0498 -0.1123 -0.3318
32739ION     NA48633   1.922  16.384  10.517  0.1137  0.1652  0.0868
32740ION     NA48634  16.527   1.390   6.156  0.0688  0.0814 -0.0358
32741ION     NA48635   9.649   3.266   5.305 -0.1959 -0.0067 -0.2426
32742ION     NA48636   9.929  10.003   5.759 -0.1056  0.4214 -0.2273
32743ION     NA48637   6.027  13.856  15.406 -0.2544 -0.0704 -0.2319
32744ION     NA48638   7.574   7.085  10.174  0.1936 -0.1009  0.1873
32745ION     NA48639  14.096  16.949   9.874  0.0295 -0.0612  0.1044
32746ION     NA48640  15.358   3.270   1.619  0.0349 -0.0072  0.1640
32747ION     NA48641  17.249  16.019   4.638 -0.0730  0.3422 -0.0236
32748ION     NA48642   2.320   9.629  15.541 -0.1280 -0.0748  0.3867
32749ION     NA48643  18.377  15.415  10.717 -0.2284  0.2331 -0.1559
32750ION     NA48644   8.549  16.206  14.126 -0.2088 -0.1235 -0.0674
32751ION     NA48645  11.640  13.083  11.620 -0.2564 -0.0913 -0.1423
32752ION     NA48646   1.910  17.402  10.355 -0.0403 -0.1638 -0.0965
32753ION     NA48647  10.778  10.607  10.111  0.0940 -0.2765  0.2229
32754ION     NA48648  10.888  16.854   5.667  0.2417 -0.1218  0.1320
32755ION     NA48649   0.987   2.862  10.641  0.2667  0.1620 -0.3178
32756ION     NA48650   9.884   1.897  10.321  0.2077  0.1253  0.0003
32757ION     NA48651   0.430   5.145  10.649  0.1422  0.1512  0.1963
32758ION     NA48652   9.124   4.872  10.115 -0.0552  0.1076 -0.0142
32759ION     NA48653   7.282  15.809  10.075  0.3180 -0.1227 -0.0717
32760ION     NA48654   2.068  11.480  10.885  0.1817 -0.2320 -0.1557
32761ION     NA48655  16.507   1.822  13.398 -0.1309  0.1585  0.0491
32762ION     NA48656   0.762  15.532  14.316  0.2225 -0.2707 -0.4775
32763ION     NA48657  13.588  16.116   0.374 -0.0089  0.1118 -0.0644
32764ION     NA48658   6.264  11.488   9.739  0.4134  0.1365 -0.1950
32765ION     NA48659  11.809  16.102   9.987  0.1455  0.1056 -0.0936
32766ION     NA48660  16.476  17.475  10.368  0.1075  0.2194 -0.2299
32767ION     NA48661  11.196   6.101  10.412  0.1435  0.2017  0.1048
32768ION     NA48662  12.892  13.224   5.692 -0.1676 -0.0686 -0.0592
32769ION     NA48663   8.277   2.797   9.730  0.0124  0.2571 -0.0822
32770ION     NA48664   6.209  13.986   1.442 -0.0376 -0.0336  0.2041
32771ION     NA48665  12.789  13.008   1.249  0.3114  0.4243 -0.5719
32772ION     NA48666  18.123  14.165  10.629  0.4696  0.3477 -0.0703
32773ION     NA48667   5.149  17.369  15.037  0.3321 -0.3408 -0.0852
32774ION     NA48668   8.370   5.214  11.969 -0.0041 -0.3091  0.1309
32775ION     NA48669  10.949   8.840  10.625 -0.0393  0.0812  0.1413
32776ION     NA48670  14.109   4.985   4.470  0.0439 -0.2376  0.1162
32777ION     NA48671  13.269  16.351   9.987 -0.0221  0.0118  0.0237
32778ION     NA48672  11.212  11.447   9.867  0.1848  0.0834  0.0263
32779ION     NA48673   1.929  15.758   5.984  0.3392  0.0787 -0.3920
32780ION     NA48674  18.155   9.475  10.831 -0.0782  0.0317 -0.2510
32781ION     NA48675   8.607   6.290  10.378 -0.1248  0.1970 -0.3598
32782ION     NA48676  14.769  18.180  10.536  0.3619  0.0449  0.4614
32783ION     NA48677  16.599  11.034  14.616 -0.0333 -0.2567  0.0586
32784ION     NA48678   3.308   9.671   3.269  0.0066  0.3512 -0.2649
32785ION     NA48679  12.311  13.934   2.379 -0.0093  0.3157  0.0539
32786ION     NA48680  14.358   5.662  12.442  0.0193 -0.0240 -0.3650
32787ION     NA48681   7.916   5.500  14.517  0.0961  0.2923  0.1040
32788ION     NA48682  10.267  16.214   5.360  0.0572  0.3477  0.3938
32789ION     NA48683   4.715  11.272   9.927  0.2382 -0.1208 -0.0634
32790ION     NA48684   0.061  10.864  10.810 -0.2883  0.0717 -0.3420
32791ION     NA48685   4.738   1.324  10.138 -0.1180 -0.1465 -0.0098
32792ION     NA48686   3.082  17.267   3.585 -0.0632  0.0462  0.3955
32793ION     NA48687  12.401   8.258   1.791 -0.0408  0.0726 -0.3551
32794ION     NA48688   1.814   5.100  10.591 -0.1724 -0.0815  0.1548
32795ION     NA48689  12.329  14.397  15.288 -0.0451  0.1704 -0.1305
32796ION     NA48690  18.167   7.210  14.112 -0.0872 -0.0953 -0.2705
32797ION     NA48691   8.600   8.856  14.996 -0.0620  0.0491 -0.0356
32798ION     NA48692   1.597   6.141  10.476  0.0940  0.2060  0.0539
32799ION     NA48693   8.917   2.108   9.918 -0.0231  0.1094  0.3921
32800ION     NA48694  12.482  15.158  10.615  0.2232 -0.0517  0.3385
32801ION     NA48695  12.560   3.054  10.471  0.1967  0.0701 -0.1300
32802ION     NA48696   9.095  16.303  10.060  0.0545  0.3163  0.3000
32803ION     NA48697  16.476  16.156   6.003  0.0082  0.1308 -0.0877
32804ION     NA48698  12.446  16.766  10.190 -0.1603 -0.1582 -0.0233
32805ION     NA48699  17.924  15.483  12.316 -0.1838  0.0499 -0.1168
32806ION     NA48700   7.899   5.241   4.833 -0.1946  0.1709 -0.1043
32807ION     NA48701   7.140   4.481  12.906 -0.1506 -0.0058  0.1145
32808ION     NA48702   5.563   5.228  10.379  0.0471  0.0343 -0.0630
32809ION     NA48703   9.853  18.000   5.739 -0.0362  0.0402 -0.1652
32810ION     NA48704  15.174  10.520   5.712  0.2535 -0.1058  0.1957
32811ION     NA48705  11.264   6.968  10.389 -0.0931 -0.1608 -0.1870
32812ION     NA48706   8.949   2.815  13.017 -0.1560 -0.0142 -0.1333
32813ION     NA48707   1.570   2.209  10.402  0.2639  0.1098 -0.1732
32814ION     NA48708   4.357  10.564  10.316  0.0171 -0.3149 -0.0481
32815ION     NA48709   7.778  14.214  10.159  0.0630 -0.0471 -0.0382
32816ION     NA48710  14.581  17.044  10.163  0.3303 -0.2464 -0.0035
32817ION     NA48711  14.579  11.264  10.288 -0.0397 -0.2112  0.1432
32818ION     NA48712  10.840  12.779  11.275  0.1705  0.0787 -0.0636
32819ION     NA48713   0.087  16.890  10.642 -0.0821 -0.1014 -0.1737
32820ION     NA48714  16.292   7.075  10.863  0.0909 -0.1273 -0.1357
32821ION     NA48715  13.395  17.973   0.616 -0.1924 -0.0469 -0.1660
32822ION     NA48716  16.568  15.070  10.339  0.1815 -0.1828 -0.0495
32823ION     NA48717   7.139  15.281  13.487  0.1446 -0.2097 -0.0753
32824ION     NA48718   5.563  14.159  10.084 -0.2655  0.0988  0.2005
32825ION     NA48719   3.629  17.923  10.178  0.0868  0.0955  0.0998
32826ION     NA48720  15.605  15.977   5.762  0.0633 -0.0480  0.1657
32827ION     NA48721  16.782  16.599  10.606 -0.0984 -0.0489  0.1943
32828ION     NA48722  14.977   1.014  10.546 -0.1001 -0.0964  0.0986
32829ION     NA48723  13.096   3.605  10.605  0.3275 -0.1833 -0.0931
32830ION     NA48724  12.146  14.883  10.125 -0.1780  0.3399  0.0920
32831ION     NA48725   9.502  16.033   9.995  0.0661 -0.3634  0.1999
32832ION     NA48726  11.551   4.457   0.702  0.3297  0.0937  0.0306
32833ION     NA48727   5.628   4.017  14.438 -0.1911 -0.1343 -0.3091
32834ION     NA48728   4.637   0.105  10.171 -0.0962  0.1643 -0.0468
32835ION     NA48729  13.647   9.394   5.750  0.1541 -0.1528  0.0875
32836ION     NA48730   7.989   5.140   0.833 -0.2410  0.0391  0.1359
32837ION     NA48731  16.168   3.641  10.973 -0.1214  0.2108 -0.3176
32838ION     NA48732   8.008   2.979   4.923 -0.1056  0.1442  0.0510
32839ION     NA48733   2.399  16.505  12.028  0.0016  0.3342 -0.0305
32840ION     NA48734   0.113   5.412   0.773 -0.2306  0.0321  0.0368
32841ION     NA48735   6.819   7.984  10.307  0.1831  0.1548 -0.0104
32842ION     NA48736  17.061  16.870   4.114 -0.3690 -0.1221 -0.2550
32843ION     NA48737   0.445   0.034  10.634 -0.3921 -0.1046 -0.2817
32844ION     NA48738   6.920  15.849   0.485 -0.0788 -0.1058  0.1699
32845ION     NA48739   5.526   6.778   2.062  0.2242  0.4787  0.0481
32846ION     NA48740  16.797   2.452  10.707 -0.3190  0.2381 -0.1425
32847ION     NA48741   2.437   7.995  10.493 -0.4127 -0.2995 -0.2078
32848ION     NA48742   7.403   3.197   9.566  0.1943 -0.1315  0.1201
32849ION     NA48743  11.698  15.571   0.518 -0.0934 -0.1477 -0.0958
32850ION     NA48744  16.871  13.872  11.875  0.0554 -0.1919  0.2539
32851ION     NA48745   7.079  11.276   0.138 -0.0496 -0.0528  0.1153
32852ION     NA48746   5.798  15.601   5.182 -0.1013  0.0151 -0.1435
32853ION     NA48747  11.428  16.901   9.849 -0.0203  0.3240 -0.0643
32854ION     NA48748   2.583   4.548  15.980  0.0653 -0.3467  0.3062
32855ION     NA48749   8.601  14.601   9.944 -0.5418  0.1136 -0.1661
32856ION     NA48750  12.691  18.324   5.113 -0.4461 -0.2058 -0.0351
32857ION     NA48751   7.974  15.264  10.153  0.1275 -0.0124  0.1066
32858ION     NA48752   9.723   5.678  10.113 -0.0821  0.2262 -0.1433
32859ION     NA48753  11.867  10.709   9.841 -0.1029  0.2818  0.2712
32860ION     NA48754  14.254  16.048  10.043  0.1887  0.2434  0.4011
32861ION     NA48755   1.294  12.917  14.685 -0.1753  0.0802  0.2016
32862ION     NA48756   4.376  15.420  12.939 -0.2169 -0.2551  0.0419
32863ION     NA48757   0.911  10.292  10.979  0.1530 -0.1417  0.0436
32864ION     NA48758   7.802   8.246  10.211  0.0068 -0.1044  0.4663
32865ION     NA48759  16.204  17.272  14.384  0.1499 -0.0185  0.1136
32866ION     NA48760   0.721   7.534  15.548 -0.0835  0.1262  0.1176
32867ION     NA48761   7.126  11.019   4.353  0.0849 -0.0257 -0.1645
32868ION     NA48762  10.043  12.873   0.474  0.2691  0.0896 -0.1565
32869ION     NA48763   8.575   9.802  10.085 -0.2525 -0.4371  0.1317
32870ION     NA48764   6.007   6.801  12.833 -0.1064 -0.0679  0.1359
32871ION     NA48765  13.581  16.682  13.747 -0.0059  0.3828  0.0612
32872ION     NA48766   0.394   4.736   1.991  0.0994  0.3077 -0.1003
32873ION     NA48767  10.884   3.629  10.304  0.1526 -0.3129 -0.0025
32874ION     NA48768   2.280  17.744   5.623  0.1998  0.0798 -0.0490
32875ION     NA48769  18.456  12.477  12.790 -0.2079  0.2518 -0.0893
32876ION     NA48770   5.551  16.875   5.516  0.3080  0.1461 -0.0173
32877ION     NA48771   4.833   2.650  10.194 -0.1951  0.0049  0.4030
32878ION     NA48772   1.260  17.911  10.061 -0.0608 -0.1244 -0.2470
32879ION     NA48773  17.840   3.835  10.900 -0.2939 -0.1212 -0.2749
32880ION     NA48774  11.413  10.025   5.942 -0.0035 -0.2573 -0.2471
32881ION     NA48775  15.587   2.519  16.071  0.2837 -0.1997  0.2002
32882ION     NA48776   1.941  12.019  16.110  0.5028  0.1801 -0.0675
32883ION     NA48777   6.569   3.171   9.872 -0.0538 -0.0534 -0.2029
32884ION     NA48778  11.699   2.410   3.095 -0.0661  0.2684  0.1278
32885ION     NA48779  16.074   6.075  10.935  0.3423  0.0699 -0.2593
32886ION     NA48780   8.451  10.670  10.157  0.1023  0.1341 -0.4231
32887ION     NA48781   7.365   0.190  10.118 -0.2695  0.3650 -0.0639
32888ION     NA48782   5.160  11.889   0.666 -0.2616  0.0087 -0.0241
32889ION     NA48783   9.521  18.306  10.026  0.1097  0.0114 -0.0521
32890ION     NA48784  16.633  11.278  10.705  0.1963 -0.1616  0.2409
32891ION     NA48785  10.486  12.199   9.945  0.3958  0.0982  0.0475
32892ION     NA48786  13.014  14.350  14.292 -0.1673  0.2500 -0.1559
32893ION     NA48787   4.659  14.912  14.593  0.0746  0.2716  0.2495
32894ION     NA48788   4.895  16.665  11.002 -0.2009  0.0900  0.5566
32895ION     NA48789   1.735   0.912  11.729 -0.1115  0.0497 -0.3056
32896ION     NA48790   4.392   3.240   2.329 -0.1188 -0.0470 -0.0552
32897ION     NA48791  10.354   2.747  10.140 -0.1842  0.0790 -0.1347
32898ION     NA48792   9.588   2.799   9.998  0.2946 -0.1858  0.2226
32899ION     NA48793  14.188   8.627   4.281  0.2345 -0.2373 -0.1256
32900ION     NA48794  13.011   4.188  13.848  0.1936  0.3943  0.0003
32901ION     NA48795   5.319   4.468   1.453 -0.0154 -0.1101  0.0688
32902ION     NA48796   8.787   9.164   5.585  0.0845 -0.1752  0.2735
32903ION     NA48797   8.481   5.271  10.675 -0.2876 -0.1035 -0.0578
32904ION     NA48798   1.125   1.480  10.420 -0.5521 -0.2550  0.1117
32905ION     NA48799   8.058   3.807  14.536 -0.2748 -0.2612  0.3638
32906ION     NA48800  13.064  17.429   9.852 -0.1312 -0.3520 -0.0460
32907ION     NA48801   5.050   9.638  10.173  0.1083 -0.0940  0.0911
32908ION     NA48802   3.644  13.053  10.211  0.0804 -0.0364  0.3567
32909ION     NA48803  17.229   7.469   1.176 -0.1033 -0.1995 -0.2319
32910ION     NA48804   9.566   3.916   1.425  0.1170 -0.0181 -0.2108
32911ION     NA48805  13.730  14.483  10.013 -0.0886 -0.1091 -0.4955
32912ION     NA48806   2.655  14.399  14.075 -0.2705  0.0842 -0.0230
32913ION     NA48807   4.337  18.448   0.765 -0.0507 -0.2087 -0.1015
32914ION     NA48808  11.885   6.485  10.767  0.2483  0.1023  0.3300
32915ION     NA48809   6.028   3.915  10.478  0.0562 -0.1198 -0.1189
32916ION     NA48810   7.016  17.018  10.379  0.1085 -0.1807 -0.2780
32917ION     NA48811   1.011  10.734  10.608 -0.0209 -0.1049  0.1210
32918ION     NA48812   5.283   7.866   6.319  0.1527  0.2054  0.0487
32919ION     NA48813   4.825   5.475  10.316  0.2032 -0.2098 -0.3664
32920ION     NA48814   0.781  15.160  10.517  0.0545  0.0531 -0.0880
32921ION     NA48815   9.375   9.587  10.536  0.1289 -0.3328  0.2613
32922ION     NA48816   2.225   2.805   5.904 -0.1193  0.2371 -0.3737
32923ION     NA48817  14.106   6.465  10.945  0.1287  0.0542  0.1760
32924ION     NA48818  17.711  13.338  10.431  0.0366 -0.0439 -0.0571
32925ION     NA48819   8.603  12.048   9.948  0.0261 -0.0356 -0.1282
32926ION     NA48820  14.364  11.868   1.148  0.0217 -0.0670 -0.1475
32927ION     NA48821   8.616  12.783  10.285 -0.1974 -0.1322 -0.0026
32928ION     NA48822   5.571   3.060  10.224  0.1754 -0.1714  0.2339
32929ION     NA48823  16.793   9.346  10.693 -0.1711  0.0528  0.2801
32930ION     NA48824   3.553  16.883  10.415 -0.1379 -0.0876 -0.1519
32931ION     NA48825   8.744   9.721   0.981  0.1981  0.2418  0.0152
32932ION     NA48826   8.877  14.770   2.034 -0.0810 -0.2495  0.2909
32933ION     NA48827  10.908   1.483   1.769 -0.2178  0.2572  0.1262
32934ION     NA48828   5.428   8.836  15.731  0.1805  0.1641  0.2076
32935ION     NA48829   1.420   5.827   2.857  0.1271  0.0839  0.1626
32936ION     NA48830  10.344  17.557  14.300  0.1849  0.1363  0.1208
32937ION     NA48831  15.358   7.284  14.786  0.0849 -0.1198 -0.0648
32938ION     NA48832   3.011   4.440   4.518  0.0041 -0.0188  0.0257
32939ION     NA48833   2.567  12.123  10.209  0.0530 -0.0960 -0.0835
32940ION     NA48834  17.055   7.740   0.102  0.2285 -0.0134 -0.0049
32941ION     NA48835   5.177  16.895  10.199 -0.2654 -0.2544  0.6372
32942ION     NA48836  11.615   3.077  10.443 -0.0412 -0.1397 -0.1762
32943ION     NA48837   3.146   4.785   2.697 -0.1234  0.0742  0.1183
32944ION     NA48838   4.061  16.474   0.806 -0.0822  0.0316  0.0104
32945ION     NA48839   6.301  17.424  10.482 -0.0654 -0.0419 -0.0380
32946ION     NA48840  14.750   8.735  10.762  0.2460 -0.2997 -0.0110
32947ION     NA48841   9.253  12.251  12.528  0.0044  0.0561  0.1092
32948ION     NA48842  17.488  12.689  12.960 -0.0539  0.0159  0.0673
32949ION     NA48843  11.253  15.502  10.031  0.2484 -0.0591 -0.0649
32950ION     NA48844  11.161  10.336   4.288 -0.0125  0.0798 -0.0808
32951ION     NA48845   6.705   3.951  10.213  0.3528  0.2905  0.3332
32952ION     NA48846  15.154  10.442  10.380 -0.0219 -0.1186 -0.4970
32953ION     NA48847  16.858  18.142   3.314 -0.0922  0.1041  0.0759
32954ION     NA48848  17.625   4.887  10.853  0.1021  0.2713  0.7192
32955ION     NA48849   4.996   7.157  10.385 -0.3514 -0.0669 -0.1180
32956ION     NA48850   8.463   5.394  10.040 -0.2465  0.0510  0.0356
32957ION     NA48851  10.002   3.615   9.934  0.0154  0.2629  0.0811
32958ION     NA48852  10.757   5.432   4.420 -0.2760 -0.0212  0.1064
32959ION     NA48853   6.940   7.967  10.807 -0.3531  0.2902 -0.0122
32960ION     NA48854   6.326   0.395   5.527 -0.1828  0.1084 -0.1907
32961ION     NA48855   3.449   0.083  15.350 -0.0315 -0.0152 -0.0077
32962ION     NA48856  11.211  12.711   9.733  0.1822  0.1018 -0.0998
32963ION     NA48857   2.494   7.486   6.131  0.3102 -0.2517  0.0015
32964ION     NA48858   7.060  12.117   9.895 -0.2408  0.3673  0.2937
32965ION     NA48859   4.048   2.317  12.922 -0.1085  0.1723 -0.1582
32966ION     NA48860  18.196   9.569   6.347  0.4177  0.1242  0.0894
32967ION     NA48861   1.469  11.575  10.479 -0.0863  0.4220  0.2120
32968ION     NA48862   2.917   1.720  10.121  0.1896 -0.2145  0.1448
32969ION     NA48863  12.285  17.830  10.113 -0.2029 -0.2669  0.0439
32970ION     NA48864   6.936  12.645   9.981 -0.1549  0.0670 -0.0351
32971ION     NA48865   0.574   2.371  10.425 -0.3011  0.2923  0.3739
32972ION     NA48866  15.278   7.370  10.830 -0.2587 -0.3095 -0.1324
32973ION     NA48867  11.832  13.023   9.914  0.2123 -0.1393 -0.1380
32974ION     NA48868  18.308  13.959   6.079  0.1692 -0.0939  0.3428
32975ION     NA48869   2.284   6.321   4.536  0.2666 -0.0285 -0.1180
32976ION     NA48870  15.666  14.849   5.951 -0.0767 -0.3868 -0.1655
32977ION     NA48871   2.530   6.030  10.618  0.0529  0.1874 -0.1112
32978ION     NA48872   1.858  10.086  13.765  0.0573  0.3064  0.0458
32979ION     NA48873  17.007   1.513  10.534 -0.1047 -0.1573 -0.2771
32980ION     NA48874   9.900  10.981   5.639  0.1362 -0.2752  0.0226
32981ION     NA48875  17.253   2.711   3.548 -0.1786 -0.0596 -0.7109
32982ION     NA48876   3.314   8.583  10.538  0.1388 -0.0141 -0.2494
32983ION     NA48877   3.496   5.873  10.322 -0.2527  0.0286  0.3294
32984ION     NA48878  12.916   1.246  10.728 -0.4371  0.0874 -0.2612
32985ION     NA48879   9.563   2.665   2.915  0.1688  0.3329  0.0047
32986ION     NA48880  14.891  12.272  10.228  0.1523 -0.0671  0.0419
32987ION     NA48881   2.073   8.348  11.247  0.2354 -0.4545 -0.0695
32988ION     NA48882  15.755   6.389   1.620 -0.0591 -0.0726 -0.0001
32989ION     NA48883  18.009  11.594  12.775  0.0749  0.0668  0.1060
32990ION     NA48884   3.881  11.334  10.030  0.2373  0.0468 -0.3201
32991ION     NA48885  17.290   9.357  10.669  0.1451 -0.2204 -0.1425
32992ION     NA48886   2.773  13.658  10.502  0.4086  0.0580  0.0225
32993ION     NA48887  12.887  18.408  12.006 -0.2947  0.0498 -0.1737
32994ION     NA48888  15.953   5.336  10.776  0.0880  0.6493 -0.0905
32995ION     NA48889  11.161   2.382  10.101 -0.1207  0.3179 -0.3097
32996ION     NA48890   6.568   9.403  10.019  0.1111 -0.2266  0.0722
32997ION     NA48891   6.918   4.854  10.325  0.0413  0.0077 -0.1625
32998ION     NA48892  14.672  15.074  16.091 -0.2375  0.3374  0.0545
32999ION     NA48893  10.887   4.516   5.929  0.1292  0.2376  0.0674
33000ION     NA48894  17.546  17.801  13.422 -0.0115 -0.1623  0.1479
33001ION     NA48895  10.613   8.124   3.458 -0.2259 -0.1388 -0.1402
33002ION     NA48896   4.785  12.823   2.180 -0.2135 -0.1278 -0.1089
33003ION     NA48897   2.421  13.039   5.884 -0.1258 -0.2728 -0.0368
33004ION     NA48898   0.680   8.205   0.445  0.2876  0.2300 -0.3224
33005ION     NA48899  18.162   6.591  11.775  0.1506 -0.2880  0.1877
33006ION     NA48900   1.718  17.911   2.098  0.2290 -0.0181 -0.1701
33007ION     NA48901   1.433  14.881   4.531 -0.1323 -0.0263  0.0252
33008ION     NA48902   9.245  12.991   9.949 -0.2655  0.1470  0.0839
33009ION     NA48903  17.853   8.648  10.827  0.0236  0.0931  0.2397
33010ION     NA48904  17.694   2.272  10.729 -0.0540  0.0185  0.1566
33011ION     NA48905   6.691  12.596  11.384  0.3036  0.1139  0.0910
33012ION     NA48906  14.656   5.603   1.747  0.2504 -0.0973  0.3506
33013ION     NA48907  12.036  12.466  15.858 -0.0907  0.1527  0.0519
33014ION     NA48908  16.687  16.049  10.630 -0.1290 -0.0412 -0.1462
33015ION     NA48909   0.961   8.315  10.791 -0.3601  0.4339  0.3529
33016ION     NA48910   9.412   0.072  12.655  0.3878 -0.0057  0.1683
33017ION     NA48911  16.096   2.597   1.656  0.0997  0.0872 -0.1879
33018ION     NA48912   4.189  16.354   5.733 -0.1625  0.3340  0.0254
33019ION     NA48913   6.267  16.530  10.355  0.3298  0.0355 -0.0173
33020ION     NA48914  18.257   5.705  10.663  0.1522 -0.1194  0.0250
33021ION     NA48915   0.310   6.932  10.603  0.1162  0.2636 -0.3057
33022ION     NA48916   2.923   7.763  10.401  0.0232  0.2169 -0.0619
33023ION     NA48917  13.324  12.840   4.601 -0.3409 -0.0889  0.0934
33024ION     NA48918   9.547  14.871   9.849 -0.1124  0.2106 -0.2494
33025ION     NA48919  16.934   8.245  14.965 -0.1032  0.2786  0.3382
33026ION     NA48920   3.839  10.065  12.077  0.1843 -0.0981 -0.3196
33027ION     NA48921   3.366   0.033   4.413  0.0341  0.2787  0.0639
33028ION     NA48922   0.779   6.022  10.525 -0.1323 -0.1171 -0.1136
33029ION     NA48923  13.128  11.446   5.363 -0.1537 -0.1819  0.0034
33030ION     NA48924  10.433  12.297   4.140 -0.1882  0.2062  0.1615
33031ION     NA48925   0.526  11.066  15.850  0.0543  0.1921 -0.0528
33032ION     NA48926   4.089   0.076   5.973 -0.1025 -0.0925 -0.1555
33033ION     NA48927  13.818   9.256  15.675 -0.0039  0.2470 -0.0662
33034ION     NA48928   3.307   9.901  13.622  0.0813  0.0932  0.0314
33035ION     NA48929  10.505   6.678  10.253 -0.3629  0.3214 -0.2575
33036ION     NA48930  11.813  17.689  10.091  0.1638 -0.0253  0.0145
33037ION     NA48931   4.156  17.944  10.255 -0.3428 -0.1036 -0.1203
33038ION     NA48932   7.474   2.594   9.955 -0.2943  0.1821  0.0809
33039ION     NA48933  13.749  10.935  10.309 -0.1943 -0.1544 -0.0754
33040ION     NA48934  14.348   1.224   2.529  0.3719 -0.1293  0.1543
33041ION     NA48935   3.834   4.872  10.343 -0.3235 -0.2132 -0.2069
33042ION     NA48936  10.093   4.198  13.041  0.1356  0.0456 -0.0025
33043ION     NA48937  17.243   1.040  11.097  0.0942 -0.4613  0.3514
33044ION     NA48938  14.124  12.753  10.244  0.3017  0.1048  0.1724
33045ION     NA48939   8.204   5.225   5.550 -0.2720 -0.0228 -0.0676
33046ION     NA48940   4.119   5.135   4.644 -0.2588 -0.1717  0.0765
33047ION     NA48941  11.030   9.552  10.235 -0.1132 -0.0925  0.2777
33048ION     NA48942  12.153   6.417   1.146 -0.0165  0.1401 -0.0362
33049ION     NA48943   7.913   1.061   9.967 -0.1664 -0.1836 -0.0102
33050ION     NA48944   2.640   3.568   3.587  0.0341 -0.0793 -0.2022
33051ION     NA48945  16.756   4.784  11.035 -0.1261 -0.3798  0.0256
33052ION     NA48946  14.248   4.915  10.917  0.3170 -0.3820 -0.1031
33053ION     NA48947  13.714   6.106  10.980 -0.0725 -0.1480  0.1044
33054ION     NA48948   6.131  10.932  15.832 -0.0077  0.2126  0.1690
33055ION     NA48949  17.918   4.291   5.294 -0.0634  0.0965 -0.4332
33056ION     NA48950   8.088   4.560  10.144 -0.1919  0.1481  0.0344
33057ION     NA48951  15.854  16.765  10.369 -0.2259 -0.3761  0.0038
33058ION     NA48952   8.861   0.594  13.474 -0.2894  0.2090 -0.1544
33059ION     NA48953   1.106   4.493  10.603  0.1011  0.1206 -0.0689
33060ION     NA48954  11.182   3.251   3.439 -0.3822 -0.0877 -0.2188
33061ION     NA48955   0.005  13.023   5.652  0.0328  0.0266 -0.3118
33062ION     NA48956  12.295   1.512  10.235 -0.0555 -0.2004  0.0373
33063ION     NA48957   4.412  11.347  12.081 -0.1793 -0.0542 -0.2786
33064ION     NA48958   1.428  16.982  10.327  0.1332  0.2638 -0.2343
33065ION     NA48959   0.097  16.610  12.572 -0.0613 -0.2127  0.4075
33066ION     NA48960   4.617  13.074  10.211 -0.0261  0.0586  0.2985
33067ION     NA48961  17.034  15.535   3.134 -0.2127  0.2822 -0.1052
33068ION     NA48962   1.672   3.691  10.524 -0.0260 -0.2808  0.1608
33069ION     NA48963  13.517   6.503  14.414 -0.0379  0.1456 -0.0612
33070ION     NA48964   5.466  15.051   0.951 -0.0307  0.1267 -0.1838
33071ION     NA48965   2.077  18.374   9.960 -0.0330  0.1177 -0.2097
33072ION     NA48966   9.435  12.143  10.299 -0.0234  0.1002  0.1222
33073ION     NA48967   9.968  15.628  10.720 -0.2442  0.0032 -0.2562
33074ION     NA48968  15.230   9.704  10.769  0.0145  0.4020 -0.1758
33075ION     NA48969  10.405  18.332  10.342  0.0729  0.3734  0.0836
33076ION     NA48970   5.421   5.414  14.274  0.2384  0.1390 -0.2431
33077ION     NA48971   9.471   7.481  10.325 -0.0703 -0.0020 -0.1251
33078ION     NA48972  10.522   7.581  10.490  0.1095 -0.0125  0.0085
33079ION     NA48973   3.847   2.662  10.323 -0.0596  0.1971  0.1166
33080ION     NA48974  10.928   5.066  10.273 -0.0268 -0.1027  0.1519
33081ION     NA48975  15.449  13.660   2.721  0.0862 -0.2229  0.1053
33082ION     NA48976   7.621  17.139  12.061 -0.0066 -0.0900 -0.0521
33083ION     NA48977  13.382  18.422   5.670  0.1675  0.1427 -0.3525
33084ION     NA48978   3.155   0.002  11.961  0.0208 -0.0490 -0.1712
33085ION     NA48979   6.469   1.571  10.016  0.0483 -0.0153 -0.3344
33086ION     NA48980  13.011  12.271  10.022  0.1440 -0.2366  0.0899
33087ION     NA48981  16.523  13.936   3.593  0.0005  0.0676 -0.0891
33088ION     NA48982  12.720   5.417  10.564 -0.1748 -0.2574  0.0029
33089ION     NA48983  12.364   4.236   4.152 -0.1831  0.0556  0.0954
33090ION     NA48984   3.219  14.341  14.603  0.2449 -0.1446  0.2191
33091ION     NA48985  15.721  14.462  10.226 -0.0159  0.1465 -0.0314
33092ION     NA48986  15.949  11.877  14.905  0.3070  0.1009  0.0279
33093ION     NA48987   7.627  12.650  15.898 -0.0623 -0.1174 -0.0234
33094ION     NA48988  10.569   0.040  11.837 -0.1518 -0.1899 -0.3258
33095ION     NA48989  14.411  11.659   5.050  0.2352 -0.4611  0.1032
33096ION     NA48990  16.761   5.535  11.013  0.2156 -0.2544  0.2001
33097ION     NA48991  11.312  14.479  10.176 -0.0652 -0.1411 -0.0870
33098ION     NA48992  12.113  17.569   2.511 -0.1594 -0.0024  0.2133
33099ION     NA48993  12.893  18.109   3.359 -0.2179  0.1760  0.2065
33100ION     NA48994  16.881   9.257   6.372 -0.0657  0.0316  0.1748
33101ION     NA48995  10.286   0.873  10.057  0.0744  0.0555 -0.1114
33102ION     NA48996  10.764  14.366   2.106  0.2108 -0.1174  0.2422
33103ION     NA48997   3.030   2.772  10.138  0.0069 -0.2419  0.1015
33104ION     NA48998   5.098   6.123  10.372 -0.2644 -0.2010  0.0679
33105ION     NA48999   2.590   6.961  10.597 -0.0092 -0.1197  0.0250
33106ION     NA49000   7.473   0.216  10.610  0.0433  0.1170 -0.2402
33107ION     NA49001  10.041   1.323   5.696  0.0569 -0.4433 -0.3268
33108ION     NA49002  16.985  15.544   6.083 -0.1181  0.3093  0.0243
33109ION     NA49003  13.175   4.135  10.710 -0.0845  0.1288  0.2067
33110ION     NA49004   5.672  10.189   1.002  0.4426 -0.0270 -0.2678
33111ION     NA49005  12.530  13.977   9.940 -0.2231 -0.2303  0.0587
33112ION     NA49006  17.111   0.339  13.127 -0.0020  0.0847  0.3752
33113ION     NA49007  10.566   5.388  10.294  0.0979 -0.1624  0.1536
33114ION     NA49008  12.796   7.180   5.980 -0.4116  0.0900  0.2260
33115ION     NA49009   7.060  12.605  15.022 -0.2005 -0.1170 -0.0523
33116ION     NA49010  10.158   3.162  10.708 -0.1085 -0.0458  0.0837
33117ION     NA49011   0.729   9.126  10.671  0.2807  0.4511 -0.2827
33118ION     NA49012   3.011  10.831  10.204  0.0187 -0.0757 -0.1685
33119ION     NA49013  11.625  11.850   2.283 -0.1115 -0.1941 -0.2719
33120ION     NA49014   7.211  10.394   9.836  0.1578  0.3076  0.0317
33121ION     NA49015   3.227   0.294   5.837  0.0565  0.1379  0.0651
33122ION     NA49016   8.712   0.925   3.803 -0.0683  0.0992  0.3340
33123ION     NA49017   9.990  16.353  10.044 -0.1301 -0.3055  0.1807
33124ION     NA49018  12.379   9.905   0.579 -0.1055  0.1530  0.2819
33125ION     NA49019  11.949   5.563  10.490 -0.0607  0.2462  0.0670
33126ION     NA49020  13.171  12.506   5.404  0.1124 -0.2741 -0.0850
33127ION     NA49021   2.628  15.791  10.377  0.2274  0.0763 -0.1525
33128ION     NA49022  12.347   1.627  10.691  0.1934 -0.1532 -0.0704
33129ION     NA49023   0.203  16.215  10.588  0.0364  0.4937  0.2884
33130ION     NA49024  16.069  10.367   4.685 -0.2702 -0.2571  0.1336
33131ION     NA49025   6.135   5.947  10.288  0.0024  0.4056  0.0477
33132ION     NA49026   9.123  13.842  10.314  0.2365 -0.0882  0.1275
33133ION     NA49027   1.533  15.298   2.120 -0.2394 -0.0211  0.0919
33134ION     NA49028   2.939  18.227  10.232  0.1728 -0.0967 -0.1899
33135ION     NA49029  17.407  12.136   2.516  0.1693 -0.2603  0.3007
33136ION     NA49030  14.573   0.670  10.688 -0.1949  0.1733 -0.1647
33137ION     NA49031   1.759  10.231  10.430  0.0276  0.0014  0.0735
33138ION     NA49032   0.235   4.844   3.604  0.1293 -0.1363 -0.0785
33139ION     NA49033  12.476  10.666   1.702  0.0952 -0.0976 -0.1819
33140ION     NA49034   6.242   4.079   6.117  0.1906 -0.0887  0.2402
33141ION     NA49035   0.894   2.315  11.512 -0.0527 -0.2280  0.1103
33142ION     NA49036  12.764  13.181   9.817 -0.2974 -0.1313  0.0559
33143ION     NA49037   5.521  11.380   5.909 -0.1338 -0.1247 -0.0017
33144ION     NA49038  17.903   6.992   1.014 -0.3203  0.2229  0.1558
33145ION     NA49039  13.649  15.633   9.880 -0.0951  0.0907  0.0243
33146ION     NA49040   6.087  12.350  10.273 -0.2957 -0.3927  0.1078
33147ION     NA49041   2.438  14.810  10.255  0.0854 -0.1279 -0.1735
33148ION     NA49042  13.048   6.944   0.544 -0.1460 -0.1367  0.0363
33149ION     NA49043  17.738   1.610   6.032  0.0564 -0.3867  0.3775
33150ION     NA49044  11.026  17.521   4.907 -0.0605  0.0621  0.2452
33151ION     NA49045   1.805   8.052   6.201  0.0480 -0.0725 -0.0274
33152ION     NA49046  13.151   4.997   3.201 -0.1618  0.2666 -0.1125
33153ION     NA49047  17.786   8.766   6.466 -0.1825  0.0849 -0.1818
33154ION     NA49048   7.219  14.781  10.043 -0.2649 -0.2397  0.1477
33155ION     NA49049  13.903  12.038  10.428 -0.0096  0.3458  0.1994
33156ION     NA49050  12.616   4.533  16.074  0.0508 -0.3952 -0.2075
33157ION     NA49051  13.886   9.142  10.516  0.0740  0.3851 -0.3421
33158ION     NA49052  15.710  12.598  10.337  0.2145  0.0193 -0.0726
33159ION     NA49053   2.062   0.437   9.903  0.0344  0.0662 -0.1581
33160ION     NA49054  18.045  11.157   5.946 -0.0187  0.3701  0.2571
33161ION     NA49055   3.862   4.210  16.028  0.4081 -0.0649  0.0419
33162ION     NA49056   9.976   4.751  10.134 -0.0411  0.0172 -0.2869
33163ION     NA49057   5.491  15.680  10.244 -0.1107 -0.3128 -0.2353
33164ION     NA49058  15.615   6.737  10.837 -0.0482 -0.1204 -0.1391
33165ION     NA49059   9.484  10.011   1.333  0.1605 -0.1303 -0.1448
33166ION     NA49060   9.306   0.677  10.055 -0.3147 -0.1951 -0.2255
33167ION     NA49061   1.051  14.870   6.215 -0.0260 -0.0433  0.1225
33168ION     NA49062   7.566  13.690  10.192  0.0492 -0.2097  0.1297
33169ION     NA49063   2.694   4.580  10.441 -0.2083  0.1498  0.0381
33170ION     NA49064  17.911   0.976  10.580 -0.1389 -0.0205  0.2604
33171ION     NA49065   8.070   6.419  14.090 -0.1202  0.3883  0.0742
33172ION     NA49066  12.285   1.792  15.300 -0.0158 -0.4442 -0.2804
33173ION     NA49067   6.829  16.165  10.076 -0.3595  0.2269  0.2099
33174ION     NA49068   6.908   9.969   1.833  0.1426  0.0016  0.0616
33175ION     NA49069   6.890  15.190   2.672  0.1266  0.0242 -0.1633
  18.46831  18.46831  16.15277
